       N       E                     dE             d eps       ncg     rms          rms(c)
DAV:   1     0.912731211990E+03    0.91273E+03   -0.46619E+04  7728   0.273E+03
DAV:   2     0.390158374327E+02   -0.87372E+03   -0.85319E+03  6864   0.762E+02
DAV:   3    -0.183961356044E+02   -0.57412E+02   -0.55509E+02  7288   0.218E+02
DAV:   4    -0.197739508374E+02   -0.13778E+01   -0.13752E+01  7368   0.335E+01
DAV:   5    -0.198162062941E+02   -0.42255E-01   -0.42255E-01  8304   0.562E+00    0.161E+01
RMM:   6    -0.178327104149E+02    0.19835E+01   -0.36340E+01  6865   0.608E+01    0.104E+01
RMM:   7    -0.163850274438E+02    0.14477E+01   -0.66226E+00  6736   0.282E+01    0.120E+00
RMM:   8    -0.163489955407E+02    0.36032E-01   -0.67748E-02  7056   0.308E+00    0.337E-01
RMM:   9    -0.163481877166E+02    0.80782E-03   -0.14199E-02  7210   0.977E-01    0.936E-02
RMM:  10    -0.163484517402E+02   -0.26402E-03   -0.30252E-03  7327   0.650E-01    0.658E-02
RMM:  11    -0.163484711789E+02   -0.19439E-04   -0.10074E-03  7703   0.257E-01    0.206E-02
RMM:  12    -0.163484912684E+02   -0.20089E-04   -0.25509E-04  8495   0.147E-01    0.763E-03
RMM:  13    -0.163484991878E+02   -0.79195E-05   -0.66106E-05  8988   0.522E-02    0.274E-03
RMM:  14    -0.163485008588E+02   -0.16709E-05   -0.10040E-05  9407   0.231E-02    0.853E-04
RMM:  15    -0.163485010106E+02   -0.15182E-06   -0.14012E-06  9588   0.782E-03    0.122E-04
RMM:  16    -0.163485010720E+02   -0.61431E-07   -0.15518E-07  7169   0.303E-03    0.384E-04
RMM:  17    -0.163485010169E+02    0.55177E-07   -0.24656E-08  4160   0.155E-03    0.179E-05
RMM:  18    -0.163485010209E+02   -0.40745E-08   -0.67267E-09  3705   0.753E-04
   1 F= -.16348501E+02 E0= -.16349514E+02  d E =0.303808E-02
