<?xml version="1.0" encoding="ISO-8859-1"?>
<modeling>
 <generator>
  <i name="program" type="string">vasp </i>
  <i name="version" type="string">6.2.1  </i>
  <i name="subversion" type="string">16May21 (build Aug 15 2022 14:47:30) complex                          parallel </i>
  <i name="platform" type="string">LinuxGNU </i>
  <i name="date" type="string">2025 12 24 </i>
  <i name="time" type="string">15:19:28 </i>
 </generator>
 <incar>
  <i type="string" name="PREC">Accurate</i>
  <i type="string" name="ALGO">Fast</i>
  <i type="int" name="NELM">   100</i>
  <i name="EDIFF">      0.00000001</i>
  <i type="int" name="NSW">     0</i>
  <i name="ENCUT">    520.00000000</i>
  <i type="logical" name="LREAL"> F  </i>
  <i type="int" name="ISMEAR">     1</i>
  <i type="logical" name="LWAVE"> F  </i>
  <i type="logical" name="LCHARG"> T  </i>
  <i type="int" name="LORBIT">    11</i>
  <i type="logical" name="LASPH"> T  </i>
 </incar>
 <primitive_cell>
  <structure name="primitive_cell" >
   <crystal>
    <varray name="basis" >
     <v>       1.78871534      -1.78871534       0.00000000 </v>
     <v>       1.78871534       0.00000000       1.78871534 </v>
     <v>       0.00000000      -1.78871534       1.78871534 </v>
    </varray>
    <i name="volume">     11.44599856 </i>
    <varray name="rec_basis" >
     <v>       0.27953022      -0.27953022      -0.27953022 </v>
     <v>       0.27953022       0.27953022       0.27953022 </v>
     <v>      -0.27953022      -0.27953022       0.27953022 </v>
    </varray>
   </crystal>
   <varray name="positions" >
    <v>       0.00000000       0.00000000       0.00000000 </v>
   </varray>
  </structure>
  <varray name="primitive_index" >
   <v type="int" >        1 </v>
  </varray>
 </primitive_cell>
 <kpoints>
  <generation param="Gamma">
   <v type="int" name="divisions">      12       12       12 </v>
   <v name="usershift">      0.00000000       0.00000000       0.00000000 </v>
   <v name="genvec1">      0.08333333       0.00000000       0.00000000 </v>
   <v name="genvec2">      0.00000000       0.08333333       0.00000000 </v>
   <v name="genvec3">      0.00000000       0.00000000       0.08333333 </v>
   <v name="shift">      0.00000000       0.00000000       0.00000000 </v>
  </generation>
  <varray name="kpointlist" >
   <v>       0.00000000       0.00000000       0.00000000 </v>
   <v>       0.08333333       0.00000000       0.00000000 </v>
   <v>       0.16666667       0.00000000       0.00000000 </v>
   <v>       0.25000000       0.00000000       0.00000000 </v>
   <v>       0.33333333       0.00000000       0.00000000 </v>
   <v>       0.41666667       0.00000000       0.00000000 </v>
   <v>       0.50000000       0.00000000       0.00000000 </v>
   <v>       0.08333333       0.08333333       0.00000000 </v>
   <v>       0.16666667       0.08333333       0.00000000 </v>
   <v>       0.25000000       0.08333333       0.00000000 </v>
   <v>       0.33333333       0.08333333       0.00000000 </v>
   <v>       0.41666667       0.08333333       0.00000000 </v>
   <v>       0.50000000       0.08333333       0.00000000 </v>
   <v>       0.16666667       0.16666667       0.00000000 </v>
   <v>       0.25000000       0.16666667       0.00000000 </v>
   <v>       0.33333333       0.16666667       0.00000000 </v>
   <v>       0.41666667       0.16666667       0.00000000 </v>
   <v>       0.50000000       0.16666667       0.00000000 </v>
   <v>       0.25000000       0.25000000       0.00000000 </v>
   <v>       0.33333333       0.25000000       0.00000000 </v>
   <v>       0.41666667       0.25000000       0.00000000 </v>
   <v>       0.50000000       0.25000000       0.00000000 </v>
   <v>       0.33333333       0.33333333       0.00000000 </v>
   <v>       0.41666667       0.33333333       0.00000000 </v>
   <v>       0.50000000       0.33333333       0.00000000 </v>
   <v>       0.41666667       0.41666667       0.00000000 </v>
   <v>       0.50000000       0.41666667       0.00000000 </v>
   <v>       0.50000000       0.50000000       0.00000000 </v>
   <v>       0.08333333       0.08333333       0.08333333 </v>
   <v>       0.16666667       0.08333333       0.08333333 </v>
   <v>       0.25000000       0.08333333       0.08333333 </v>
   <v>       0.33333333       0.08333333       0.08333333 </v>
   <v>       0.41666667       0.08333333       0.08333333 </v>
   <v>       0.50000000       0.08333333       0.08333333 </v>
   <v>       0.16666667       0.16666667       0.08333333 </v>
   <v>       0.25000000       0.16666667       0.08333333 </v>
   <v>       0.33333333       0.16666667       0.08333333 </v>
   <v>       0.41666667       0.16666667       0.08333333 </v>
   <v>       0.50000000       0.16666667       0.08333333 </v>
   <v>       0.25000000       0.25000000       0.08333333 </v>
   <v>       0.33333333       0.25000000       0.08333333 </v>
   <v>       0.41666667       0.25000000       0.08333333 </v>
   <v>       0.50000000       0.25000000       0.08333333 </v>
   <v>       0.33333333       0.33333333       0.08333333 </v>
   <v>       0.41666667       0.33333333       0.08333333 </v>
   <v>       0.50000000       0.33333333       0.08333333 </v>
   <v>       0.41666667       0.41666667       0.08333333 </v>
   <v>       0.50000000       0.41666667       0.08333333 </v>
   <v>       0.50000000       0.50000000       0.08333333 </v>
   <v>       0.16666667       0.16666667       0.16666667 </v>
   <v>       0.25000000       0.16666667       0.16666667 </v>
   <v>       0.33333333       0.16666667       0.16666667 </v>
   <v>       0.41666667       0.16666667       0.16666667 </v>
   <v>       0.50000000       0.16666667       0.16666667 </v>
   <v>       0.25000000       0.25000000       0.16666667 </v>
   <v>       0.33333333       0.25000000       0.16666667 </v>
   <v>       0.41666667       0.25000000       0.16666667 </v>
   <v>       0.50000000       0.25000000       0.16666667 </v>
   <v>       0.33333333       0.33333333       0.16666667 </v>
   <v>       0.41666667       0.33333333       0.16666667 </v>
   <v>       0.50000000       0.33333333       0.16666667 </v>
   <v>       0.41666667       0.41666667       0.16666667 </v>
   <v>       0.50000000       0.41666667       0.16666667 </v>
   <v>       0.50000000       0.50000000       0.16666667 </v>
   <v>       0.25000000       0.25000000       0.25000000 </v>
   <v>       0.33333333       0.25000000       0.25000000 </v>
   <v>       0.41666667       0.25000000       0.25000000 </v>
   <v>       0.50000000       0.25000000       0.25000000 </v>
   <v>       0.33333333       0.33333333       0.25000000 </v>
   <v>       0.41666667       0.33333333       0.25000000 </v>
   <v>       0.50000000       0.33333333       0.25000000 </v>
   <v>       0.41666667       0.41666667       0.25000000 </v>
   <v>       0.50000000       0.41666667       0.25000000 </v>
   <v>       0.50000000       0.50000000       0.25000000 </v>
   <v>       0.33333333       0.33333333       0.33333333 </v>
   <v>       0.41666667       0.33333333       0.33333333 </v>
   <v>       0.50000000       0.33333333       0.33333333 </v>
   <v>       0.41666667       0.41666667       0.33333333 </v>
   <v>       0.50000000       0.41666667       0.33333333 </v>
   <v>       0.50000000       0.50000000       0.33333333 </v>
   <v>       0.41666667       0.41666667       0.41666667 </v>
   <v>       0.50000000       0.41666667       0.41666667 </v>
   <v>       0.50000000       0.50000000       0.41666667 </v>
   <v>       0.50000000       0.50000000       0.50000000 </v>
  </varray>
  <varray name="weights" >
   <v>       0.00057870 </v>
   <v>       0.00347222 </v>
   <v>       0.00347222 </v>
   <v>       0.00347222 </v>
   <v>       0.00347222 </v>
   <v>       0.00347222 </v>
   <v>       0.00173611 </v>
   <v>       0.00694444 </v>
   <v>       0.01388889 </v>
   <v>       0.01388889 </v>
   <v>       0.01388889 </v>
   <v>       0.01388889 </v>
   <v>       0.00694444 </v>
   <v>       0.00694444 </v>
   <v>       0.01388889 </v>
   <v>       0.01388889 </v>
   <v>       0.01388889 </v>
   <v>       0.00694444 </v>
   <v>       0.00694444 </v>
   <v>       0.01388889 </v>
   <v>       0.01388889 </v>
   <v>       0.00694444 </v>
   <v>       0.00694444 </v>
   <v>       0.01388889 </v>
   <v>       0.00694444 </v>
   <v>       0.00694444 </v>
   <v>       0.00694444 </v>
   <v>       0.00173611 </v>
   <v>       0.00462963 </v>
   <v>       0.01388889 </v>
   <v>       0.01388889 </v>
   <v>       0.01388889 </v>
   <v>       0.01388889 </v>
   <v>       0.00694444 </v>
   <v>       0.01388889 </v>
   <v>       0.02777778 </v>
   <v>       0.02777778 </v>
   <v>       0.02777778 </v>
   <v>       0.01388889 </v>
   <v>       0.01388889 </v>
   <v>       0.02777778 </v>
   <v>       0.02777778 </v>
   <v>       0.01388889 </v>
   <v>       0.01388889 </v>
   <v>       0.02777778 </v>
   <v>       0.01388889 </v>
   <v>       0.01388889 </v>
   <v>       0.01388889 </v>
   <v>       0.00347222 </v>
   <v>       0.00462963 </v>
   <v>       0.01388889 </v>
   <v>       0.01388889 </v>
   <v>       0.01388889 </v>
   <v>       0.00694444 </v>
   <v>       0.01388889 </v>
   <v>       0.02777778 </v>
   <v>       0.02777778 </v>
   <v>       0.01388889 </v>
   <v>       0.01388889 </v>
   <v>       0.02777778 </v>
   <v>       0.01388889 </v>
   <v>       0.01388889 </v>
   <v>       0.01388889 </v>
   <v>       0.00347222 </v>
   <v>       0.00462963 </v>
   <v>       0.01388889 </v>
   <v>       0.01388889 </v>
   <v>       0.00694444 </v>
   <v>       0.01388889 </v>
   <v>       0.02777778 </v>
   <v>       0.01388889 </v>
   <v>       0.01388889 </v>
   <v>       0.01388889 </v>
   <v>       0.00347222 </v>
   <v>       0.00462963 </v>
   <v>       0.01388889 </v>
   <v>       0.00694444 </v>
   <v>       0.01388889 </v>
   <v>       0.01388889 </v>
   <v>       0.00347222 </v>
   <v>       0.00462963 </v>
   <v>       0.00694444 </v>
   <v>       0.00347222 </v>
   <v>       0.00057870 </v>
  </varray>
 </kpoints>
 <parameters>
  <separator name="general" >
   <i type="string" name="SYSTEM">unknown system</i>
   <i type="logical" name="LCOMPAT"> F  </i>
  </separator>
  <separator name="electronic" >
   <i type="string" name="PREC">accura</i>
   <i name="ENMAX">    520.00000000</i>
   <i name="ENAUG">    758.23300000</i>
   <i name="EDIFF">      0.00000001</i>
   <i type="int" name="IALGO">    68</i>
   <i type="int" name="IWAVPR">    10</i>
   <i type="int" name="NBANDS">    40</i>
   <i type="int" name="NBANDSLOW">    -1</i>
   <i type="int" name="NBANDSHIGH">    -1</i>
   <i name="NELECT">     68.00000000</i>
   <i type="int" name="TURBO">     0</i>
   <i type="int" name="IRESTART">     0</i>
   <i type="int" name="NREBOOT">     0</i>
   <i type="int" name="NMIN">     0</i>
   <i name="EREF">      0.00000000</i>
   <separator name="electronic smearing" >
    <i type="int" name="ISMEAR">     1</i>
    <i name="SIGMA">      0.20000000</i>
    <i name="KSPACING">      0.50000000</i>
    <i type="logical" name="KGAMMA"> T  </i>
    <i type="logical" name="KBLOWUP"> T  </i>
   </separator>
   <separator name="electronic projectors" >
    <i type="logical" name="LREAL"> F  </i>
    <v name="ROPT">      0.00000000</v>
    <i type="int" name="LMAXPAW">  -100</i>
    <i type="int" name="LMAXMIX">     2</i>
    <i type="logical" name="NLSPLINE"> F  </i>
   </separator>
   <separator name="electronic startup" >
    <i type="int" name="ISTART">     0</i>
    <i type="int" name="ICHARG">     2</i>
    <i type="int" name="INIWAV">     1</i>
   </separator>
   <separator name="electronic spin" >
    <i type="int" name="ISPIN">     1</i>
    <i type="logical" name="LNONCOLLINEAR"> F  </i>
    <v name="MAGMOM">      1.00000000      1.00000000      1.00000000      1.00000000</v>
    <i name="NUPDOWN">     -1.00000000</i>
    <i type="logical" name="LSORBIT"> F  </i>
    <v name="SAXIS">      0.00000000      0.00000000      1.00000000</v>
    <i type="logical" name="LSPIRAL"> F  </i>
    <v name="QSPIRAL">      0.00000000      0.00000000      0.00000000</v>
    <i type="logical" name="LZEROZ"> F  </i>
   </separator>
   <separator name="electronic exchange-correlation" >
    <i type="logical" name="LASPH"> T  </i>
    <i type="logical" name="LMETAGGA"> F  </i>
   </separator>
   <separator name="electronic convergence" >
    <i type="int" name="NELM">   100</i>
    <i type="int" name="NELMDL">    -5</i>
    <i type="int" name="NELMIN">     2</i>
    <i name="ENINI">    520.00000000</i>
    <separator name="electronic convergence detail" >
     <i type="logical" name="LDIAG"> T  </i>
     <i type="logical" name="LSUBROT"> F  </i>
     <i name="WEIMIN">      0.00000000</i>
     <i name="EBREAK">      0.00000000</i>
     <i name="DEPER">      0.30000000</i>
     <i type="int" name="NRMM">     4</i>
     <i name="TIME">      0.40000000</i>
    </separator>
   </separator>
   <separator name="electronic mixer" >
    <i name="AMIX">      0.40000000</i>
    <i name="BMIX">      1.00000000</i>
    <i name="AMIN">      0.10000000</i>
    <i name="AMIX_MAG">      1.60000000</i>
    <i name="BMIX_MAG">      1.00000000</i>
    <separator name="electronic mixer details" >
     <i type="int" name="IMIX">     4</i>
     <i type="logical" name="MIXFIRST"> F  </i>
     <i type="int" name="MAXMIX">   -45</i>
     <i name="WC">    100.00000000</i>
     <i type="int" name="INIMIX">     1</i>
     <i type="int" name="MIXPRE">     1</i>
     <i type="int" name="MREMOVE">     5</i>
    </separator>
   </separator>
   <separator name="electronic dipolcorrection" >
    <i type="logical" name="LDIPOL"> F  </i>
    <i type="logical" name="LMONO"> F  </i>
    <i type="int" name="IDIPOL">     0</i>
    <i name="EPSILON">      1.00000000</i>
    <v name="DIPOL">   -100.00000000   -100.00000000   -100.00000000</v>
    <i name="EFIELD">      0.00000000</i>
   </separator>
  </separator>
  <separator name="grids" >
   <i type="int" name="NGX">    28</i>
   <i type="int" name="NGY">    28</i>
   <i type="int" name="NGZ">    28</i>
   <i type="int" name="NGXF">    56</i>
   <i type="int" name="NGYF">    56</i>
   <i type="int" name="NGZF">    56</i>
   <i type="logical" name="ADDGRID"> F  </i>
  </separator>
  <separator name="ionic" >
   <i type="int" name="NSW">     0</i>
   <i type="int" name="IBRION">    -1</i>
   <i type="int" name="MDALGO">     0</i>
   <i type="int" name="ISIF">     2</i>
   <i name="PSTRESS">      0.00000000</i>
   <i name="EDIFFG">      0.00000010</i>
   <i type="int" name="NFREE">     0</i>
   <i name="POTIM">      0.50000000</i>
   <i name="SMASS">     -3.00000000</i>
   <i name="SCALEE">      1.00000000</i>
  </separator>
  <separator name="ionic md" >
   <i name="TEBEG">      0.00010000</i>
   <i name="TEEND">      0.00010000</i>
   <i type="int" name="NBLOCK">     1</i>
   <i type="int" name="KBLOCK">     1</i>
   <i type="int" name="NPACO">   256</i>
   <i name="APACO">     16.00000000</i>
  </separator>
  <separator name="symmetry" >
   <i type="int" name="ISYM">     2</i>
   <i name="SYMPREC">      0.00001000</i>
  </separator>
  <separator name="dos" >
   <i type="int" name="LORBIT">    11</i>
   <v name="RWIGS">     -1.00000000</v>
   <i type="int" name="NEDOS">   301</i>
   <i name="EMIN">     10.00000000</i>
   <i name="EMAX">    -10.00000000</i>
   <i name="EFERMI">      0.00000000</i>
  </separator>
  <separator name="writing" >
   <i type="int" name="NWRITE">     2</i>
   <i type="logical" name="LWAVE"> F  </i>
   <i type="logical" name="LDOWNSAMPLE"> F  </i>
   <i type="logical" name="LCHARG"> T  </i>
   <i type="logical" name="LPARD"> F  </i>
   <i type="logical" name="LVTOT"> F  </i>
   <i type="logical" name="LVHAR"> F  </i>
   <i type="logical" name="LELF"> F  </i>
   <i type="logical" name="LOPTICS"> F  </i>
   <v name="STM">      0.00000000      0.00000000      0.00000000      0.00000000      0.00000000      0.00000000      0.00000000</v>
  </separator>
  <separator name="performance" >
   <i type="int" name="NPAR">     4</i>
   <i type="int" name="NSIM">     4</i>
   <i type="int" name="NBLK">    -1</i>
   <i type="logical" name="LPLANE"> T  </i>
   <i type="logical" name="LSCALAPACK"> T  </i>
   <i type="logical" name="LSCAAWARE"> F  </i>
   <i type="logical" name="LSCALU"> F  </i>
   <i type="logical" name="LASYNC"> F  </i>
   <i type="logical" name="LORBITALREAL"> F  </i>
  </separator>
  <separator name="miscellaneous" >
   <i type="int" name="IDIOT">     3</i>
   <i type="int" name="PHON_NSTRUCT">    -1</i>
   <i type="logical" name="LMUSIC"> F  </i>
   <v name="POMASS">     63.54600000</v>
   <v name="DARWINR">      0.00000000</v>
   <v name="DARWINV">      1.00000000</v>
   <i type="logical" name="LCORR"> T  </i>
  </separator>
  <i type="logical" name="GGA_COMPAT"> T  </i>
  <i type="logical" name="LBERRY"> F  </i>
  <i type="int" name="ICORELEVEL">     0</i>
  <i type="logical" name="LDAU"> F  </i>
  <i type="int" name="I_CONSTRAINED_M">     0</i>
  <separator name="electronic exchange-correlation" >
   <i type="string" name="GGA">--</i>
   <i type="int" name="VOSKOWN">     0</i>
   <i type="logical" name="LHFCALC"> F  </i>
   <i type="string" name="PRECFOCK"></i>
   <i type="logical" name="LSYMGRAD"> F  </i>
   <i type="logical" name="LHFONE"> F  </i>
   <i type="logical" name="LRHFCALC"> F  </i>
   <i type="logical" name="LTHOMAS"> F  </i>
   <i type="logical" name="LMODELHF"> F  </i>
   <i type="logical" name="LFOCKACE"> F  </i>
   <i name="ENCUT4O">     -1.00000000</i>
   <i type="int" name="EXXOEP">     0</i>
   <i type="int" name="FOURORBIT">     0</i>
   <i name="AEXX">      0.00000000</i>
   <i name="HFALPHA">      0.00000000</i>
   <i name="MCALPHA">      0.00000000</i>
   <i name="ALDAX">      1.00000000</i>
   <i name="AGGAX">      1.00000000</i>
   <i name="ALDAC">      1.00000000</i>
   <i name="AGGAC">      1.00000000</i>
   <i type="int" name="NKREDX">     1</i>
   <i type="int" name="NKREDY">     1</i>
   <i type="int" name="NKREDZ">     1</i>
   <i type="logical" name="SHIFTRED"> F  </i>
   <i type="logical" name="ODDONLY"> F  </i>
   <i type="logical" name="EVENONLY"> F  </i>
   <i type="int" name="LMAXFOCK">     0</i>
   <i type="int" name="NMAXFOCKAE">     0</i>
   <i type="logical" name="LFOCKAEDFT"> F  </i>
   <i name="HFSCREEN">      0.00000000</i>
   <i name="HFSCREENC">      0.00000000</i>
   <i type="int" name="NBANDSGWLOW">     0</i>
  </separator>
  <separator name="vdW DFT" >
   <i type="logical" name="LUSE_VDW"> F  </i>
   <i name="Zab_VDW">     -0.84910000</i>
   <i name="PARAM1">      0.12340000</i>
   <i name="PARAM2">      1.00000000</i>
   <i name="PARAM3">      0.00000000</i>
  </separator>
  <separator name="model GW" >
   <i type="int" name="MODEL_GW">     0</i>
   <i name="MODEL_EPS0">      6.86759914</i>
   <i name="MODEL_ALPHA">      1.00000000</i>
  </separator>
  <separator name="linear response parameters" >
   <i type="logical" name="LEPSILON"> F  </i>
   <i type="logical" name="LRPA"> F  </i>
   <i type="logical" name="LNABLA"> F  </i>
   <i type="logical" name="LVEL"> F  </i>
   <i type="int" name="KINTER">     0</i>
   <i name="CSHIFT">      0.10000000</i>
   <i name="OMEGAMAX">     -1.00000000</i>
   <i name="DEG_THRESHOLD">      0.00200000</i>
   <i name="RTIME">     -0.10000000</i>
   <i name="WPLASMAI">      0.00000000</i>
   <v name="DFIELD">      0.00000000      0.00000000      0.00000000</v>
   <v name="WPLASMA">      0.00000000      0.00000000      0.00000000      0.00000000      0.00000000      0.00000000      0.00000000      0.00000000      0.00000000</v>
  </separator>
  <separator name="orbital magnetization" >
   <i type="logical" name="NUCIND"> F  </i>
   <v name="MAGPOS">      0.00000000      0.00000000      0.00000000</v>
   <i type="logical" name="LNICSALL"> T  </i>
   <i type="logical" name="ORBITALMAG"> F  </i>
   <i type="logical" name="LMAGBLOCH"> F  </i>
   <i type="logical" name="LCHIMAG"> F  </i>
   <i type="logical" name="LGAUGE"> T  </i>
   <i type="int" name="MAGATOM">     0</i>
   <v name="MAGDIPOL">      0.00000000      0.00000000      0.00000000</v>
   <v name="AVECCONST">      0.00000000      0.00000000      0.00000000</v>
  </separator>
  <separator name="response functions" >
   <i type="logical" name="LFINITE_TEMPERATURE"> F  </i>
   <i type="logical" name="LADDER"> F  </i>
   <i type="logical" name="LRPAFORCE"> F  </i>
   <i type="logical" name="LFXC"> F  </i>
   <i type="logical" name="LHARTREE"> T  </i>
   <i type="int" name="IBSE">     0</i>
   <v type="int" name="KPOINT">    -1     0     0     0</v>
   <i type="logical" name="LTCTC"> F  </i>
   <i type="logical" name="LTCTE"> F  </i>
   <i type="logical" name="LTETE"> F  </i>
   <i type="logical" name="LTRIPLET"> F  </i>
   <i type="logical" name="LFXCEPS"> F  </i>
   <i type="logical" name="LFXHEG"> F  </i>
   <i type="int" name="NATURALO">     2</i>
   <i type="logical" name="LHOLEGF"> F  </i>
   <i type="logical" name="L2ORDER"> F  </i>
   <i type="logical" name="LDMP1"> F  </i>
   <i type="logical" name="LMP2LT"> F  </i>
   <i type="logical" name="LSMP2LT"> F  </i>
   <i type="logical" name="LGWLF"> F  </i>
   <i name="ENCUTGW">     -2.00000000</i>
   <i name="ENCUTGWSOFT">     -2.00000000</i>
   <i name="ENCUTLF">     -1.00000000</i>
   <i type="logical" name="LESF_SPLINES"> F  </i>
   <i type="int" name="LMAXMP2">    -1</i>
   <i name="SCISSOR">      0.00000000</i>
   <i type="int" name="NOMEGA">     0</i>
   <i type="int" name="NOMEGAR">     0</i>
   <i type="int" name="NBANDSGW">    -1</i>
   <i type="int" name="NBANDSO">    -1</i>
   <i type="int" name="NBANDSV">    -1</i>
   <i type="int" name="NELM">   100</i>
   <i type="int" name="NELMHF">     1</i>
   <i type="int" name="DIM">     3</i>
   <i type="int" name="IESPILON">     4</i>
   <i type="int" name="ANTIRES">     0</i>
   <i name="OMEGAMAX">    -30.00000000</i>
   <i name="OMEGAMIN">    -30.00000000</i>
   <i name="OMEGATL">   -200.00000000</i>
   <i type="int" name="OMEGAGRID">     0</i>
   <i name="CSHIFT">     -0.10000000</i>
   <i type="logical" name="LSELFENERGY"> F  </i>
   <i type="logical" name="LSPECTRAL"> F  </i>
   <i type="logical" name="LSPECTRALGW"> F  </i>
   <i type="logical" name="LSINGLES"> F  </i>
   <i type="logical" name="LFERMIGW"> F  </i>
   <i type="logical" name="ODDONLYGW"> F  </i>
   <i type="logical" name="EVENONLYGW"> F  </i>
   <i type="int" name="NKREDLFX">     1</i>
   <i type="int" name="NKREDLFY">     1</i>
   <i type="int" name="NKREDLFZ">     1</i>
   <i type="int" name="MAXMEM">  2800</i>
   <i type="int" name="TELESCOPE">     0</i>
   <i type="int" name="NTAUPAR">    -1</i>
   <i type="int" name="NOMEGAPAR">    -1</i>
   <i name="DAMP_NEWTON">      0.80000001</i>
   <i name="LAMBDA">      1.00000000</i>
  </separator>
  <separator name="External order field" >
   <i name="OFIELD_KAPPA">      0.00000000</i>
   <v name="OFIELD_K">      0.00000000      0.00000000      0.00000000</v>
   <i name="OFIELD_Q6_NEAR">      0.00000000</i>
   <i name="OFIELD_Q6_FAR">      0.00000000</i>
   <i name="OFIELD_A">      0.00000000</i>
  </separator>
 </parameters>
 <atominfo>
  <atoms>       4 </atoms>
  <types>       1 </types>
  <array name="atoms" >
   <dimension dim="1">ion</dimension>
   <field type="string">element</field>
   <field type="int">atomtype</field>
   <set>
    <rc><c>Cu</c><c>   1</c></rc>
    <rc><c>Cu</c><c>   1</c></rc>
    <rc><c>Cu</c><c>   1</c></rc>
    <rc><c>Cu</c><c>   1</c></rc>
   </set>
  </array>
  <array name="atomtypes" >
   <dimension dim="1">type</dimension>
   <field type="int">atomspertype</field>
   <field type="string">element</field>
   <field>mass</field>
   <field>valence</field>
   <field type="string">pseudopotential</field>
   <set>
    <rc><c>   4</c><c>Cu</c><c>     63.54600000</c><c>     17.00000000</c><c> PAW_PBE Cu_pv 06Sep2000                </c></rc>
   </set>
  </array>
 </atominfo>
 <structure name="initialpos" >
  <crystal>
   <varray name="basis" >
    <v>       3.57743067       0.00000000       0.00000000 </v>
    <v>       0.00000000       3.57743067       0.00000000 </v>
    <v>       0.00000000       0.00000000       3.57743067 </v>
   </varray>
   <i name="volume">     45.78399426 </i>
   <varray name="rec_basis" >
    <v>       0.27953022      -0.00000000       0.00000000 </v>
    <v>       0.00000000       0.27953022       0.00000000 </v>
    <v>      -0.00000000      -0.00000000       0.27953022 </v>
   </varray>
  </crystal>
  <varray name="positions" >
   <v>       0.00000000       0.00000000       0.00000000 </v>
   <v>       0.00000000       0.50000000       0.50000000 </v>
   <v>       0.50000000       0.00000000       0.50000000 </v>
   <v>       0.50000000       0.50000000       0.00000000 </v>
  </varray>
 </structure>
 <calculation>
  <scstep>
   <time name="dav">    4.33    4.33</time>
   <time name="total">    4.46    4.46</time>
   <energy>
    <i name="alphaZ">    632.24335727 </i>
    <i name="ewald"> -10666.91821728 </i>
    <i name="hartreedc">  -5114.98979914 </i>
    <i name="XCdc">    433.53703412 </i>
    <i name="pawpsdc">  12922.79092432 </i>
    <i name="pawaedc"> -13518.70815821 </i>
    <i name="eentropy">      0.00066186 </i>
    <i name="bandstr">   -251.76937649 </i>
    <i name="atom">  16476.54478555 </i>
    <i name="e_fr_energy">    912.73121199 </i>
    <i name="e_wo_entrp">    912.73055013 </i>
    <i name="e_0_energy">    912.73099137 </i>
   </energy>
  </scstep>
  <scstep>
   <time name="dav">    3.92    3.92</time>
   <time name="total">    3.92    3.92</time>
   <energy>
    <i name="e_fr_energy">     39.01583743 </i>
    <i name="e_wo_entrp">     39.01555714 </i>
    <i name="e_0_energy">     39.01574400 </i>
   </energy>
  </scstep>
  <scstep>
   <time name="dav">    4.13    4.13</time>
   <time name="total">    4.14    4.14</time>
   <energy>
    <i name="e_fr_energy">    -18.39613560 </i>
    <i name="e_wo_entrp">    -18.39636691 </i>
    <i name="e_0_energy">    -18.39621271 </i>
   </energy>
  </scstep>
  <scstep>
   <time name="dav">    4.11    4.11</time>
   <time name="total">    4.11    4.11</time>
   <energy>
    <i name="e_fr_energy">    -19.77395084 </i>
    <i name="e_wo_entrp">    -19.77407792 </i>
    <i name="e_0_energy">    -19.77399320 </i>
   </energy>
  </scstep>
  <scstep>
   <time name="dav">    4.54    4.54</time>
   <time name="total">    4.94    4.94</time>
   <energy>
    <i name="e_fr_energy">    -19.81620629 </i>
    <i name="e_wo_entrp">    -19.81634157 </i>
    <i name="e_0_energy">    -19.81625138 </i>
   </energy>
  </scstep>
  <scstep>
   <time name="diag">    1.07    1.07</time>
   <time name="diis">    3.19    3.19</time>
   <time name="orth">    0.06    0.06</time>
   <time name="total">    4.83    4.83</time>
   <energy>
    <i name="e_fr_energy">    -17.83271041 </i>
    <i name="e_wo_entrp">    -17.83739778 </i>
    <i name="e_0_energy">    -17.83427287 </i>
   </energy>
  </scstep>
  <scstep>
   <time name="diag">    1.04    1.04</time>
   <time name="diis">    3.14    3.14</time>
   <time name="orth">    0.06    0.06</time>
   <time name="total">    4.75    4.76</time>
   <energy>
    <i name="e_fr_energy">    -16.38502744 </i>
    <i name="e_wo_entrp">    -16.38782171 </i>
    <i name="e_0_energy">    -16.38595887 </i>
   </energy>
  </scstep>
  <scstep>
   <time name="diag">    1.04    1.04</time>
   <time name="diis">    3.06    3.06</time>
   <time name="orth">    0.06    0.06</time>
   <time name="total">    4.66    4.66</time>
   <energy>
    <i name="e_fr_energy">    -16.34899554 </i>
    <i name="e_wo_entrp">    -16.35189008 </i>
    <i name="e_0_energy">    -16.34996039 </i>
   </energy>
  </scstep>
  <scstep>
   <time name="diag">    1.05    1.05</time>
   <time name="diis">    3.26    3.26</time>
   <time name="orth">    0.06    0.06</time>
   <time name="total">    4.88    4.88</time>
   <energy>
    <i name="e_fr_energy">    -16.34818772 </i>
    <i name="e_wo_entrp">    -16.35126472 </i>
    <i name="e_0_energy">    -16.34921339 </i>
   </energy>
  </scstep>
  <scstep>
   <time name="diag">    1.06    1.06</time>
   <time name="diis">    3.13    3.13</time>
   <time name="orth">    0.06    0.06</time>
   <time name="total">    4.76    4.76</time>
   <energy>
    <i name="e_fr_energy">    -16.34845174 </i>
    <i name="e_wo_entrp">    -16.35146636 </i>
    <i name="e_0_energy">    -16.34945661 </i>
   </energy>
  </scstep>
  <scstep>
   <time name="diag">    1.05    1.05</time>
   <time name="diis">    3.45    3.45</time>
   <time name="orth">    0.06    0.06</time>
   <time name="total">    5.07    5.07</time>
   <energy>
    <i name="e_fr_energy">    -16.34847118 </i>
    <i name="e_wo_entrp">    -16.35151894 </i>
    <i name="e_0_energy">    -16.34948710 </i>
   </energy>
  </scstep>
  <scstep>
   <time name="diag">    1.06    1.06</time>
   <time name="diis">    3.69    3.69</time>
   <time name="orth">    0.06    0.06</time>
   <time name="total">    5.32    5.33</time>
   <energy>
    <i name="e_fr_energy">    -16.34849127 </i>
    <i name="e_wo_entrp">    -16.35152769 </i>
    <i name="e_0_energy">    -16.34950341 </i>
   </energy>
  </scstep>
  <scstep>
   <time name="diag">    1.03    1.03</time>
   <time name="diis">    3.91    3.91</time>
   <time name="orth">    0.06    0.06</time>
   <time name="total">    5.51    5.51</time>
   <energy>
    <i name="e_fr_energy">    -16.34849919 </i>
    <i name="e_wo_entrp">    -16.35153795 </i>
    <i name="e_0_energy">    -16.34951211 </i>
   </energy>
  </scstep>
  <scstep>
   <time name="diag">    1.04    1.04</time>
   <time name="diis">    4.07    4.07</time>
   <time name="orth">    0.06    0.06</time>
   <time name="total">    5.70    5.70</time>
   <energy>
    <i name="e_fr_energy">    -16.34850086 </i>
    <i name="e_wo_entrp">    -16.35153874 </i>
    <i name="e_0_energy">    -16.34951348 </i>
   </energy>
  </scstep>
  <scstep>
   <time name="diag">    1.05    1.05</time>
   <time name="diis">    4.23    4.23</time>
   <time name="orth">    0.06    0.06</time>
   <time name="total">    5.86    5.86</time>
   <energy>
    <i name="e_fr_energy">    -16.34850101 </i>
    <i name="e_wo_entrp">    -16.35153910 </i>
    <i name="e_0_energy">    -16.34951371 </i>
   </energy>
  </scstep>
  <scstep>
   <time name="diag">    1.06    1.06</time>
   <time name="diis">    3.26    3.26</time>
   <time name="orth">    0.06    0.06</time>
   <time name="total">    4.89    4.89</time>
   <energy>
    <i name="e_fr_energy">    -16.34850107 </i>
    <i name="e_wo_entrp">    -16.35153901 </i>
    <i name="e_0_energy">    -16.34951372 </i>
   </energy>
  </scstep>
  <scstep>
   <time name="diag">    1.05    1.05</time>
   <time name="diis">    2.18    2.18</time>
   <time name="orth">    0.06    0.06</time>
   <time name="total">    3.81    3.81</time>
   <energy>
    <i name="e_fr_energy">    -16.34850102 </i>
    <i name="e_wo_entrp">    -16.35153911 </i>
    <i name="e_0_energy">    -16.34951372 </i>
   </energy>
  </scstep>
  <scstep>
   <time name="diag">    1.05    1.05</time>
   <time name="diis">    1.99    1.99</time>
   <time name="orth">    0.06    0.06</time>
   <time name="total">    3.21    3.21</time>
   <energy>
    <i name="alphaZ">    632.24335727 </i>
    <i name="ewald"> -10666.91821728 </i>
    <i name="hartreedc">  -4950.53437466 </i>
    <i name="XCdc">    427.82335576 </i>
    <i name="pawpsdc">  12805.78464445 </i>
    <i name="pawaedc"> -13419.81858715 </i>
    <i name="eentropy">      0.00303808 </i>
    <i name="bandstr">  -1321.47650304 </i>
    <i name="atom">  16476.54478555 </i>
    <i name="e_fr_energy">    -16.34850102 </i>
    <i name="e_wo_entrp">    -16.35153910 </i>
    <i name="e_0_energy">    -16.34951371 </i>
   </energy>
  </scstep>
  <structure>
   <crystal>
    <varray name="basis" >
     <v>       3.57743067       0.00000000       0.00000000 </v>
     <v>       0.00000000       3.57743067       0.00000000 </v>
     <v>       0.00000000       0.00000000       3.57743067 </v>
    </varray>
    <i name="volume">     45.78399426 </i>
    <varray name="rec_basis" >
     <v>       0.27953022      -0.00000000       0.00000000 </v>
     <v>       0.00000000       0.27953022       0.00000000 </v>
     <v>      -0.00000000      -0.00000000       0.27953022 </v>
    </varray>
   </crystal>
   <varray name="positions" >
    <v>       0.00000000       0.00000000       0.00000000 </v>
    <v>       0.00000000       0.50000000       0.50000000 </v>
    <v>       0.50000000       0.00000000       0.50000000 </v>
    <v>       0.50000000       0.50000000       0.00000000 </v>
   </varray>
  </structure>
  <varray name="forces" >
   <v>      -0.00000000       0.00000000       0.00000000 </v>
   <v>       0.00000000       0.00000000      -0.00000000 </v>
   <v>       0.00000000       0.00000000       0.00000000 </v>
   <v>      -0.00000000      -0.00000000      -0.00000000 </v>
  </varray>
  <varray name="stress" >
   <v>      50.02154478       0.00000000       0.00000000 </v>
   <v>       0.00000000      50.02154478       0.00000000 </v>
   <v>       0.00000000       0.00000000      50.02154478 </v>
  </varray>
  <energy>
   <i name="e_fr_energy">    -16.34850102 </i>
   <i name="e_wo_entrp">    -16.35153910 </i>
   <i name="e_0_energy">    -16.34951371 </i>
  </energy>
  <time name="totalsc">   87.55   87.61</time>
  <eigenvalues>
   <array>
    <dimension dim="1">band</dimension>
    <dimension dim="2">kpoint</dimension>
    <dimension dim="3">spin</dimension>
    <field>eigene</field>
    <field>occ</field>
    <set>
     <set comment="spin 1">
      <set comment="kpoint 1">
       <r>  -62.7232    1.0000 </r>
       <r>  -62.7232    1.0000 </r>
       <r>  -62.7232    1.0000 </r>
       <r>  -62.6552    1.0000 </r>
       <r>  -62.6552    1.0000 </r>
       <r>  -62.6552    1.0000 </r>
       <r>  -62.6552    1.0000 </r>
       <r>  -62.6552    1.0000 </r>
       <r>  -62.6552    1.0000 </r>
       <r>  -62.6101    1.0000 </r>
       <r>  -62.6101    1.0000 </r>
       <r>  -62.6101    1.0000 </r>
       <r>   -2.3455    1.0000 </r>
       <r>    2.1939    1.0000 </r>
       <r>    2.1939    1.0000 </r>
       <r>    2.1939    1.0000 </r>
       <r>    2.6788    1.0000 </r>
       <r>    2.6788    1.0000 </r>
       <r>    2.6788    1.0000 </r>
       <r>    4.1542    1.0000 </r>
       <r>    4.1542    1.0000 </r>
       <r>    4.1542    1.0000 </r>
       <r>    5.0247    1.0000 </r>
       <r>    5.0247    1.0000 </r>
       <r>    5.6072    1.0000 </r>
       <r>    5.6072    1.0000 </r>
       <r>    5.6072    1.0000 </r>
       <r>    5.7786    1.0000 </r>
       <r>    5.7786    1.0000 </r>
       <r>    5.7786    1.0000 </r>
       <r>    5.7786    1.0000 </r>
       <r>    5.7786    1.0000 </r>
       <r>    5.7786    1.0000 </r>
       <r>    8.7182   -0.0000 </r>
       <r>    8.7182   -0.0000 </r>
       <r>    8.7182   -0.0000 </r>
       <r>   14.6164    0.0000 </r>
       <r>   14.6164    0.0000 </r>
       <r>   14.6164    0.0000 </r>
       <r>   20.6321    0.0000 </r>
      </set>
      <set comment="kpoint 2">
       <r>  -62.7221    1.0000 </r>
       <r>  -62.7221    1.0000 </r>
       <r>  -62.7220    1.0000 </r>
       <r>  -62.6564    1.0000 </r>
       <r>  -62.6564    1.0000 </r>
       <r>  -62.6555    1.0000 </r>
       <r>  -62.6555    1.0000 </r>
       <r>  -62.6547    1.0000 </r>
       <r>  -62.6547    1.0000 </r>
       <r>  -62.6114    1.0000 </r>
       <r>  -62.6102    1.0000 </r>
       <r>  -62.6102    1.0000 </r>
       <r>   -2.2590    1.0000 </r>
       <r>    2.1933    1.0000 </r>
       <r>    2.2352    1.0000 </r>
       <r>    2.2352    1.0000 </r>
       <r>    2.7024    1.0000 </r>
       <r>    2.7038    1.0000 </r>
       <r>    2.7038    1.0000 </r>
       <r>    4.1279    1.0000 </r>
       <r>    4.1757    1.0000 </r>
       <r>    4.1757    1.0000 </r>
       <r>    5.0009    1.0000 </r>
       <r>    5.0348    1.0000 </r>
       <r>    5.5758    1.0000 </r>
       <r>    5.5758    1.0000 </r>
       <r>    5.5970    1.0000 </r>
       <r>    5.6160    1.0000 </r>
       <r>    5.6160    1.0000 </r>
       <r>    5.7413    1.0000 </r>
       <r>    5.7413    1.0000 </r>
       <r>    5.7787    1.0000 </r>
       <r>    5.7787    1.0000 </r>
       <r>    8.2052   -0.0000 </r>
       <r>    8.9573   -0.0000 </r>
       <r>    8.9573   -0.0000 </r>
       <r>   14.6461    0.0000 </r>
       <r>   14.6461    0.0000 </r>
       <r>   15.2986    0.0000 </r>
       <r>   20.0771    0.0000 </r>
      </set>
      <set comment="kpoint 3">
       <r>  -62.7190    1.0000 </r>
       <r>  -62.7190    1.0000 </r>
       <r>  -62.7174    1.0000 </r>
       <r>  -62.6599    1.0000 </r>
       <r>  -62.6599    1.0000 </r>
       <r>  -62.6558    1.0000 </r>
       <r>  -62.6558    1.0000 </r>
       <r>  -62.6527    1.0000 </r>
       <r>  -62.6527    1.0000 </r>
       <r>  -62.6170    1.0000 </r>
       <r>  -62.6124    1.0000 </r>
       <r>  -62.6124    1.0000 </r>
       <r>   -2.0015    1.0000 </r>
       <r>    2.1743    1.0000 </r>
       <r>    2.3530    1.0000 </r>
       <r>    2.3530    1.0000 </r>
       <r>    2.7721    1.0000 </r>
       <r>    2.7791    1.0000 </r>
       <r>    2.7791    1.0000 </r>
       <r>    4.0500    1.0000 </r>
       <r>    4.2387    1.0000 </r>
       <r>    4.2387    1.0000 </r>
       <r>    4.9313    1.0000 </r>
       <r>    5.0632    1.0000 </r>
       <r>    5.2368    1.0000 </r>
       <r>    5.2368    1.0000 </r>
       <r>    5.4848    1.0000 </r>
       <r>    5.4848    1.0000 </r>
       <r>    5.5670    1.0000 </r>
       <r>    5.6351    1.0000 </r>
       <r>    5.6351    1.0000 </r>
       <r>    5.7787    1.0000 </r>
       <r>    5.7787    1.0000 </r>
       <r>    7.1150    1.0060 </r>
       <r>    9.5653   -0.0000 </r>
       <r>    9.5653   -0.0000 </r>
       <r>   14.7382    0.0000 </r>
       <r>   14.7382    0.0000 </r>
       <r>   16.9097    0.0000 </r>
       <r>   18.8480    0.0000 </r>
      </set>
      <set comment="kpoint 4">
       <r>  -62.7137    1.0000 </r>
       <r>  -62.7137    1.0000 </r>
       <r>  -62.7085    1.0000 </r>
       <r>  -62.6655    1.0000 </r>
       <r>  -62.6655    1.0000 </r>
       <r>  -62.6556    1.0000 </r>
       <r>  -62.6556    1.0000 </r>
       <r>  -62.6491    1.0000 </r>
       <r>  -62.6491    1.0000 </r>
       <r>  -62.6260    1.0000 </r>
       <r>  -62.6156    1.0000 </r>
       <r>  -62.6156    1.0000 </r>
       <r>   -1.5793    1.0000 </r>
       <r>    2.0775    1.0000 </r>
       <r>    2.5292    1.0000 </r>
       <r>    2.5292    1.0000 </r>
       <r>    2.8839    1.0000 </r>
       <r>    2.9060    1.0000 </r>
       <r>    2.9060    1.0000 </r>
       <r>    3.9274    1.0000 </r>
       <r>    4.3421    1.0000 </r>
       <r>    4.3421    1.0000 </r>
       <r>    4.7920    1.0000 </r>
       <r>    4.7920    1.0000 </r>
       <r>    4.8249    1.0000 </r>
       <r>    5.1087    1.0000 </r>
       <r>    5.3452    1.0000 </r>
       <r>    5.3452    1.0000 </r>
       <r>    5.4747    1.0000 </r>
       <r>    5.4747    1.0000 </r>
       <r>    5.5198    1.0000 </r>
       <r>    5.7786    1.0000 </r>
       <r>    5.7786    1.0000 </r>
       <r>    5.9888    1.0000 </r>
       <r>   10.3910   -0.0000 </r>
       <r>   10.3910   -0.0000 </r>
       <r>   14.9010    0.0000 </r>
       <r>   14.9010    0.0000 </r>
       <r>   17.4911    0.0000 </r>
       <r>   17.4911    0.0000 </r>
      </set>
      <set comment="kpoint 5">
       <r>  -62.7070    1.0000 </r>
       <r>  -62.7070    1.0000 </r>
       <r>  -62.6959    1.0000 </r>
       <r>  -62.6726    1.0000 </r>
       <r>  -62.6726    1.0000 </r>
       <r>  -62.6553    1.0000 </r>
       <r>  -62.6553    1.0000 </r>
       <r>  -62.6438    1.0000 </r>
       <r>  -62.6438    1.0000 </r>
       <r>  -62.6381    1.0000 </r>
       <r>  -62.6204    1.0000 </r>
       <r>  -62.6204    1.0000 </r>
       <r>   -1.0055    1.0000 </r>
       <r>    1.7891    1.0000 </r>
       <r>    2.7292    1.0000 </r>
       <r>    2.7292    1.0000 </r>
       <r>    3.0312    1.0000 </r>
       <r>    3.0862    1.0000 </r>
       <r>    3.0862    1.0000 </r>
       <r>    3.7690    1.0000 </r>
       <r>    4.3554    1.0000 </r>
       <r>    4.3554    1.0000 </r>
       <r>    4.4824    1.0000 </r>
       <r>    4.4824    1.0000 </r>
       <r>    4.6989    1.0000 </r>
       <r>    5.1233    1.0000 </r>
       <r>    5.1680    1.0000 </r>
       <r>    5.1814    1.0000 </r>
       <r>    5.1814    1.0000 </r>
       <r>    5.2787    1.0000 </r>
       <r>    5.2787    1.0000 </r>
       <r>    5.4590    1.0000 </r>
       <r>    5.7788    1.0000 </r>
       <r>    5.7788    1.0000 </r>
       <r>   11.3565   -0.0000 </r>
       <r>   11.3565   -0.0000 </r>
       <r>   15.1455    0.0000 </r>
       <r>   15.1455    0.0000 </r>
       <r>   16.1356    0.0000 </r>
       <r>   16.1356    0.0000 </r>
      </set>
      <set comment="kpoint 6">
       <r>  -62.6986    1.0000 </r>
       <r>  -62.6986    1.0000 </r>
       <r>  -62.6822    1.0000 </r>
       <r>  -62.6807    1.0000 </r>
       <r>  -62.6807    1.0000 </r>
       <r>  -62.6554    1.0000 </r>
       <r>  -62.6554    1.0000 </r>
       <r>  -62.6516    1.0000 </r>
       <r>  -62.6382    1.0000 </r>
       <r>  -62.6382    1.0000 </r>
       <r>  -62.6260    1.0000 </r>
       <r>  -62.6260    1.0000 </r>
       <r>   -0.3049    1.0000 </r>
       <r>    1.2240    1.0000 </r>
       <r>    2.8980    1.0000 </r>
       <r>    2.8980    1.0000 </r>
       <r>    3.2051    1.0000 </r>
       <r>    3.3214    1.0000 </r>
       <r>    3.3214    1.0000 </r>
       <r>    3.5870    1.0000 </r>
       <r>    3.9582    1.0000 </r>
       <r>    3.9582    1.0000 </r>
       <r>    4.5846    1.0000 </r>
       <r>    4.6552    1.0000 </r>
       <r>    4.6552    1.0000 </r>
       <r>    4.6632    1.0000 </r>
       <r>    5.0386    1.0000 </r>
       <r>    5.0386    1.0000 </r>
       <r>    5.0654    1.0000 </r>
       <r>    5.0654    1.0000 </r>
       <r>    5.2375    1.0000 </r>
       <r>    5.3882    1.0000 </r>
       <r>    5.7790    1.0000 </r>
       <r>    5.7790    1.0000 </r>
       <r>   12.4283   -0.0000 </r>
       <r>   12.4283   -0.0000 </r>
       <r>   14.8287    0.0000 </r>
       <r>   14.8287    0.0000 </r>
       <r>   15.4728    0.0000 </r>
       <r>   15.4728    0.0000 </r>
      </set>
      <set comment="kpoint 7">
       <r>  -62.6896    1.0000 </r>
       <r>  -62.6896    1.0000 </r>
       <r>  -62.6896    1.0000 </r>
       <r>  -62.6896    1.0000 </r>
       <r>  -62.6666    1.0000 </r>
       <r>  -62.6666    1.0000 </r>
       <r>  -62.6557    1.0000 </r>
       <r>  -62.6557    1.0000 </r>
       <r>  -62.6320    1.0000 </r>
       <r>  -62.6320    1.0000 </r>
       <r>  -62.6320    1.0000 </r>
       <r>  -62.6320    1.0000 </r>
       <r>    0.4724    1.0000 </r>
       <r>    0.4724    1.0000 </r>
       <r>    2.9664    1.0000 </r>
       <r>    2.9664    1.0000 </r>
       <r>    3.3947    1.0000 </r>
       <r>    3.3947    1.0000 </r>
       <r>    3.6121    1.0000 </r>
       <r>    3.6121    1.0000 </r>
       <r>    3.6121    1.0000 </r>
       <r>    3.6121    1.0000 </r>
       <r>    4.5371    1.0000 </r>
       <r>    4.5371    1.0000 </r>
       <r>    4.8531    1.0000 </r>
       <r>    4.8531    1.0000 </r>
       <r>    4.8531    1.0000 </r>
       <r>    4.8531    1.0000 </r>
       <r>    4.9794    1.0000 </r>
       <r>    4.9794    1.0000 </r>
       <r>    5.3126    1.0000 </r>
       <r>    5.3126    1.0000 </r>
       <r>    5.7791    1.0000 </r>
       <r>    5.7791    1.0000 </r>
       <r>   13.5892    0.0000 </r>
       <r>   13.5892    0.0000 </r>
       <r>   13.5892    0.0000 </r>
       <r>   13.5892    0.0000 </r>
       <r>   15.7320    0.0000 </r>
       <r>   15.7320    0.0000 </r>
      </set>
      <set comment="kpoint 8">
       <r>  -62.7213    1.0000 </r>
       <r>  -62.7206    1.0000 </r>
       <r>  -62.7206    1.0000 </r>
       <r>  -62.6591    1.0000 </r>
       <r>  -62.6557    1.0000 </r>
       <r>  -62.6557    1.0000 </r>
       <r>  -62.6547    1.0000 </r>
       <r>  -62.6547    1.0000 </r>
       <r>  -62.6543    1.0000 </r>
       <r>  -62.6141    1.0000 </r>
       <r>  -62.6112    1.0000 </r>
       <r>  -62.6099    1.0000 </r>
       <r>   -2.1729    1.0000 </r>
       <r>    2.2355    1.0000 </r>
       <r>    2.2355    1.0000 </r>
       <r>    2.2753    1.0000 </r>
       <r>    2.7270    1.0000 </r>
       <r>    2.7270    1.0000 </r>
       <r>    2.7279    1.0000 </r>
       <r>    4.1130    1.0000 </r>
       <r>    4.1856    1.0000 </r>
       <r>    4.1948    1.0000 </r>
       <r>    4.9944    1.0000 </r>
       <r>    5.0290    1.0000 </r>
       <r>    5.4963    1.0000 </r>
       <r>    5.5273    1.0000 </r>
       <r>    5.5273    1.0000 </r>
       <r>    5.5457    1.0000 </r>
       <r>    5.6085    1.0000 </r>
       <r>    5.6085    1.0000 </r>
       <r>    5.7414    1.0000 </r>
       <r>    5.7414    1.0000 </r>
       <r>    5.7549    1.0000 </r>
       <r>    8.4422   -0.0000 </r>
       <r>    8.4422   -0.0000 </r>
       <r>    9.1769   -0.0000 </r>
       <r>   14.6757    0.0000 </r>
       <r>   15.3394    0.0000 </r>
       <r>   15.3394    0.0000 </r>
       <r>   18.9078    0.0000 </r>
      </set>
      <set comment="kpoint 9">
       <r>  -62.7181    1.0000 </r>
       <r>  -62.7177    1.0000 </r>
       <r>  -62.7164    1.0000 </r>
       <r>  -62.6632    1.0000 </r>
       <r>  -62.6591    1.0000 </r>
       <r>  -62.6546    1.0000 </r>
       <r>  -62.6539    1.0000 </r>
       <r>  -62.6537    1.0000 </r>
       <r>  -62.6524    1.0000 </r>
       <r>  -62.6204    1.0000 </r>
       <r>  -62.6131    1.0000 </r>
       <r>  -62.6114    1.0000 </r>
       <r>   -1.9165    1.0000 </r>
       <r>    2.2196    1.0000 </r>
       <r>    2.3562    1.0000 </r>
       <r>    2.3906    1.0000 </r>
       <r>    2.7953    1.0000 </r>
       <r>    2.8004    1.0000 </r>
       <r>    2.8009    1.0000 </r>
       <r>    4.0429    1.0000 </r>
       <r>    4.2426    1.0000 </r>
       <r>    4.2508    1.0000 </r>
       <r>    4.9340    1.0000 </r>
       <r>    5.0552    1.0000 </r>
       <r>    5.1648    1.0000 </r>
       <r>    5.1652    1.0000 </r>
       <r>    5.3904    1.0000 </r>
       <r>    5.4585    1.0000 </r>
       <r>    5.4932    1.0000 </r>
       <r>    5.5753    1.0000 </r>
       <r>    5.6349    1.0000 </r>
       <r>    5.7413    1.0000 </r>
       <r>    5.7419    1.0000 </r>
       <r>    7.3731    0.1771 </r>
       <r>    9.0244   -0.0000 </r>
       <r>    9.7509   -0.0000 </r>
       <r>   14.7659    0.0000 </r>
       <r>   15.4655    0.0000 </r>
       <r>   16.9635    0.0000 </r>
       <r>   17.5408    0.0000 </r>
      </set>
      <set comment="kpoint 10">
       <r>  -62.7129    1.0000 </r>
       <r>  -62.7124    1.0000 </r>
       <r>  -62.7081    1.0000 </r>
       <r>  -62.6685    1.0000 </r>
       <r>  -62.6646    1.0000 </r>
       <r>  -62.6546    1.0000 </r>
       <r>  -62.6530    1.0000 </r>
       <r>  -62.6502    1.0000 </r>
       <r>  -62.6484    1.0000 </r>
       <r>  -62.6297    1.0000 </r>
       <r>  -62.6167    1.0000 </r>
       <r>  -62.6148    1.0000 </r>
       <r>   -1.4964    1.0000 </r>
       <r>    2.1278    1.0000 </r>
       <r>    2.5373    1.0000 </r>
       <r>    2.5634    1.0000 </r>
       <r>    2.9048    1.0000 </r>
       <r>    2.9218    1.0000 </r>
       <r>    2.9254    1.0000 </r>
       <r>    3.9243    1.0000 </r>
       <r>    4.3393    1.0000 </r>
       <r>    4.3440    1.0000 </r>
       <r>    4.7233    1.0000 </r>
       <r>    4.7512    1.0000 </r>
       <r>    4.8367    1.0000 </r>
       <r>    5.1059    1.0000 </r>
       <r>    5.1512    1.0000 </r>
       <r>    5.3245    1.0000 </r>
       <r>    5.3530    1.0000 </r>
       <r>    5.4742    1.0000 </r>
       <r>    5.5131    1.0000 </r>
       <r>    5.7390    1.0000 </r>
       <r>    5.7410    1.0000 </r>
       <r>    6.3340    1.0000 </r>
       <r>    9.7890   -0.0000 </r>
       <r>   10.5493   -0.0000 </r>
       <r>   14.9114    0.0000 </r>
       <r>   15.6864    0.0000 </r>
       <r>   16.2237    0.0000 </r>
       <r>   17.5988    0.0000 </r>
      </set>
      <set comment="kpoint 11">
       <r>  -62.7062    1.0000 </r>
       <r>  -62.7055    1.0000 </r>
       <r>  -62.6966    1.0000 </r>
       <r>  -62.6752    1.0000 </r>
       <r>  -62.6715    1.0000 </r>
       <r>  -62.6536    1.0000 </r>
       <r>  -62.6528    1.0000 </r>
       <r>  -62.6449    1.0000 </r>
       <r>  -62.6433    1.0000 </r>
       <r>  -62.6413    1.0000 </r>
       <r>  -62.6213    1.0000 </r>
       <r>  -62.6189    1.0000 </r>
       <r>   -0.9256    1.0000 </r>
       <r>    1.8457    1.0000 </r>
       <r>    2.7445    1.0000 </r>
       <r>    2.7617    1.0000 </r>
       <r>    3.0491    1.0000 </r>
       <r>    3.0908    1.0000 </r>
       <r>    3.1021    1.0000 </r>
       <r>    3.7703    1.0000 </r>
       <r>    4.2954    1.0000 </r>
       <r>    4.3353    1.0000 </r>
       <r>    4.4406    1.0000 </r>
       <r>    4.4836    1.0000 </r>
       <r>    4.7420    1.0000 </r>
       <r>    4.7984    1.0000 </r>
       <r>    5.1669    1.0000 </r>
       <r>    5.1738    1.0000 </r>
       <r>    5.1894    1.0000 </r>
       <r>    5.2781    1.0000 </r>
       <r>    5.3953    1.0000 </r>
       <r>    5.6781    1.0000 </r>
       <r>    5.7385    1.0000 </r>
       <r>    5.7407    1.0000 </r>
       <r>   10.6609   -0.0000 </r>
       <r>   11.4960   -0.0000 </r>
       <r>   14.7707    0.0000 </r>
       <r>   15.3623    0.0000 </r>
       <r>   16.0115    0.0000 </r>
       <r>   16.2439    0.0000 </r>
      </set>
      <set comment="kpoint 12">
       <r>  -62.6987    1.0000 </r>
       <r>  -62.6976    1.0000 </r>
       <r>  -62.6834    1.0000 </r>
       <r>  -62.6831    1.0000 </r>
       <r>  -62.6798    1.0000 </r>
       <r>  -62.6545    1.0000 </r>
       <r>  -62.6536    1.0000 </r>
       <r>  -62.6532    1.0000 </r>
       <r>  -62.6391    1.0000 </r>
       <r>  -62.6371    1.0000 </r>
       <r>  -62.6270    1.0000 </r>
       <r>  -62.6246    1.0000 </r>
       <r>   -0.2293    1.0000 </r>
       <r>    1.2874    1.0000 </r>
       <r>    2.9220    1.0000 </r>
       <r>    2.9320    1.0000 </r>
       <r>    3.2194    1.0000 </r>
       <r>    3.3067    1.0000 </r>
       <r>    3.3318    1.0000 </r>
       <r>    3.5925    1.0000 </r>
       <r>    3.9094    1.0000 </r>
       <r>    3.9520    1.0000 </r>
       <r>    4.4692    1.0000 </r>
       <r>    4.5154    1.0000 </r>
       <r>    4.6556    1.0000 </r>
       <r>    4.7609    1.0000 </r>
       <r>    5.0309    1.0000 </r>
       <r>    5.0444    1.0000 </r>
       <r>    5.0650    1.0000 </r>
       <r>    5.1588    1.0000 </r>
       <r>    5.2543    1.0000 </r>
       <r>    5.4519    1.0000 </r>
       <r>    5.7386    1.0000 </r>
       <r>    5.7402    1.0000 </r>
       <r>   11.6098   -0.0000 </r>
       <r>   12.5546   -0.0000 </r>
       <r>   13.7025    0.0000 </r>
       <r>   14.9403    0.0000 </r>
       <r>   15.6223    0.0000 </r>
       <r>   16.3744    0.0000 </r>
      </set>
      <set comment="kpoint 13">
       <r>  -62.6907    1.0000 </r>
       <r>  -62.6907    1.0000 </r>
       <r>  -62.6887    1.0000 </r>
       <r>  -62.6887    1.0000 </r>
       <r>  -62.6690    1.0000 </r>
       <r>  -62.6690    1.0000 </r>
       <r>  -62.6537    1.0000 </r>
       <r>  -62.6537    1.0000 </r>
       <r>  -62.6331    1.0000 </r>
       <r>  -62.6331    1.0000 </r>
       <r>  -62.6308    1.0000 </r>
       <r>  -62.6308    1.0000 </r>
       <r>    0.5423    1.0000 </r>
       <r>    0.5423    1.0000 </r>
       <r>    2.9986    1.0000 </r>
       <r>    2.9986    1.0000 </r>
       <r>    3.4046    1.0000 </r>
       <r>    3.4046    1.0000 </r>
       <r>    3.5780    1.0000 </r>
       <r>    3.5780    1.0000 </r>
       <r>    3.6156    1.0000 </r>
       <r>    3.6156    1.0000 </r>
       <r>    4.4381    1.0000 </r>
       <r>    4.4381    1.0000 </r>
       <r>    4.8529    1.0000 </r>
       <r>    4.8529    1.0000 </r>
       <r>    4.9276    1.0000 </r>
       <r>    4.9276    1.0000 </r>
       <r>    4.9792    1.0000 </r>
       <r>    4.9792    1.0000 </r>
       <r>    5.3448    1.0000 </r>
       <r>    5.3448    1.0000 </r>
       <r>    5.7394    1.0000 </r>
       <r>    5.7394    1.0000 </r>
       <r>   12.6249   -0.0000 </r>
       <r>   12.6249   -0.0000 </r>
       <r>   13.7067    0.0000 </r>
       <r>   13.7067    0.0000 </r>
       <r>   16.0815    0.0000 </r>
       <r>   16.0815    0.0000 </r>
      </set>
      <set comment="kpoint 14">
       <r>  -62.7146    1.0000 </r>
       <r>  -62.7138    1.0000 </r>
       <r>  -62.7138    1.0000 </r>
       <r>  -62.6685    1.0000 </r>
       <r>  -62.6571    1.0000 </r>
       <r>  -62.6571    1.0000 </r>
       <r>  -62.6518    1.0000 </r>
       <r>  -62.6518    1.0000 </r>
       <r>  -62.6511    1.0000 </r>
       <r>  -62.6279    1.0000 </r>
       <r>  -62.6157    1.0000 </r>
       <r>  -62.6113    1.0000 </r>
       <r>   -1.6637    1.0000 </r>
       <r>    2.3494    1.0000 </r>
       <r>    2.3494    1.0000 </r>
       <r>    2.4980    1.0000 </r>
       <r>    2.8645    1.0000 </r>
       <r>    2.8651    1.0000 </r>
       <r>    2.8651    1.0000 </r>
       <r>    4.0003    1.0000 </r>
       <r>    4.2765    1.0000 </r>
       <r>    4.2857    1.0000 </r>
       <r>    4.9121    1.0000 </r>
       <r>    4.9461    1.0000 </r>
       <r>    4.9812    1.0000 </r>
       <r>    4.9812    1.0000 </r>
       <r>    5.0637    1.0000 </r>
       <r>    5.3819    1.0000 </r>
       <r>    5.4859    1.0000 </r>
       <r>    5.4859    1.0000 </r>
       <r>    5.6343    1.0000 </r>
       <r>    5.6343    1.0000 </r>
       <r>    5.6849    1.0000 </r>
       <r>    7.9391   -0.0000 </r>
       <r>    7.9391   -0.0000 </r>
       <r>   10.2579   -0.0000 </r>
       <r>   14.8311    0.0000 </r>
       <r>   16.0779    0.0000 </r>
       <r>   17.1268    0.0000 </r>
       <r>   17.1268    0.0000 </r>
      </set>
      <set comment="kpoint 15">
       <r>  -62.7100    1.0000 </r>
       <r>  -62.7090    1.0000 </r>
       <r>  -62.7073    1.0000 </r>
       <r>  -62.6738    1.0000 </r>
       <r>  -62.6624    1.0000 </r>
       <r>  -62.6533    1.0000 </r>
       <r>  -62.6508    1.0000 </r>
       <r>  -62.6492    1.0000 </r>
       <r>  -62.6473    1.0000 </r>
       <r>  -62.6377    1.0000 </r>
       <r>  -62.6192    1.0000 </r>
       <r>  -62.6130    1.0000 </r>
       <r>   -1.2499    1.0000 </r>
       <r>    2.2726    1.0000 </r>
       <r>    2.5456    1.0000 </r>
       <r>    2.6599    1.0000 </r>
       <r>    2.9677    1.0000 </r>
       <r>    2.9699    1.0000 </r>
       <r>    2.9823    1.0000 </r>
       <r>    3.9051    1.0000 </r>
       <r>    4.3365    1.0000 </r>
       <r>    4.3620    1.0000 </r>
       <r>    4.5456    1.0000 </r>
       <r>    4.6254    1.0000 </r>
       <r>    4.7175    1.0000 </r>
       <r>    4.8437    1.0000 </r>
       <r>    5.1239    1.0000 </r>
       <r>    5.2629    1.0000 </r>
       <r>    5.3527    1.0000 </r>
       <r>    5.4353    1.0000 </r>
       <r>    5.4730    1.0000 </r>
       <r>    5.6333    1.0000 </r>
       <r>    5.6519    1.0000 </r>
       <r>    6.8931    1.0085 </r>
       <r>    8.6306   -0.0000 </r>
       <r>   10.9955   -0.0000 </r>
       <r>   14.4599    0.0000 </r>
       <r>   15.2369    0.0000 </r>
       <r>   17.3996    0.0000 </r>
       <r>   17.9155    0.0000 </r>
      </set>
      <set comment="kpoint 16">
       <r>  -62.7056    1.0000 </r>
       <r>  -62.7023    1.0000 </r>
       <r>  -62.6977    1.0000 </r>
       <r>  -62.6800    1.0000 </r>
       <r>  -62.6692    1.0000 </r>
       <r>  -62.6499    1.0000 </r>
       <r>  -62.6491    1.0000 </r>
       <r>  -62.6481    1.0000 </r>
       <r>  -62.6479    1.0000 </r>
       <r>  -62.6414    1.0000 </r>
       <r>  -62.6242    1.0000 </r>
       <r>  -62.6169    1.0000 </r>
       <r>   -0.6887    1.0000 </r>
       <r>    2.0094    1.0000 </r>
       <r>    2.7741    1.0000 </r>
       <r>    2.8520    1.0000 </r>
       <r>    3.1028    1.0000 </r>
       <r>    3.1072    1.0000 </r>
       <r>    3.1480    1.0000 </r>
       <r>    3.7687    1.0000 </r>
       <r>    4.1400    1.0000 </r>
       <r>    4.2722    1.0000 </r>
       <r>    4.3738    1.0000 </r>
       <r>    4.4402    1.0000 </r>
       <r>    4.4928    1.0000 </r>
       <r>    4.7862    1.0000 </r>
       <r>    5.1223    1.0000 </r>
       <r>    5.1931    1.0000 </r>
       <r>    5.2185    1.0000 </r>
       <r>    5.2768    1.0000 </r>
       <r>    5.3277    1.0000 </r>
       <r>    5.6319    1.0000 </r>
       <r>    5.6373    1.0000 </r>
       <r>    6.1419    1.0000 </r>
       <r>    9.3985   -0.0000 </r>
       <r>   11.8961   -0.0000 </r>
       <r>   13.2868    0.0000 </r>
       <r>   15.4226    0.0000 </r>
       <r>   16.5621    0.0000 </r>
       <r>   17.6332    0.0000 </r>
      </set>
      <set comment="kpoint 17">
       <r>  -62.6998    1.0000 </r>
       <r>  -62.6943    1.0000 </r>
       <r>  -62.6869    1.0000 </r>
       <r>  -62.6868    1.0000 </r>
       <r>  -62.6772    1.0000 </r>
       <r>  -62.6612    1.0000 </r>
       <r>  -62.6490    1.0000 </r>
       <r>  -62.6481    1.0000 </r>
       <r>  -62.6421    1.0000 </r>
       <r>  -62.6349    1.0000 </r>
       <r>  -62.6298    1.0000 </r>
       <r>  -62.6220    1.0000 </r>
       <r>   -0.0059    1.0000 </r>
       <r>    1.4717    1.0000 </r>
       <r>    2.9800    1.0000 </r>
       <r>    3.0294    1.0000 </r>
       <r>    3.2615    1.0000 </r>
       <r>    3.2660    1.0000 </r>
       <r>    3.3624    1.0000 </r>
       <r>    3.6070    1.0000 </r>
       <r>    3.7828    1.0000 </r>
       <r>    3.9314    1.0000 </r>
       <r>    4.2832    1.0000 </r>
       <r>    4.3451    1.0000 </r>
       <r>    4.6601    1.0000 </r>
       <r>    4.8246    1.0000 </r>
       <r>    5.0040    1.0000 </r>
       <r>    5.0462    1.0000 </r>
       <r>    5.0646    1.0000 </r>
       <r>    5.1573    1.0000 </r>
       <r>    5.3384    1.0000 </r>
       <r>    5.6308    1.0000 </r>
       <r>    5.6317    1.0000 </r>
       <r>    5.7176    1.0000 </r>
       <r>   10.2358   -0.0000 </r>
       <r>   12.1654   -0.0000 </r>
       <r>   12.9214    0.0000 </r>
       <r>   15.2675    0.0000 </r>
       <r>   15.8012    0.0000 </r>
       <r>   16.9843    0.0000 </r>
      </set>
      <set comment="kpoint 18">
       <r>  -62.6934    1.0000 </r>
       <r>  -62.6934    1.0000 </r>
       <r>  -62.6856    1.0000 </r>
       <r>  -62.6856    1.0000 </r>
       <r>  -62.6740    1.0000 </r>
       <r>  -62.6740    1.0000 </r>
       <r>  -62.6487    1.0000 </r>
       <r>  -62.6487    1.0000 </r>
       <r>  -62.6359    1.0000 </r>
       <r>  -62.6359    1.0000 </r>
       <r>  -62.6278    1.0000 </r>
       <r>  -62.6278    1.0000 </r>
       <r>    0.7477    1.0000 </r>
       <r>    0.7477    1.0000 </r>
       <r>    3.0872    1.0000 </r>
       <r>    3.0872    1.0000 </r>
       <r>    3.4336    1.0000 </r>
       <r>    3.4336    1.0000 </r>
       <r>    3.4848    1.0000 </r>
       <r>    3.4848    1.0000 </r>
       <r>    3.6249    1.0000 </r>
       <r>    3.6249    1.0000 </r>
       <r>    4.2805    1.0000 </r>
       <r>    4.2805    1.0000 </r>
       <r>    4.8543    1.0000 </r>
       <r>    4.8543    1.0000 </r>
       <r>    4.9671    1.0000 </r>
       <r>    4.9671    1.0000 </r>
       <r>    4.9697    1.0000 </r>
       <r>    4.9697    1.0000 </r>
       <r>    5.4903    1.0000 </r>
       <r>    5.4903    1.0000 </r>
       <r>    5.6303    1.0000 </r>
       <r>    5.6303    1.0000 </r>
       <r>   11.1524   -0.0000 </r>
       <r>   11.1524   -0.0000 </r>
       <r>   14.0499    0.0000 </r>
       <r>   14.0499    0.0000 </r>
       <r>   16.3216    0.0000 </r>
       <r>   16.3216    0.0000 </r>
      </set>
      <set comment="kpoint 19">
       <r>  -62.7056    1.0000 </r>
       <r>  -62.7056    1.0000 </r>
       <r>  -62.7046    1.0000 </r>
       <r>  -62.6798    1.0000 </r>
       <r>  -62.6583    1.0000 </r>
       <r>  -62.6583    1.0000 </r>
       <r>  -62.6478    1.0000 </r>
       <r>  -62.6462    1.0000 </r>
       <r>  -62.6455    1.0000 </r>
       <r>  -62.6455    1.0000 </r>
       <r>  -62.6235    1.0000 </r>
       <r>  -62.6137    1.0000 </r>
       <r>   -0.8474    1.0000 </r>
       <r>    2.4935    1.0000 </r>
       <r>    2.4935    1.0000 </r>
       <r>    2.8027    1.0000 </r>
       <r>    3.0498    1.0000 </r>
       <r>    3.0731    1.0000 </r>
       <r>    3.0731    1.0000 </r>
       <r>    3.8493    1.0000 </r>
       <r>    4.3144    1.0000 </r>
       <r>    4.3144    1.0000 </r>
       <r>    4.3363    1.0000 </r>
       <r>    4.4191    1.0000 </r>
       <r>    4.4191    1.0000 </r>
       <r>    4.8057    1.0000 </r>
       <r>    5.1645    1.0000 </r>
       <r>    5.2045    1.0000 </r>
       <r>    5.3114    1.0000 </r>
       <r>    5.3114    1.0000 </r>
       <r>    5.4715    1.0000 </r>
       <r>    5.4715    1.0000 </r>
       <r>    5.5705    1.0000 </r>
       <r>    7.5140   -0.0337 </r>
       <r>    7.5140   -0.0337 </r>
       <r>   11.6688   -0.0000 </r>
       <r>   13.1200    0.0000 </r>
       <r>   15.3555    0.0000 </r>
       <r>   18.4241    0.0000 </r>
       <r>   18.4242    0.0000 </r>
      </set>
      <set comment="kpoint 20">
       <r>  -62.7034    1.0000 </r>
       <r>  -62.6991    1.0000 </r>
       <r>  -62.6976    1.0000 </r>
       <r>  -62.6860    1.0000 </r>
       <r>  -62.6651    1.0000 </r>
       <r>  -62.6584    1.0000 </r>
       <r>  -62.6529    1.0000 </r>
       <r>  -62.6440    1.0000 </r>
       <r>  -62.6437    1.0000 </r>
       <r>  -62.6393    1.0000 </r>
       <r>  -62.6284    1.0000 </r>
       <r>  -62.6159    1.0000 </r>
       <r>   -0.3035    1.0000 </r>
       <r>    2.2604    1.0000 </r>
       <r>    2.7564    1.0000 </r>
       <r>    2.9735    1.0000 </r>
       <r>    3.1477    1.0000 </r>
       <r>    3.1916    1.0000 </r>
       <r>    3.2206    1.0000 </r>
       <r>    3.7515    1.0000 </r>
       <r>    3.9571    1.0000 </r>
       <r>    4.1244    1.0000 </r>
       <r>    4.1624    1.0000 </r>
       <r>    4.3199    1.0000 </r>
       <r>    4.5267    1.0000 </r>
       <r>    4.7627    1.0000 </r>
       <r>    5.0460    1.0000 </r>
       <r>    5.1600    1.0000 </r>
       <r>    5.2127    1.0000 </r>
       <r>    5.2760    1.0000 </r>
       <r>    5.3405    1.0000 </r>
       <r>    5.4702    1.0000 </r>
       <r>    5.5181    1.0000 </r>
       <r>    6.6528    1.0000 </r>
       <r>    8.1905   -0.0000 </r>
       <r>   11.8590   -0.0000 </r>
       <r>   12.5154   -0.0000 </r>
       <r>   15.6538    0.0000 </r>
       <r>   17.0727    0.0000 </r>
       <r>   18.2364    0.0000 </r>
      </set>
      <set comment="kpoint 21">
       <r>  -62.7001    1.0000 </r>
       <r>  -62.6916    1.0000 </r>
       <r>  -62.6907    1.0000 </r>
       <r>  -62.6897    1.0000 </r>
       <r>  -62.6729    1.0000 </r>
       <r>  -62.6694    1.0000 </r>
       <r>  -62.6470    1.0000 </r>
       <r>  -62.6430    1.0000 </r>
       <r>  -62.6424    1.0000 </r>
       <r>  -62.6343    1.0000 </r>
       <r>  -62.6324    1.0000 </r>
       <r>  -62.6202    1.0000 </r>
       <r>    0.3542    1.0000 </r>
       <r>    1.7581    1.0000 </r>
       <r>    3.0076    1.0000 </r>
       <r>    3.1646    1.0000 </r>
       <r>    3.2154    1.0000 </r>
       <r>    3.3297    1.0000 </r>
       <r>    3.4093    1.0000 </r>
       <r>    3.6226    1.0000 </r>
       <r>    3.6487    1.0000 </r>
       <r>    3.8923    1.0000 </r>
       <r>    4.0740    1.0000 </r>
       <r>    4.2498    1.0000 </r>
       <r>    4.6781    1.0000 </r>
       <r>    4.7899    1.0000 </r>
       <r>    4.9486    1.0000 </r>
       <r>    5.0156    1.0000 </r>
       <r>    5.0630    1.0000 </r>
       <r>    5.0668    1.0000 </r>
       <r>    5.4709    1.0000 </r>
       <r>    5.4896    1.0000 </r>
       <r>    5.5172    1.0000 </r>
       <r>    6.0915    1.0000 </r>
       <r>    8.9380   -0.0000 </r>
       <r>   10.7476   -0.0000 </r>
       <r>   13.4986    0.0000 </r>
       <r>   15.7910    0.0000 </r>
       <r>   16.0819    0.0000 </r>
       <r>   17.3704    0.0000 </r>
      </set>
      <set comment="kpoint 22">
       <r>  -62.6963    1.0000 </r>
       <r>  -62.6963    1.0000 </r>
       <r>  -62.6813    1.0000 </r>
       <r>  -62.6813    1.0000 </r>
       <r>  -62.6806    1.0000 </r>
       <r>  -62.6806    1.0000 </r>
       <r>  -62.6423    1.0000 </r>
       <r>  -62.6423    1.0000 </r>
       <r>  -62.6406    1.0000 </r>
       <r>  -62.6406    1.0000 </r>
       <r>  -62.6259    1.0000 </r>
       <r>  -62.6259    1.0000 </r>
       <r>    1.0737    1.0000 </r>
       <r>    1.0737    1.0000 </r>
       <r>    3.1766    1.0000 </r>
       <r>    3.1766    1.0000 </r>
       <r>    3.3873    1.0000 </r>
       <r>    3.3873    1.0000 </r>
       <r>    3.4774    1.0000 </r>
       <r>    3.4774    1.0000 </r>
       <r>    3.6359    1.0000 </r>
       <r>    3.6359    1.0000 </r>
       <r>    4.1437    1.0000 </r>
       <r>    4.1437    1.0000 </r>
       <r>    4.8625    1.0000 </r>
       <r>    4.8625    1.0000 </r>
       <r>    4.9034    1.0000 </r>
       <r>    4.9034    1.0000 </r>
       <r>    4.9312    1.0000 </r>
       <r>    4.9312    1.0000 </r>
       <r>    5.4761    1.0000 </r>
       <r>    5.4761    1.0000 </r>
       <r>    5.7482    1.0000 </r>
       <r>    5.7482    1.0000 </r>
       <r>    9.7812   -0.0000 </r>
       <r>    9.7812   -0.0000 </r>
       <r>   14.5954    0.0000 </r>
       <r>   14.5954    0.0000 </r>
       <r>   16.6506    0.0000 </r>
       <r>   16.6506    0.0000 </r>
      </set>
      <set comment="kpoint 23">
       <r>  -62.6998    1.0000 </r>
       <r>  -62.6998    1.0000 </r>
       <r>  -62.6913    1.0000 </r>
       <r>  -62.6911    1.0000 </r>
       <r>  -62.6683    1.0000 </r>
       <r>  -62.6597    1.0000 </r>
       <r>  -62.6597    1.0000 </r>
       <r>  -62.6400    1.0000 </r>
       <r>  -62.6375    1.0000 </r>
       <r>  -62.6375    1.0000 </r>
       <r>  -62.6339    1.0000 </r>
       <r>  -62.6167    1.0000 </r>
       <r>    0.2129    1.0000 </r>
       <r>    2.5611    1.0000 </r>
       <r>    2.5611    1.0000 </r>
       <r>    3.0711    1.0000 </r>
       <r>    3.2380    1.0000 </r>
       <r>    3.3140    1.0000 </r>
       <r>    3.3140    1.0000 </r>
       <r>    3.7055    1.0000 </r>
       <r>    3.8580    1.0000 </r>
       <r>    3.8580    1.0000 </r>
       <r>    4.0100    1.0000 </r>
       <r>    4.2672    1.0000 </r>
       <r>    4.6017    1.0000 </r>
       <r>    4.7107    1.0000 </r>
       <r>    4.9481    1.0000 </r>
       <r>    5.0710    1.0000 </r>
       <r>    5.0710    1.0000 </r>
       <r>    5.2777    1.0000 </r>
       <r>    5.2777    1.0000 </r>
       <r>    5.4170    1.0000 </r>
       <r>    5.5261    1.0000 </r>
       <r>    7.2169    0.7847 </r>
       <r>    7.2169    0.7847 </r>
       <r>   10.5968   -0.0000 </r>
       <r>   13.3117    0.0000 </r>
       <r>   16.0043    0.0000 </r>
       <r>   17.7532    0.0000 </r>
       <r>   17.7532    0.0000 </r>
      </set>
      <set comment="kpoint 24">
       <r>  -62.6994    1.0000 </r>
       <r>  -62.6952    1.0000 </r>
       <r>  -62.6944    1.0000 </r>
       <r>  -62.6833    1.0000 </r>
       <r>  -62.6779    1.0000 </r>
       <r>  -62.6673    1.0000 </r>
       <r>  -62.6533    1.0000 </r>
       <r>  -62.6400    1.0000 </r>
       <r>  -62.6371    1.0000 </r>
       <r>  -62.6363    1.0000 </r>
       <r>  -62.6307    1.0000 </r>
       <r>  -62.6197    1.0000 </r>
       <r>    0.8294    1.0000 </r>
       <r>    2.1105    1.0000 </r>
       <r>    2.8510    1.0000 </r>
       <r>    3.1087    1.0000 </r>
       <r>    3.3602    1.0000 </r>
       <r>    3.4203    1.0000 </r>
       <r>    3.4667    1.0000 </r>
       <r>    3.6285    1.0000 </r>
       <r>    3.6450    1.0000 </r>
       <r>    3.8299    1.0000 </r>
       <r>    3.9066    1.0000 </r>
       <r>    4.1761    1.0000 </r>
       <r>    4.7101    1.0000 </r>
       <r>    4.7237    1.0000 </r>
       <r>    4.8641    1.0000 </r>
       <r>    4.9341    1.0000 </r>
       <r>    4.9349    1.0000 </r>
       <r>    5.0766    1.0000 </r>
       <r>    5.2862    1.0000 </r>
       <r>    5.3479    1.0000 </r>
       <r>    5.7630    1.0000 </r>
       <r>    6.5278    1.0000 </r>
       <r>    7.8584   -0.0002 </r>
       <r>    9.5169   -0.0000 </r>
       <r>   14.2526    0.0000 </r>
       <r>   16.4846    0.0000 </r>
       <r>   16.4867    0.0000 </r>
       <r>   17.8863    0.0000 </r>
      </set>
      <set comment="kpoint 25">
       <r>  -62.6979    1.0000 </r>
       <r>  -62.6979    1.0000 </r>
       <r>  -62.6869    1.0000 </r>
       <r>  -62.6869    1.0000 </r>
       <r>  -62.6754    1.0000 </r>
       <r>  -62.6754    1.0000 </r>
       <r>  -62.6465    1.0000 </r>
       <r>  -62.6465    1.0000 </r>
       <r>  -62.6361    1.0000 </r>
       <r>  -62.6361    1.0000 </r>
       <r>  -62.6244    1.0000 </r>
       <r>  -62.6244    1.0000 </r>
       <r>    1.4918    1.0000 </r>
       <r>    1.4918    1.0000 </r>
       <r>    3.0496    1.0000 </r>
       <r>    3.0496    1.0000 </r>
       <r>    3.4852    1.0000 </r>
       <r>    3.4852    1.0000 </r>
       <r>    3.5291    1.0000 </r>
       <r>    3.5291    1.0000 </r>
       <r>    3.6427    1.0000 </r>
       <r>    3.6427    1.0000 </r>
       <r>    4.0391    1.0000 </r>
       <r>    4.0391    1.0000 </r>
       <r>    4.7956    1.0000 </r>
       <r>    4.7956    1.0000 </r>
       <r>    4.8518    1.0000 </r>
       <r>    4.8518    1.0000 </r>
       <r>    4.8864    1.0000 </r>
       <r>    4.8864    1.0000 </r>
       <r>    5.3070    1.0000 </r>
       <r>    5.3070    1.0000 </r>
       <r>    6.0746    1.0000 </r>
       <r>    6.0746    1.0000 </r>
       <r>    8.6127   -0.0000 </r>
       <r>    8.6127   -0.0000 </r>
       <r>   15.3160    0.0000 </r>
       <r>   15.3160    0.0000 </r>
       <r>   17.1086    0.0000 </r>
       <r>   17.1086    0.0000 </r>
      </set>
      <set comment="kpoint 26">
       <r>  -62.6972    1.0000 </r>
       <r>  -62.6969    1.0000 </r>
       <r>  -62.6969    1.0000 </r>
       <r>  -62.6858    1.0000 </r>
       <r>  -62.6760    1.0000 </r>
       <r>  -62.6605    1.0000 </r>
       <r>  -62.6605    1.0000 </r>
       <r>  -62.6463    1.0000 </r>
       <r>  -62.6331    1.0000 </r>
       <r>  -62.6300    1.0000 </r>
       <r>  -62.6300    1.0000 </r>
       <r>  -62.6211    1.0000 </r>
       <r>    1.3825    1.0000 </r>
       <r>    2.4717    1.0000 </r>
       <r>    2.4717    1.0000 </r>
       <r>    2.9802    1.0000 </r>
       <r>    3.5266    1.0000 </r>
       <r>    3.5266    1.0000 </r>
       <r>    3.5309    1.0000 </r>
       <r>    3.6148    1.0000 </r>
       <r>    3.7433    1.0000 </r>
       <r>    3.7797    1.0000 </r>
       <r>    3.7797    1.0000 </r>
       <r>    4.0885    1.0000 </r>
       <r>    4.6605    1.0000 </r>
       <r>    4.7777    1.0000 </r>
       <r>    4.8089    1.0000 </r>
       <r>    4.8125    1.0000 </r>
       <r>    4.8125    1.0000 </r>
       <r>    5.1013    1.0000 </r>
       <r>    5.1013    1.0000 </r>
       <r>    5.2313    1.0000 </r>
       <r>    6.0703    1.0000 </r>
       <r>    7.0445    1.0355 </r>
       <r>    7.0445    1.0355 </r>
       <r>    8.4970   -0.0000 </r>
       <r>   15.1555    0.0000 </r>
       <r>   17.0225    0.0000 </r>
       <r>   17.3324    0.0000 </r>
       <r>   17.3324    0.0000 </r>
      </set>
      <set comment="kpoint 27">
       <r>  -62.6978    1.0000 </r>
       <r>  -62.6978    1.0000 </r>
       <r>  -62.6923    1.0000 </r>
       <r>  -62.6923    1.0000 </r>
       <r>  -62.6682    1.0000 </r>
       <r>  -62.6682    1.0000 </r>
       <r>  -62.6536    1.0000 </r>
       <r>  -62.6536    1.0000 </r>
       <r>  -62.6306    1.0000 </r>
       <r>  -62.6306    1.0000 </r>
       <r>  -62.6246    1.0000 </r>
       <r>  -62.6246    1.0000 </r>
       <r>    1.9553    1.0000 </r>
       <r>    1.9553    1.0000 </r>
       <r>    2.7740    1.0000 </r>
       <r>    2.7740    1.0000 </r>
       <r>    3.5791    1.0000 </r>
       <r>    3.5791    1.0000 </r>
       <r>    3.6385    1.0000 </r>
       <r>    3.6385    1.0000 </r>
       <r>    3.6682    1.0000 </r>
       <r>    3.6682    1.0000 </r>
       <r>    3.9496    1.0000 </r>
       <r>    3.9496    1.0000 </r>
       <r>    4.7002    1.0000 </r>
       <r>    4.7002    1.0000 </r>
       <r>    4.7487    1.0000 </r>
       <r>    4.7487    1.0000 </r>
       <r>    4.9369    1.0000 </r>
       <r>    4.9369    1.0000 </r>
       <r>    5.1499    1.0000 </r>
       <r>    5.1499    1.0000 </r>
       <r>    6.4735    1.0000 </r>
       <r>    6.4735    1.0000 </r>
       <r>    7.6842   -0.0087 </r>
       <r>    7.6842   -0.0087 </r>
       <r>   16.1868    0.0000 </r>
       <r>   16.1868    0.0000 </r>
       <r>   17.7070    0.0000 </r>
       <r>   17.7070    0.0000 </r>
      </set>
      <set comment="kpoint 28">
       <r>  -62.6960    1.0000 </r>
       <r>  -62.6960    1.0000 </r>
       <r>  -62.6960    1.0000 </r>
       <r>  -62.6960    1.0000 </r>
       <r>  -62.6608    1.0000 </r>
       <r>  -62.6608    1.0000 </r>
       <r>  -62.6608    1.0000 </r>
       <r>  -62.6608    1.0000 </r>
       <r>  -62.6267    1.0000 </r>
       <r>  -62.6267    1.0000 </r>
       <r>  -62.6267    1.0000 </r>
       <r>  -62.6267    1.0000 </r>
       <r>    2.4014    1.0000 </r>
       <r>    2.4014    1.0000 </r>
       <r>    2.4014    1.0000 </r>
       <r>    2.4014    1.0000 </r>
       <r>    3.6175    1.0000 </r>
       <r>    3.6175    1.0000 </r>
       <r>    3.6175    1.0000 </r>
       <r>    3.6175    1.0000 </r>
       <r>    3.8334    1.0000 </r>
       <r>    3.8334    1.0000 </r>
       <r>    3.8334    1.0000 </r>
       <r>    3.8334    1.0000 </r>
       <r>    4.6792    1.0000 </r>
       <r>    4.6792    1.0000 </r>
       <r>    4.6792    1.0000 </r>
       <r>    4.6792    1.0000 </r>
       <r>    5.0239    1.0000 </r>
       <r>    5.0239    1.0000 </r>
       <r>    5.0239    1.0000 </r>
       <r>    5.0239    1.0000 </r>
       <r>    6.9885    1.0275 </r>
       <r>    6.9885    1.0275 </r>
       <r>    6.9885    1.0275 </r>
       <r>    6.9885    1.0275 </r>
       <r>   17.1893    0.0000 </r>
       <r>   17.1893    0.0000 </r>
       <r>   17.1893    0.0000 </r>
       <r>   17.1893    0.0000 </r>
      </set>
      <set comment="kpoint 29">
       <r>  -62.7196    1.0000 </r>
       <r>  -62.7196    1.0000 </r>
       <r>  -62.7196    1.0000 </r>
       <r>  -62.6580    1.0000 </r>
       <r>  -62.6580    1.0000 </r>
       <r>  -62.6580    1.0000 </r>
       <r>  -62.6536    1.0000 </r>
       <r>  -62.6536    1.0000 </r>
       <r>  -62.6536    1.0000 </r>
       <r>  -62.6171    1.0000 </r>
       <r>  -62.6106    1.0000 </r>
       <r>  -62.6106    1.0000 </r>
       <r>   -2.0872    1.0000 </r>
       <r>    2.2766    1.0000 </r>
       <r>    2.2766    1.0000 </r>
       <r>    2.2766    1.0000 </r>
       <r>    2.7507    1.0000 </r>
       <r>    2.7507    1.0000 </r>
       <r>    2.7507    1.0000 </r>
       <r>    4.0991    1.0000 </r>
       <r>    4.2034    1.0000 </r>
       <r>    4.2034    1.0000 </r>
       <r>    5.0067    1.0000 </r>
       <r>    5.0067    1.0000 </r>
       <r>    5.4440    1.0000 </r>
       <r>    5.4440    1.0000 </r>
       <r>    5.4440    1.0000 </r>
       <r>    5.5191    1.0000 </r>
       <r>    5.5191    1.0000 </r>
       <r>    5.5191    1.0000 </r>
       <r>    5.7370    1.0000 </r>
       <r>    5.7370    1.0000 </r>
       <r>    5.7370    1.0000 </r>
       <r>    8.6549   -0.0000 </r>
       <r>    8.6549   -0.0000 </r>
       <r>    8.6549   -0.0000 </r>
       <r>   15.3803    0.0000 </r>
       <r>   15.3803    0.0000 </r>
       <r>   15.3803    0.0000 </r>
       <r>   19.0205    0.0000 </r>
      </set>
      <set comment="kpoint 30">
       <r>  -62.7170    1.0000 </r>
       <r>  -62.7170    1.0000 </r>
       <r>  -62.7152    1.0000 </r>
       <r>  -62.6621    1.0000 </r>
       <r>  -62.6621    1.0000 </r>
       <r>  -62.6553    1.0000 </r>
       <r>  -62.6529    1.0000 </r>
       <r>  -62.6529    1.0000 </r>
       <r>  -62.6515    1.0000 </r>
       <r>  -62.6238    1.0000 </r>
       <r>  -62.6128    1.0000 </r>
       <r>  -62.6117    1.0000 </r>
       <r>   -1.8321    1.0000 </r>
       <r>    2.2633    1.0000 </r>
       <r>    2.3941    1.0000 </r>
       <r>    2.3941    1.0000 </r>
       <r>    2.8178    1.0000 </r>
       <r>    2.8219    1.0000 </r>
       <r>    2.8219    1.0000 </r>
       <r>    4.0353    1.0000 </r>
       <r>    4.2517    1.0000 </r>
       <r>    4.2563    1.0000 </r>
       <r>    4.9432    1.0000 </r>
       <r>    5.0429    1.0000 </r>
       <r>    5.1007    1.0000 </r>
       <r>    5.1007    1.0000 </r>
       <r>    5.2842    1.0000 </r>
       <r>    5.4388    1.0000 </r>
       <r>    5.4395    1.0000 </r>
       <r>    5.4395    1.0000 </r>
       <r>    5.6888    1.0000 </r>
       <r>    5.7254    1.0000 </r>
       <r>    5.7254    1.0000 </r>
       <r>    7.5855   -0.0285 </r>
       <r>    9.1970   -0.0000 </r>
       <r>    9.1970   -0.0000 </r>
       <r>   15.5045    0.0000 </r>
       <r>   15.5045    0.0000 </r>
       <r>   17.0166    0.0000 </r>
       <r>   17.6491    0.0000 </r>
      </set>
      <set comment="kpoint 31">
       <r>  -62.7123    1.0000 </r>
       <r>  -62.7123    1.0000 </r>
       <r>  -62.7079    1.0000 </r>
       <r>  -62.6674    1.0000 </r>
       <r>  -62.6674    1.0000 </r>
       <r>  -62.6524    1.0000 </r>
       <r>  -62.6524    1.0000 </r>
       <r>  -62.6510    1.0000 </r>
       <r>  -62.6479    1.0000 </r>
       <r>  -62.6332    1.0000 </r>
       <r>  -62.6161    1.0000 </r>
       <r>  -62.6146    1.0000 </r>
       <r>   -1.4141    1.0000 </r>
       <r>    2.1756    1.0000 </r>
       <r>    2.5708    1.0000 </r>
       <r>    2.5708    1.0000 </r>
       <r>    2.9255    1.0000 </r>
       <r>    2.9409    1.0000 </r>
       <r>    2.9409    1.0000 </r>
       <r>    3.9220    1.0000 </r>
       <r>    4.3374    1.0000 </r>
       <r>    4.3432    1.0000 </r>
       <r>    4.6874    1.0000 </r>
       <r>    4.6874    1.0000 </r>
       <r>    4.8540    1.0000 </r>
       <r>    5.0115    1.0000 </r>
       <r>    5.1004    1.0000 </r>
       <r>    5.3094    1.0000 </r>
       <r>    5.3162    1.0000 </r>
       <r>    5.3162    1.0000 </r>
       <r>    5.6209    1.0000 </r>
       <r>    5.7160    1.0000 </r>
       <r>    5.7160    1.0000 </r>
       <r>    6.5471    1.0000 </r>
       <r>    9.9302   -0.0000 </r>
       <r>    9.9302   -0.0000 </r>
       <r>   15.6892    0.0000 </r>
       <r>   15.6892    0.0000 </r>
       <r>   16.3506    0.0000 </r>
       <r>   16.3506    0.0000 </r>
      </set>
      <set comment="kpoint 32">
       <r>  -62.7057    1.0000 </r>
       <r>  -62.7057    1.0000 </r>
       <r>  -62.6974    1.0000 </r>
       <r>  -62.6736    1.0000 </r>
       <r>  -62.6736    1.0000 </r>
[...]
        <r>  0.0012  0.0471  0.0081  0.0144  0.0036  0.0034  0.0165  0.0010  0.0000 </r>
       </set>
       <set comment="band 34">
        <r>  0.0008  0.0060  0.0055  0.0109  0.1146  0.0004  0.0112  0.0008  0.0000 </r>
        <r>  0.0008  0.0058  0.0057  0.0489  0.0255  0.0004  0.0115  0.0035  0.0000 </r>
        <r>  0.0015  0.0489  0.0103  0.0058  0.0140  0.0035  0.0209  0.0004  0.0000 </r>
        <r>  0.0066  0.0109  0.0463  0.0060  0.0137  0.0008  0.0941  0.0004  0.0000 </r>
       </set>
       <set comment="band 35">
        <r>  0.0014  0.0423  0.0096  0.0111  0.0190  0.0031  0.0195  0.0008  0.0000 </r>
        <r>  0.0057  0.0101  0.0400  0.0081  0.0259  0.0007  0.0814  0.0006  0.0000 </r>
        <r>  0.0015  0.0081  0.0105  0.0101  0.0991  0.0006  0.0213  0.0007  0.0000 </r>
        <r>  0.0011  0.0111  0.0077  0.0423  0.0237  0.0008  0.0156  0.0031  0.0000 </r>
       </set>
       <set comment="band 36">
        <r>  0.0073  0.0089  0.0512  0.0026  0.0141  0.0006  0.1041  0.0002  0.0000 </r>
        <r>  0.0012  0.0541  0.0084  0.0060  0.0060  0.0039  0.0171  0.0004  0.0000 </r>
        <r>  0.0003  0.0060  0.0024  0.0541  0.0209  0.0004  0.0049  0.0039  0.0000 </r>
        <r>  0.0008  0.0026  0.0057  0.0089  0.1268  0.0002  0.0116  0.0006  0.0000 </r>
       </set>
       <set comment="band 37">
        <r>  0.0671  0.0000  0.0026  0.0003  0.0794  0.0008  0.0001  0.0101  0.0000 </r>
        <r>  0.0020  0.0008  0.0001  0.0025  0.0094  0.0265  0.0000  0.0856  0.0000 </r>
        <r>  0.0256  0.0025  0.0010  0.0008  0.0007  0.0856  0.0000  0.0265  0.0000 </r>
        <r>  0.2172  0.0003  0.0084  0.0000  0.0246  0.0101  0.0002  0.0008  0.0000 </r>
       </set>
       <set comment="band 38">
        <r>  0.0441  0.0002  0.0017  0.0027  0.0079  0.0070  0.0000  0.0900  0.0000 </r>
        <r>  0.0178  0.0005  0.0007  0.0003  0.0836  0.0174  0.0000  0.0085  0.0000 </r>
        <r>  0.2285  0.0003  0.0089  0.0005  0.0065  0.0085  0.0002  0.0174  0.0000 </r>
        <r>  0.0216  0.0027  0.0008  0.0002  0.0161  0.0900  0.0000  0.0070  0.0000 </r>
       </set>
       <set comment="band 39">
        <r>  0.1430  0.0010  0.0056  0.0002  0.0239  0.0347  0.0001  0.0061  0.0000 </r>
        <r>  0.0881  0.0017  0.0034  0.0008  0.0057  0.0564  0.0001  0.0257  0.0000 </r>
        <r>  0.0155  0.0008  0.0006  0.0017  0.0322  0.0257  0.0000  0.0564  0.0000 </r>
        <r>  0.0653  0.0002  0.0025  0.0010  0.0523  0.0061  0.0001  0.0347  0.0000 </r>
       </set>
       <set comment="band 40">
        <r>  0.0577  0.0024  0.0022  0.0005  0.0029  0.0804  0.0000  0.0167  0.0000 </r>
        <r>  0.2040  0.0007  0.0079  0.0001  0.0155  0.0227  0.0002  0.0031  0.0000 </r>
        <r>  0.0424  0.0001  0.0016  0.0007  0.0746  0.0031  0.0000  0.0227  0.0000 </r>
        <r>  0.0079  0.0005  0.0003  0.0024  0.0211  0.0167  0.0000  0.0804  0.0000 </r>
       </set>
      </set>
      <set comment="kpoint 84">
       <set comment="band 1">
        <r>  0.0000  0.0572  0.0693  0.0025  0.0000  0.0000  0.0000  0.0000  0.0000 </r>
        <r>  0.0000  0.0693  0.0572  0.2026  0.0000  0.0000  0.0000  0.0000  0.0000 </r>
        <r>  0.0000  0.2026  0.0025  0.0693  0.0000  0.0000  0.0000  0.0000  0.0000 </r>
        <r>  0.0000  0.0025  0.2026  0.0572  0.0000  0.0000  0.0000  0.0000  0.0000 </r>
       </set>
       <set comment="band 2">
        <r>  0.0000  0.1428  0.0666  0.1021  0.0000  0.0000  0.0000  0.0000  0.0000 </r>
        <r>  0.0000  0.0666  0.1428  0.0201  0.0000  0.0000  0.0000  0.0000  0.0000 </r>
        <r>  0.0000  0.0201  0.1021  0.0666  0.0000  0.0000  0.0000  0.0000  0.0000 </r>
        <r>  0.0000  0.1021  0.0201  0.1428  0.0000  0.0000  0.0000  0.0000  0.0000 </r>
       </set>
       <set comment="band 3">
        <r>  0.0000  0.0293  0.1920  0.0153  0.0000  0.0000  0.0000  0.0000  0.0000 </r>
        <r>  0.0000  0.1920  0.0293  0.0950  0.0000  0.0000  0.0000  0.0000  0.0000 </r>
        <r>  0.0000  0.0950  0.0153  0.1920  0.0000  0.0000  0.0000  0.0000  0.0000 </r>
        <r>  0.0000  0.0153  0.0950  0.0293  0.0000  0.0000  0.0000  0.0000  0.0000 </r>
       </set>
       <set comment="band 4">
        <r>  0.0000  0.1023  0.0037  0.2118  0.0000  0.0000  0.0000  0.0000  0.0000 </r>
        <r>  0.0000  0.0037  0.1023  0.0138  0.0000  0.0000  0.0000  0.0000  0.0000 </r>
        <r>  0.0000  0.0138  0.2118  0.0037  0.0000  0.0000  0.0000  0.0000  0.0000 </r>
        <r>  0.0000  0.2118  0.0138  0.1023  0.0000  0.0000  0.0000  0.0000  0.0000 </r>
       </set>
       <set comment="band 5">
        <r>  0.0000  0.1324  0.0010  0.0026  0.0000  0.0000  0.0000  0.0000  0.0000 </r>
        <r>  0.0000  0.0255  0.0032  0.2910  0.0000  0.0000  0.0000  0.0000  0.0000 </r>
        <r>  0.0000  0.4096  0.0007  0.0210  0.0000  0.0000  0.0000  0.0000  0.0000 </r>
        <r>  0.0000  0.0052  0.0104  0.0950  0.0000  0.0000  0.0000  0.0000  0.0000 </r>
       </set>
       <set comment="band 6">
        <r>  0.0000  0.0642  0.0067  0.1002  0.0000  0.0000  0.0000  0.0000  0.0000 </r>
        <r>  0.0000  0.3606  0.0062  0.0009  0.0000  0.0000  0.0000  0.0000  0.0000 </r>
        <r>  0.0000  0.0007  0.0050  0.2690  0.0000  0.0000  0.0000  0.0000  0.0000 </r>
        <r>  0.0000  0.1486  0.0003  0.0350  0.0000  0.0000  0.0000  0.0000  0.0000 </r>
       </set>
       <set comment="band 7">
        <r>  0.0000  0.1602  0.0023  0.2088  0.0000  0.0000  0.0000  0.0000  0.0000 </r>
        <r>  0.0000  0.0962  0.0041  0.0284  0.0000  0.0000  0.0000  0.0000  0.0000 </r>
        <r>  0.0000  0.0467  0.0016  0.0707  0.0000  0.0000  0.0000  0.0000  0.0000 </r>
        <r>  0.0000  0.2475  0.0023  0.1288  0.0000  0.0000  0.0000  0.0000  0.0000 </r>
       </set>
       <set comment="band 8">
        <r>  0.0000  0.2140  0.0013  0.1005  0.0000  0.0000  0.0000  0.0000  0.0000 </r>
        <r>  0.0000  0.0779  0.0055  0.0905  0.0000  0.0000  0.0000  0.0000  0.0000 </r>
        <r>  0.0000  0.1140  0.0082  0.0645  0.0000  0.0000  0.0000  0.0000  0.0000 </r>
        <r>  0.0000  0.1662  0.0015  0.1535  0.0000  0.0000  0.0000  0.0000  0.0000 </r>
       </set>
       <set comment="band 9">
        <r>  0.0000  0.0144  0.3588  0.0128  0.0000  0.0000  0.0000  0.0000  0.0000 </r>
        <r>  0.0000  0.0586  0.0743  0.0726  0.0000  0.0000  0.0000  0.0000  0.0000 </r>
        <r>  0.0000  0.0273  0.0345  0.1283  0.0000  0.0000  0.0000  0.0000  0.0000 </r>
        <r>  0.0000  0.0063  0.1865  0.0233  0.0000  0.0000  0.0000  0.0000  0.0000 </r>
       </set>
       <set comment="band 10">
        <r>  0.0000  0.0150  0.0915  0.0068  0.0000  0.0000  0.0000  0.0000  0.0000 </r>
        <r>  0.0000  0.0215  0.0923  0.1709  0.0000  0.0000  0.0000  0.0000  0.0000 </r>
        <r>  0.0000  0.0639  0.0272  0.0243  0.0000  0.0000  0.0000  0.0000  0.0000 </r>
        <r>  0.0000  0.0068  0.4438  0.0335  0.0000  0.0000  0.0000  0.0000  0.0000 </r>
       </set>
       <set comment="band 11">
        <r>  0.0000  0.0183  0.1520  0.1579  0.0000  0.0000  0.0000  0.0000  0.0000 </r>
        <r>  0.0000  0.0200  0.0778  0.0082  0.0000  0.0000  0.0000  0.0000  0.0000 </r>
        <r>  0.0000  0.0016  0.4072  0.0619  0.0000  0.0000  0.0000  0.0000  0.0000 </r>
        <r>  0.0000  0.0585  0.0128  0.0214  0.0000  0.0000  0.0000  0.0000  0.0000 </r>
       </set>
       <set comment="band 12">
        <r>  0.0000  0.0466  0.0514  0.0754  0.0000  0.0000  0.0000  0.0000  0.0000 </r>
        <r>  0.0000  0.0048  0.4017  0.0026  0.0000  0.0000  0.0000  0.0000  0.0000 </r>
        <r>  0.0000  0.0013  0.1806  0.0252  0.0000  0.0000  0.0000  0.0000  0.0000 </r>
        <r>  0.0000  0.0260  0.0074  0.1746  0.0000  0.0000  0.0000  0.0000  0.0000 </r>
       </set>
       <set comment="band 13">
        <r>  0.0017  0.0000  0.0000  0.0000  0.0051  0.1587  0.0000  0.0447  0.0000 </r>
        <r>  0.0741  0.0000  0.0000  0.0000  0.0447  0.0036  0.0000  0.0051  0.0000 </r>
        <r>  0.0209  0.0000  0.0000  0.0000  0.1587  0.0051  0.0000  0.0036  0.0000 </r>
        <r>  0.0024  0.0000  0.0000  0.0000  0.0036  0.0447  0.0000  0.1587  0.0000 </r>
       </set>
       <set comment="band 14">
        <r>  0.0180  0.0000  0.0000  0.0000  0.0128  0.0430  0.0000  0.1178  0.0000 </r>
        <r>  0.0201  0.0000  0.0000  0.0000  0.1178  0.0386  0.0000  0.0128  0.0000 </r>
        <r>  0.0550  0.0000  0.0000  0.0000  0.0430  0.0128  0.0000  0.0386  0.0000 </r>
        <r>  0.0060  0.0000  0.0000  0.0000  0.0386  0.1178  0.0000  0.0430  0.0000 </r>
       </set>
       <set comment="band 15">
        <r>  0.0577  0.0000  0.0000  0.0000  0.0370  0.0056  0.0000  0.0460  0.0000 </r>
        <r>  0.0026  0.0000  0.0000  0.0000  0.0460  0.1236  0.0000  0.0370  0.0000 </r>
        <r>  0.0215  0.0000  0.0000  0.0000  0.0056  0.0370  0.0000  0.1236  0.0000 </r>
        <r>  0.0173  0.0000  0.0000  0.0000  0.1236  0.0460  0.0000  0.0056  0.0000 </r>
       </set>
       <set comment="band 16">
        <r>  0.0217  0.0000  0.0000  0.0000  0.1573  0.0048  0.0000  0.0036  0.0000 </r>
        <r>  0.0023  0.0000  0.0000  0.0000  0.0036  0.0464  0.0000  0.1573  0.0000 </r>
        <r>  0.0017  0.0000  0.0000  0.0000  0.0048  0.1573  0.0000  0.0464  0.0000 </r>
        <r>  0.0735  0.0000  0.0000  0.0000  0.0464  0.0036  0.0000  0.0048  0.0000 </r>
       </set>
       <set comment="band 17">
        <r>  0.0000  0.0000  0.0000  0.0000  0.1454  0.0206  0.0070  0.0041  0.0000 </r>
        <r>  0.0000  0.0000  0.0000  0.0000  0.0170  0.0007  0.1871  0.0374  0.0000 </r>
        <r>  0.0000  0.0000  0.0000  0.0000  0.0851  0.0353  0.0374  0.0009  0.0000 </r>
        <r>  0.0000  0.0000  0.0000  0.0000  0.0032  0.0044  0.3196  0.0220  0.0000 </r>
       </set>
       <set comment="band 18">
        <r>  0.0000  0.0000  0.0000  0.0000  0.0246  0.0113  0.2844  0.0106  0.0004 </r>
        <r>  0.0000  0.0000  0.0000  0.0000  0.0420  0.0289  0.1198  0.0056  0.0003 </r>
        <r>  0.0000  0.0000  0.0000  0.0000  0.0545  0.0067  0.0923  0.0361  0.0000 </r>
        <r>  0.0000  0.0000  0.0000  0.0000  0.1294  0.0104  0.0540  0.0162  0.0001 </r>
       </set>
       <set comment="band 19">
        <r>  0.0000  0.0000  0.0000  0.0000  0.0699  0.0175  0.0420  0.0169  0.0003 </r>
        <r>  0.0000  0.0000  0.0000  0.0000  0.0812  0.0038  0.1756  0.0169  0.0005 </r>
        <r>  0.0000  0.0000  0.0000  0.0000  0.0799  0.0181  0.1785  0.0060  0.0005 </r>
        <r>  0.0000  0.0000  0.0000  0.0000  0.0191  0.0241  0.1537  0.0228  0.0001 </r>
       </set>
       <set comment="band 20">
        <r>  0.0000  0.0000  0.0000  0.0000  0.0108  0.0073  0.2165  0.0271  0.0002 </r>
        <r>  0.0000  0.0000  0.0000  0.0000  0.1103  0.0224  0.0679  0.0035  0.0000 </r>
        <r>  0.0000  0.0000  0.0000  0.0000  0.0309  0.0021  0.2425  0.0269  0.0002 </r>
        <r>  0.0000  0.0000  0.0000  0.0000  0.0985  0.0282  0.0236  0.0081  0.0003 </r>
       </set>
       <set comment="band 21">
        <r>  0.0000  0.0000  0.0000  0.0000  0.0000  0.0762  0.0002  0.0289  0.1744 </r>
        <r>  0.0000  0.0000  0.0000  0.0000  0.0001  0.0617  0.0003  0.0280  0.2134 </r>
        <r>  0.0000  0.0000  0.0000  0.0000  0.0001  0.0273  0.0001  0.0574  0.0818 </r>
        <r>  0.0000  0.0000  0.0000  0.0000  0.0001  0.0269  0.0000  0.0696  0.0810 </r>
       </set>
       <set comment="band 22">
        <r>  0.0000  0.0000  0.0000  0.0000  0.0001  0.0210  0.0004  0.0740  0.1590 </r>
        <r>  0.0000  0.0000  0.0000  0.0000  0.0001  0.0562  0.0001  0.0431  0.0583 </r>
        <r>  0.0000  0.0000  0.0000  0.0000  0.0001  0.0403  0.0002  0.0524  0.2109 </r>
        <r>  0.0000  0.0000  0.0000  0.0000  0.0002  0.0699  0.0002  0.0188  0.1222 </r>
       </set>
       <set comment="band 23">
        <r>  0.0000  0.0000  0.0000  0.0000  0.0000  0.0831  0.0002  0.0284  0.1293 </r>
        <r>  0.0000  0.0000  0.0000  0.0000  0.0000  0.0463  0.0001  0.0331  0.2397 </r>
        <r>  0.0000  0.0000  0.0000  0.0000  0.0000  0.0325  0.0001  0.0420  0.0857 </r>
        <r>  0.0000  0.0000  0.0000  0.0000  0.0001  0.0301  0.0000  0.0806  0.0961 </r>
       </set>
       <set comment="band 24">
        <r>  0.0000  0.0000  0.0000  0.0000  0.0001  0.0139  0.0004  0.0608  0.0876 </r>
        <r>  0.0000  0.0000  0.0000  0.0000  0.0001  0.0307  0.0003  0.0831  0.0389 </r>
        <r>  0.0000  0.0000  0.0000  0.0000  0.0001  0.0885  0.0002  0.0291  0.1721 </r>
        <r>  0.0000  0.0000  0.0000  0.0000  0.0002  0.0567  0.0002  0.0128  0.2515 </r>
       </set>
       <set comment="band 25">
        <r>  0.0000  0.0000  0.0000  0.0000  0.0704  0.0091  0.0444  0.0591  0.0001 </r>
        <r>  0.0000  0.0000  0.0000  0.0000  0.2393  0.0125  0.0371  0.0188  0.0000 </r>
        <r>  0.0000  0.0000  0.0000  0.0000  0.0366  0.0165  0.2425  0.0095  0.0000 </r>
        <r>  0.0000  0.0000  0.0000  0.0000  0.0438  0.0606  0.0714  0.0093  0.0000 </r>
       </set>
       <set comment="band 26">
        <r>  0.0000  0.0000  0.0000  0.0000  0.0849  0.0093  0.2486  0.0061  0.0000 </r>
        <r>  0.0000  0.0000  0.0000  0.0000  0.0231  0.0591  0.0373  0.0209  0.0000 </r>
        <r>  0.0000  0.0000  0.0000  0.0000  0.0368  0.0216  0.0234  0.0636  0.0000 </r>
        <r>  0.0000  0.0000  0.0000  0.0000  0.2454  0.0055  0.0860  0.0091  0.0000 </r>
       </set>
       <set comment="band 27">
        <r>  0.0000  0.0000  0.0000  0.0000  0.0548  0.0549  0.0681  0.0109  0.0000 </r>
        <r>  0.0000  0.0000  0.0000  0.0000  0.0427  0.0168  0.2285  0.0135  0.0000 </r>
        <r>  0.0000  0.0000  0.0000  0.0000  0.2255  0.0139  0.0433  0.0168  0.0000 </r>
        <r>  0.0000  0.0000  0.0000  0.0000  0.0673  0.0104  0.0555  0.0579  0.0000 </r>
       </set>
       <set comment="band 28">
        <r>  0.0000  0.0000  0.0000  0.0000  0.1801  0.0223  0.0343  0.0223  0.0000 </r>
        <r>  0.0000  0.0000  0.0000  0.0000  0.0851  0.0080  0.0924  0.0457  0.0000 </r>
        <r>  0.0000  0.0000  0.0000  0.0000  0.0912  0.0444  0.0862  0.0089  0.0000 </r>
        <r>  0.0000  0.0000  0.0000  0.0000  0.0338  0.0202  0.1825  0.0233  0.0000 </r>
       </set>
       <set comment="band 29">
        <r>  0.0000  0.0000  0.0000  0.0000  0.0000  0.0931  0.0000  0.1534  0.0390 </r>
        <r>  0.0000  0.0000  0.0000  0.0000  0.0000  0.0292  0.0000  0.0168  0.1248 </r>
        <r>  0.0000  0.0000  0.0000  0.0000  0.0000  0.0172  0.0000  0.0286  0.2086 </r>
        <r>  0.0000  0.0000  0.0000  0.0000  0.0000  0.1555  0.0000  0.0917  0.0230 </r>
       </set>
       <set comment="band 30">
        <r>  0.0000  0.0000  0.0000  0.0000  0.0000  0.1219  0.0000  0.0106  0.1054 </r>
        <r>  0.0000  0.0000  0.0000  0.0000  0.0000  0.0790  0.0000  0.0824  0.1635 </r>
        <r>  0.0000  0.0000  0.0000  0.0000  0.0000  0.0833  0.0000  0.0770  0.0146 </r>
        <r>  0.0000  0.0000  0.0000  0.0000  0.0000  0.0110  0.0000  0.1202  0.1119 </r>
       </set>
       <set comment="band 31">
        <r>  0.0000  0.0000  0.0000  0.0000  0.0000  0.0555  0.0000  0.0516  0.0657 </r>
        <r>  0.0000  0.0000  0.0000  0.0000  0.0000  0.0491  0.0000  0.1373  0.0738 </r>
        <r>  0.0000  0.0000  0.0000  0.0000  0.0000  0.1373  0.0000  0.0482  0.0704 </r>
        <r>  0.0000  0.0000  0.0000  0.0000  0.0000  0.0526  0.0000  0.0538  0.1855 </r>
       </set>
       <set comment="band 32">
        <r>  0.0000  0.0000  0.0000  0.0000  0.0000  0.0243  0.0000  0.0762  0.1852 </r>
        <r>  0.0000  0.0000  0.0000  0.0000  0.0001  0.1365  0.0001  0.0550  0.0333 </r>
        <r>  0.0000  0.0000  0.0000  0.0000  0.0001  0.0562  0.0001  0.1376  0.1017 </r>
        <r>  0.0000  0.0000  0.0000  0.0000  0.0000  0.0745  0.0000  0.0250  0.0751 </r>
       </set>
       <set comment="band 33">
        <r>  0.0000  0.0301  0.0395  0.0004  0.0000  0.0000  0.0000  0.0000  0.0000 </r>
        <r>  0.0000  0.0395  0.0301  0.0350  0.0000  0.0000  0.0000  0.0000  0.0000 </r>
        <r>  0.0000  0.0350  0.0004  0.0395  0.0000  0.0000  0.0000  0.0000  0.0000 </r>
        <r>  0.0000  0.0004  0.0350  0.0301  0.0000  0.0000  0.0000  0.0000  0.0000 </r>
       </set>
       <set comment="band 34">
        <r>  0.0000  0.0379  0.0135  0.0472  0.0000  0.0000  0.0000  0.0000  0.0000 </r>
        <r>  0.0000  0.0135  0.0379  0.0064  0.0000  0.0000  0.0000  0.0000  0.0000 </r>
        <r>  0.0000  0.0064  0.0472  0.0135  0.0000  0.0000  0.0000  0.0000  0.0000 </r>
        <r>  0.0000  0.0472  0.0064  0.0379  0.0000  0.0000  0.0000  0.0000  0.0000 </r>
       </set>
       <set comment="band 35">
        <r>  0.0000  0.0346  0.0111  0.0522  0.0000  0.0000  0.0000  0.0000  0.0000 </r>
        <r>  0.0000  0.0111  0.0346  0.0071  0.0000  0.0000  0.0000  0.0000  0.0000 </r>
        <r>  0.0000  0.0071  0.0522  0.0111  0.0000  0.0000  0.0000  0.0000  0.0000 </r>
        <r>  0.0000  0.0522  0.0071  0.0346  0.0000  0.0000  0.0000  0.0000  0.0000 </r>
       </set>
       <set comment="band 36">
        <r>  0.0000  0.0023  0.0409  0.0053  0.0000  0.0000  0.0000  0.0000  0.0000 </r>
        <r>  0.0000  0.0409  0.0023  0.0565  0.0000  0.0000  0.0000  0.0000  0.0000 </r>
        <r>  0.0000  0.0565  0.0053  0.0409  0.0000  0.0000  0.0000  0.0000  0.0000 </r>
        <r>  0.0000  0.0053  0.0565  0.0023  0.0000  0.0000  0.0000  0.0000  0.0000 </r>
       </set>
       <set comment="band 37">
        <r>  0.1001  0.0000  0.0000  0.0000  0.0641  0.0163  0.0000  0.0084  0.0000 </r>
        <r>  0.0419  0.0000  0.0000  0.0000  0.0084  0.0390  0.0000  0.0641  0.0000 </r>
        <r>  0.0217  0.0000  0.0000  0.0000  0.0163  0.0641  0.0000  0.0390  0.0000 </r>
        <r>  0.1647  0.0000  0.0000  0.0000  0.0390  0.0084  0.0000  0.0163  0.0000 </r>
       </set>
       <set comment="band 38">
        <r>  0.1668  0.0000  0.0000  0.0000  0.0534  0.0011  0.0000  0.0083  0.0000 </r>
        <r>  0.0028  0.0000  0.0000  0.0000  0.0083  0.0649  0.0000  0.0534  0.0000 </r>
        <r>  0.0214  0.0000  0.0000  0.0000  0.0011  0.0534  0.0000  0.0649  0.0000 </r>
        <r>  0.1373  0.0000  0.0000  0.0000  0.0649  0.0083  0.0000  0.0011  0.0000 </r>
       </set>
       <set comment="band 39">
        <r>  0.0131  0.0000  0.0000  0.0000  0.0022  0.0368  0.0000  0.0837  0.0000 </r>
        <r>  0.0945  0.0000  0.0000  0.0000  0.0837  0.0051  0.0000  0.0022  0.0000 </r>
        <r>  0.2150  0.0000  0.0000  0.0000  0.0368  0.0022  0.0000  0.0051  0.0000 </r>
        <r>  0.0057  0.0000  0.0000  0.0000  0.0051  0.0837  0.0000  0.0368  0.0000 </r>
       </set>
       <set comment="band 40">
        <r>  0.0483  0.0000  0.0000  0.0000  0.0080  0.0736  0.0000  0.0273  0.0000 </r>
        <r>  0.1891  0.0000  0.0000  0.0000  0.0273  0.0188  0.0000  0.0080  0.0000 </r>
        <r>  0.0702  0.0000  0.0000  0.0000  0.0736  0.0080  0.0000  0.0188  0.0000 </r>
        <r>  0.0207  0.0000  0.0000  0.0000  0.0188  0.0273  0.0000  0.0736  0.0000 </r>
       </set>
      </set>
     </set>
    </set>
   </array>
  </projected>
 </calculation>
 <structure name="finalpos" >
  <crystal>
   <varray name="basis" >
    <v>       3.57743067       0.00000000       0.00000000 </v>
    <v>       0.00000000       3.57743067       0.00000000 </v>
    <v>       0.00000000       0.00000000       3.57743067 </v>
   </varray>
   <i name="volume">     45.78399426 </i>
   <varray name="rec_basis" >
    <v>       0.27953022      -0.00000000       0.00000000 </v>
    <v>       0.00000000       0.27953022       0.00000000 </v>
    <v>      -0.00000000      -0.00000000       0.27953022 </v>
   </varray>
  </crystal>
  <varray name="positions" >
   <v>       0.00000000       0.00000000       0.00000000 </v>
   <v>       0.00000000       0.50000000       0.50000000 </v>
   <v>       0.50000000       0.00000000       0.50000000 </v>
   <v>       0.50000000       0.50000000       0.00000000 </v>
  </varray>
 </structure>
</modeling>
