       N       E                     dE             d eps       ncg     rms          rms(c)
DAV:   1    -0.362967963316E+01   -0.36297E+01   -0.86690E+02 78000   0.341E+01
DAV:   2    -0.368226760394E+01   -0.52588E-01   -0.52432E-01 70752   0.110E+00
DAV:   3    -0.368227002045E+01   -0.24165E-05   -0.24092E-05 81600   0.692E-03
DAV:   4    -0.368227002139E+01   -0.93821E-09   -0.12192E-10 79680   0.104E-05
DAV:   5    -0.368227002043E+01    0.96445E-09    0.11426E-13 79488   0.438E-09    0.173E+00
RMM:   6    -0.375519668831E+01   -0.72927E-01   -0.23490E-03 54923   0.758E-02    0.819E-01
RMM:   7    -0.374668240087E+01    0.85143E-02   -0.85663E-04 57291   0.434E-02    0.657E-01
RMM:   8    -0.374633705784E+01    0.34534E-03   -0.18496E-04 56982   0.230E-02    0.202E-01
RMM:   9    -0.374630986730E+01    0.27191E-04   -0.24688E-05 59661   0.763E-03
   1 F= -.37463099E+01 E0= -.37463099E+01  d E =0.000000E+00  mag=     0.0013
