       N       E                     dE             d eps       ncg     rms          rms(c)
DAV:   1    -0.363251132469E+01   -0.36325E+01   -0.85193E+02 28656   0.337E+01
DAV:   2    -0.368266037578E+01   -0.50149E-01   -0.50084E-01 24960   0.108E+00
DAV:   3    -0.368266254429E+01   -0.21685E-05   -0.21782E-05 31248   0.674E-03
DAV:   4    -0.368266254456E+01   -0.26367E-09   -0.10153E-10 27984   0.919E-06
DAV:   5    -0.368266254421E+01    0.35283E-09    0.16013E-12 30432   0.486E-09    0.174E+00
RMM:   6    -0.374915031527E+01   -0.66488E-01   -0.23959E-03 19973   0.765E-02    0.829E-01
RMM:   7    -0.374054789093E+01    0.86024E-02   -0.92403E-04 20867   0.451E-02    0.663E-01
RMM:   8    -0.374034974867E+01    0.19814E-03   -0.20055E-04 20657   0.240E-02    0.208E-01
RMM:   9    -0.374033942843E+01    0.10320E-04   -0.26626E-05 21620   0.792E-03
   1 F= -.37403394E+01 E0= -.37403394E+01  d E =0.000000E+00  mag=     0.0013
