<?xml version="1.0" encoding="ISO-8859-1"?>
<modeling>
 <generator>
  <i name="program" type="string">vasp </i>
  <i name="version" type="string">6.2.1  </i>
  <i name="subversion" type="string">16May21 (build Aug 15 2022 14:47:30) complex                          parallel </i>
  <i name="platform" type="string">LinuxGNU </i>
  <i name="date" type="string">2025 12 11 </i>
  <i name="time" type="string">13:58:29 </i>
 </generator>
 <incar>
  <i type="string" name="PREC">Accurate</i>
  <i type="string" name="ALGO">Fast</i>
  <i type="int" name="ISPIN">     2</i>
  <i type="int" name="NELM">   100</i>
  <i name="EDIFF">      0.00005000</i>
  <i type="int" name="NSW">     0</i>
  <i name="ENCUT">    520.00000000</i>
  <v name="MAGMOM">      0.60000000</v>
  <i type="logical" name="LREAL"> F  </i>
  <i type="int" name="ISMEAR">    -5</i>
  <i name="SIGMA">      0.05000000</i>
  <i type="logical" name="LWAVE"> F  </i>
  <i type="logical" name="LCHARG"> T  </i>
  <i type="int" name="LORBIT">    11</i>
  <i type="logical" name="LASPH"> T  </i>
 </incar>
 <primitive_cell>
  <structure name="primitive_cell" >
   <crystal>
    <varray name="basis" >
     <v>       0.00000000       2.02400000       2.02400000 </v>
     <v>       2.02400000       0.00000000       2.02400000 </v>
     <v>       2.02400000       2.02400000       0.00000000 </v>
    </varray>
    <i name="volume">     16.58293965 </i>
    <varray name="rec_basis" >
     <v>      -0.24703557       0.24703557       0.24703557 </v>
     <v>       0.24703557      -0.24703557       0.24703557 </v>
     <v>       0.24703557       0.24703557      -0.24703557 </v>
    </varray>
   </crystal>
   <varray name="positions" >
    <v>       0.00000000       0.00000000       0.00000000 </v>
   </varray>
  </structure>
  <varray name="primitive_index" >
   <v type="int" >        1 </v>
  </varray>
 </primitive_cell>
 <kpoints>
  <generation param="Gamma">
   <v type="int" name="divisions">      14       14       14 </v>
   <v name="usershift">      0.00000000       0.00000000       0.00000000 </v>
   <v name="genvec1">      0.07142857       0.00000000       0.00000000 </v>
   <v name="genvec2">      0.00000000       0.07142857       0.00000000 </v>
   <v name="genvec3">      0.00000000       0.00000000       0.07142857 </v>
   <v name="shift">      0.00000000       0.00000000       0.00000000 </v>
  </generation>
  <varray name="kpointlist" >
   <v>       0.00000000       0.00000000       0.00000000 </v>
   <v>       0.07142857       0.00000000       0.00000000 </v>
   <v>       0.14285714       0.00000000       0.00000000 </v>
   <v>       0.21428571       0.00000000       0.00000000 </v>
   <v>       0.28571429       0.00000000       0.00000000 </v>
   <v>       0.35714286       0.00000000       0.00000000 </v>
   <v>       0.42857143       0.00000000       0.00000000 </v>
   <v>       0.50000000       0.00000000       0.00000000 </v>
   <v>       0.07142857       0.07142857       0.00000000 </v>
   <v>       0.14285714       0.07142857       0.00000000 </v>
   <v>       0.21428571       0.07142857       0.00000000 </v>
   <v>       0.28571429       0.07142857       0.00000000 </v>
   <v>       0.35714286       0.07142857       0.00000000 </v>
   <v>       0.42857143       0.07142857       0.00000000 </v>
   <v>       0.50000000       0.07142857       0.00000000 </v>
   <v>      -0.42857143       0.07142857       0.00000000 </v>
   <v>      -0.35714286       0.07142857       0.00000000 </v>
   <v>      -0.28571429       0.07142857       0.00000000 </v>
   <v>      -0.21428571       0.07142857       0.00000000 </v>
   <v>      -0.14285714       0.07142857       0.00000000 </v>
   <v>      -0.07142857       0.07142857       0.00000000 </v>
   <v>       0.14285714       0.14285714       0.00000000 </v>
   <v>       0.21428571       0.14285714       0.00000000 </v>
   <v>       0.28571429       0.14285714       0.00000000 </v>
   <v>       0.35714286       0.14285714       0.00000000 </v>
   <v>       0.42857143       0.14285714       0.00000000 </v>
   <v>       0.50000000       0.14285714       0.00000000 </v>
   <v>      -0.42857143       0.14285714       0.00000000 </v>
   <v>      -0.35714286       0.14285714       0.00000000 </v>
   <v>      -0.28571429       0.14285714       0.00000000 </v>
   <v>      -0.21428571       0.14285714       0.00000000 </v>
   <v>      -0.14285714       0.14285714       0.00000000 </v>
   <v>       0.21428571       0.21428571       0.00000000 </v>
   <v>       0.28571429       0.21428571       0.00000000 </v>
   <v>       0.35714286       0.21428571       0.00000000 </v>
   <v>       0.42857143       0.21428571       0.00000000 </v>
   <v>       0.50000000       0.21428571       0.00000000 </v>
   <v>      -0.42857143       0.21428571       0.00000000 </v>
   <v>      -0.35714286       0.21428571       0.00000000 </v>
   <v>      -0.28571429       0.21428571       0.00000000 </v>
   <v>      -0.21428571       0.21428571       0.00000000 </v>
   <v>       0.28571429       0.28571429       0.00000000 </v>
   <v>       0.35714286       0.28571429       0.00000000 </v>
   <v>       0.42857143       0.28571429       0.00000000 </v>
   <v>       0.50000000       0.28571429       0.00000000 </v>
   <v>      -0.42857143       0.28571429       0.00000000 </v>
   <v>      -0.35714286       0.28571429       0.00000000 </v>
   <v>      -0.28571429       0.28571429       0.00000000 </v>
   <v>       0.35714286       0.35714286       0.00000000 </v>
   <v>       0.42857143       0.35714286       0.00000000 </v>
   <v>       0.50000000       0.35714286       0.00000000 </v>
   <v>      -0.42857143       0.35714286       0.00000000 </v>
   <v>      -0.35714286       0.35714286       0.00000000 </v>
   <v>       0.42857143       0.42857143       0.00000000 </v>
   <v>       0.50000000       0.42857143       0.00000000 </v>
   <v>      -0.42857143       0.42857143       0.00000000 </v>
   <v>       0.50000000       0.50000000       0.00000000 </v>
   <v>       0.21428571       0.14285714       0.07142857 </v>
   <v>       0.28571429       0.14285714       0.07142857 </v>
   <v>       0.35714286       0.14285714       0.07142857 </v>
   <v>       0.42857143       0.14285714       0.07142857 </v>
   <v>       0.50000000       0.14285714       0.07142857 </v>
   <v>      -0.42857143       0.14285714       0.07142857 </v>
   <v>       0.28571429       0.21428571       0.07142857 </v>
   <v>       0.35714286       0.21428571       0.07142857 </v>
   <v>       0.42857143       0.21428571       0.07142857 </v>
   <v>       0.50000000       0.21428571       0.07142857 </v>
   <v>      -0.42857143       0.21428571       0.07142857 </v>
   <v>      -0.35714286       0.21428571       0.07142857 </v>
   <v>      -0.28571429       0.21428571       0.07142857 </v>
   <v>      -0.21428571       0.21428571       0.07142857 </v>
   <v>      -0.14285714       0.21428571       0.07142857 </v>
   <v>       0.35714286       0.28571429       0.07142857 </v>
   <v>       0.42857143       0.28571429       0.07142857 </v>
   <v>       0.50000000       0.28571429       0.07142857 </v>
   <v>      -0.42857143       0.28571429       0.07142857 </v>
   <v>      -0.35714286       0.28571429       0.07142857 </v>
   <v>      -0.28571429       0.28571429       0.07142857 </v>
   <v>      -0.21428571       0.28571429       0.07142857 </v>
   <v>       0.42857143       0.35714286       0.07142857 </v>
   <v>       0.50000000       0.35714286       0.07142857 </v>
   <v>      -0.42857143       0.35714286       0.07142857 </v>
   <v>      -0.35714286       0.35714286       0.07142857 </v>
   <v>      -0.28571429       0.35714286       0.07142857 </v>
   <v>       0.50000000       0.42857143       0.07142857 </v>
   <v>      -0.42857143       0.42857143       0.07142857 </v>
   <v>      -0.35714286       0.42857143       0.07142857 </v>
   <v>      -0.42857143       0.50000000       0.07142857 </v>
   <v>       0.42857143       0.28571429       0.14285714 </v>
   <v>       0.50000000       0.28571429       0.14285714 </v>
   <v>      -0.42857143       0.28571429       0.14285714 </v>
   <v>      -0.35714286       0.28571429       0.14285714 </v>
   <v>       0.50000000       0.35714286       0.14285714 </v>
   <v>      -0.42857143       0.35714286       0.14285714 </v>
   <v>      -0.35714286       0.35714286       0.14285714 </v>
   <v>      -0.28571429       0.35714286       0.14285714 </v>
   <v>      -0.21428571       0.35714286       0.14285714 </v>
   <v>      -0.42857143       0.42857143       0.14285714 </v>
   <v>      -0.35714286       0.42857143       0.14285714 </v>
   <v>      -0.28571429       0.42857143       0.14285714 </v>
   <v>      -0.35714286       0.50000000       0.14285714 </v>
   <v>      -0.35714286       0.42857143       0.21428571 </v>
   <v>      -0.28571429       0.42857143       0.21428571 </v>
   <v>      -0.28571429       0.50000000       0.21428571 </v>
  </varray>
  <varray name="weights" >
   <v>       0.00036443 </v>
   <v>       0.00291545 </v>
   <v>       0.00291545 </v>
   <v>       0.00291545 </v>
   <v>       0.00291545 </v>
   <v>       0.00291545 </v>
   <v>       0.00291545 </v>
   <v>       0.00145773 </v>
   <v>       0.00218659 </v>
   <v>       0.00874636 </v>
   <v>       0.00874636 </v>
   <v>       0.00874636 </v>
   <v>       0.00874636 </v>
   <v>       0.00874636 </v>
   <v>       0.00874636 </v>
   <v>       0.00874636 </v>
   <v>       0.00874636 </v>
   <v>       0.00874636 </v>
   <v>       0.00874636 </v>
   <v>       0.00874636 </v>
   <v>       0.00437318 </v>
   <v>       0.00218659 </v>
   <v>       0.00874636 </v>
   <v>       0.00874636 </v>
   <v>       0.00874636 </v>
   <v>       0.00874636 </v>
   <v>       0.00874636 </v>
   <v>       0.00874636 </v>
   <v>       0.00874636 </v>
   <v>       0.00874636 </v>
   <v>       0.00874636 </v>
   <v>       0.00437318 </v>
   <v>       0.00218659 </v>
   <v>       0.00874636 </v>
   <v>       0.00874636 </v>
   <v>       0.00874636 </v>
   <v>       0.00874636 </v>
   <v>       0.00874636 </v>
   <v>       0.00874636 </v>
   <v>       0.00874636 </v>
   <v>       0.00437318 </v>
   <v>       0.00218659 </v>
   <v>       0.00874636 </v>
   <v>       0.00874636 </v>
   <v>       0.00874636 </v>
   <v>       0.00874636 </v>
   <v>       0.00874636 </v>
   <v>       0.00437318 </v>
   <v>       0.00218659 </v>
   <v>       0.00874636 </v>
   <v>       0.00874636 </v>
   <v>       0.00874636 </v>
   <v>       0.00437318 </v>
   <v>       0.00218659 </v>
   <v>       0.00874636 </v>
   <v>       0.00437318 </v>
   <v>       0.00109329 </v>
   <v>       0.00874636 </v>
   <v>       0.01749271 </v>
   <v>       0.01749271 </v>
   <v>       0.01749271 </v>
   <v>       0.01749271 </v>
   <v>       0.00874636 </v>
   <v>       0.00874636 </v>
   <v>       0.01749271 </v>
   <v>       0.01749271 </v>
   <v>       0.01749271 </v>
   <v>       0.01749271 </v>
   <v>       0.01749271 </v>
   <v>       0.01749271 </v>
   <v>       0.01749271 </v>
   <v>       0.00874636 </v>
   <v>       0.00874636 </v>
   <v>       0.01749271 </v>
   <v>       0.01749271 </v>
   <v>       0.01749271 </v>
   <v>       0.01749271 </v>
   <v>       0.01749271 </v>
   <v>       0.00874636 </v>
   <v>       0.00874636 </v>
   <v>       0.01749271 </v>
   <v>       0.01749271 </v>
   <v>       0.01749271 </v>
   <v>       0.00874636 </v>
   <v>       0.00874636 </v>
   <v>       0.01749271 </v>
   <v>       0.00874636 </v>
   <v>       0.00437318 </v>
   <v>       0.00874636 </v>
   <v>       0.01749271 </v>
   <v>       0.01749271 </v>
   <v>       0.00874636 </v>
   <v>       0.00874636 </v>
   <v>       0.01749271 </v>
   <v>       0.01749271 </v>
   <v>       0.01749271 </v>
   <v>       0.00874636 </v>
   <v>       0.00874636 </v>
   <v>       0.01749271 </v>
   <v>       0.00874636 </v>
   <v>       0.00437318 </v>
   <v>       0.00874636 </v>
   <v>       0.00874636 </v>
   <v>       0.00437318 </v>
  </varray>
  <varray name="tetrahedronlist"  type="int" >
   <v type="int" >       24        1        2        2        9 </v>
   <v type="int" >       48        2        9       10       21 </v>
   <v type="int" >       48        2        3       10       21 </v>
   <v type="int" >       24        2        2        9       21 </v>
   <v type="int" >       48        3       10       11       20 </v>
   <v type="int" >       48        3        4       11       20 </v>
   <v type="int" >       48        3       10       20       21 </v>
   <v type="int" >       48        4       11       12       19 </v>
   <v type="int" >       48        4        5       12       19 </v>
   <v type="int" >       48        4       11       19       20 </v>
   <v type="int" >       48        5       12       13       18 </v>
   <v type="int" >       48        5        6       13       18 </v>
   <v type="int" >       48        5       12       18       19 </v>
   <v type="int" >       48        6       13       14       17 </v>
   <v type="int" >       48        6        7       14       17 </v>
   <v type="int" >       48        6       13       17       18 </v>
   <v type="int" >       48        7       14       15       16 </v>
   <v type="int" >       48        7        8       15       16 </v>
   <v type="int" >       48        7       14       16       17 </v>
   <v type="int" >       48        8       15       15       16 </v>
   <v type="int" >       24        9       10       10       22 </v>
   <v type="int" >       24        9       10       10       21 </v>
   <v type="int" >       48       10       22       23       58 </v>
   <v type="int" >       48       10       11       23       58 </v>
   <v type="int" >       48       10       11       20       58 </v>
   <v type="int" >       24       10       10       22       58 </v>
   <v type="int" >       24       10       10       21       58 </v>
   <v type="int" >       48       10       20       21       58 </v>
   <v type="int" >       48       11       23       24       59 </v>
   <v type="int" >       48       11       12       24       59 </v>
   <v type="int" >       48       11       12       19       59 </v>
   <v type="int" >       48       11       23       58       59 </v>
   <v type="int" >       48       11       20       58       59 </v>
   <v type="int" >       48       11       19       20       59 </v>
   <v type="int" >       48       12       24       25       60 </v>
   <v type="int" >       48       12       13       25       60 </v>
   <v type="int" >       48       12       13       18       60 </v>
   <v type="int" >       48       12       24       59       60 </v>
   <v type="int" >       48       12       19       59       60 </v>
   <v type="int" >       48       12       18       19       60 </v>
   <v type="int" >       48       13       25       26       61 </v>
   <v type="int" >       48       13       14       26       61 </v>
   <v type="int" >       48       13       14       17       61 </v>
   <v type="int" >       48       13       25       60       61 </v>
   <v type="int" >       48       13       18       60       61 </v>
   <v type="int" >       48       13       17       18       61 </v>
   <v type="int" >       48       14       26       27       62 </v>
   <v type="int" >       48       14       15       27       62 </v>
   <v type="int" >       48       14       15       16       62 </v>
   <v type="int" >       48       14       26       61       62 </v>
   <v type="int" >       48       14       17       61       62 </v>
   <v type="int" >       48       14       16       17       62 </v>
   <v type="int" >       48       15       27       28       63 </v>
   <v type="int" >       48       15       16       28       63 </v>
   <v type="int" >       48       15       15       16       63 </v>
   <v type="int" >       48       15       27       62       63 </v>
   <v type="int" >       48       15       16       62       63 </v>
   <v type="int" >       48       16       28       29       62 </v>
   <v type="int" >       48       16       17       29       62 </v>
   <v type="int" >       48       16       28       62       63 </v>
   <v type="int" >       48       17       29       30       61 </v>
   <v type="int" >       48       17       18       30       61 </v>
   <v type="int" >       48       17       29       61       62 </v>
   <v type="int" >       48       18       30       31       60 </v>
   <v type="int" >       48       18       19       31       60 </v>
   <v type="int" >       48       18       30       60       61 </v>
   <v type="int" >       48       19       31       32       59 </v>
   <v type="int" >       48       19       20       32       59 </v>
   <v type="int" >       48       19       31       59       60 </v>
   <v type="int" >       24       20       20       32       58 </v>
   <v type="int" >       24       20       20       21       58 </v>
   <v type="int" >       48       20       32       58       59 </v>
   <v type="int" >       24       22       23       23       33 </v>
   <v type="int" >       24       22       23       23       58 </v>
   <v type="int" >       48       23       33       34       64 </v>
   <v type="int" >       48       23       24       34       64 </v>
   <v type="int" >       48       23       24       59       64 </v>
   <v type="int" >       24       23       23       33       64 </v>
   <v type="int" >       24       23       23       58       64 </v>
   <v type="int" >       48       23       58       59       64 </v>
   <v type="int" >       48       24       34       35       65 </v>
   <v type="int" >       48       24       25       35       65 </v>
   <v type="int" >       48       24       25       60       65 </v>
   <v type="int" >       48       24       34       64       65 </v>
   <v type="int" >       48       24       59       64       65 </v>
   <v type="int" >       48       24       59       60       65 </v>
   <v type="int" >       48       25       35       36       66 </v>
   <v type="int" >       48       25       26       36       66 </v>
   <v type="int" >       48       25       26       61       66 </v>
   <v type="int" >       48       25       35       65       66 </v>
   <v type="int" >       48       25       60       65       66 </v>
   <v type="int" >       48       25       60       61       66 </v>
   <v type="int" >       48       26       36       37       67 </v>
   <v type="int" >       48       26       27       37       67 </v>
   <v type="int" >       48       26       27       62       67 </v>
   <v type="int" >       48       26       36       66       67 </v>
   <v type="int" >       48       26       61       66       67 </v>
   <v type="int" >       48       26       61       62       67 </v>
   <v type="int" >       48       27       37       38       68 </v>
   <v type="int" >       48       27       28       38       68 </v>
   <v type="int" >       48       27       28       63       68 </v>
   <v type="int" >       48       27       37       67       68 </v>
   <v type="int" >       48       27       62       67       68 </v>
   <v type="int" >       48       27       62       63       68 </v>
   <v type="int" >       48       28       38       39       69 </v>
   <v type="int" >       48       28       29       39       69 </v>
   <v type="int" >       48       28       29       62       69 </v>
   <v type="int" >       48       28       38       68       69 </v>
   <v type="int" >       48       28       63       68       69 </v>
   <v type="int" >       48       28       62       63       69 </v>
   <v type="int" >       48       29       39       40       70 </v>
   <v type="int" >       48       29       30       40       70 </v>
   <v type="int" >       48       29       30       61       70 </v>
   <v type="int" >       48       29       39       69       70 </v>
   <v type="int" >       48       29       62       69       70 </v>
   <v type="int" >       48       29       61       62       70 </v>
   <v type="int" >       48       30       40       41       71 </v>
   <v type="int" >       48       30       31       41       71 </v>
   <v type="int" >       48       30       31       60       71 </v>
   <v type="int" >       48       30       40       70       71 </v>
   <v type="int" >       48       30       61       70       71 </v>
   <v type="int" >       48       30       60       61       71 </v>
   <v type="int" >       24       31       31       41       72 </v>
   <v type="int" >       24       31       31       32       72 </v>
   <v type="int" >       48       31       32       59       72 </v>
   <v type="int" >       48       31       41       71       72 </v>
   <v type="int" >       48       31       60       71       72 </v>
   <v type="int" >       48       31       59       60       72 </v>
   <v type="int" >       24       32       59       59       72 </v>
   <v type="int" >       24       32       58       59       59 </v>
   <v type="int" >       24       33       34       34       42 </v>
   <v type="int" >       24       33       34       34       64 </v>
   <v type="int" >       48       34       42       43       73 </v>
   <v type="int" >       48       34       35       43       73 </v>
   <v type="int" >       48       34       35       65       73 </v>
   <v type="int" >       24       34       34       42       73 </v>
   <v type="int" >       24       34       34       64       73 </v>
   <v type="int" >       48       34       64       65       73 </v>
   <v type="int" >       48       35       43       44       74 </v>
   <v type="int" >       48       35       36       44       74 </v>
   <v type="int" >       48       35       36       66       74 </v>
   <v type="int" >       48       35       43       73       74 </v>
   <v type="int" >       48       35       65       73       74 </v>
   <v type="int" >       48       35       65       66       74 </v>
   <v type="int" >       48       36       44       45       75 </v>
   <v type="int" >       48       36       37       45       75 </v>
   <v type="int" >       48       36       37       67       75 </v>
   <v type="int" >       48       36       44       74       75 </v>
   <v type="int" >       48       36       66       74       75 </v>
   <v type="int" >       48       36       66       67       75 </v>
   <v type="int" >       48       37       45       46       76 </v>
   <v type="int" >       48       37       38       46       76 </v>
   <v type="int" >       48       37       38       68       76 </v>
   <v type="int" >       48       37       45       75       76 </v>
   <v type="int" >       48       37       67       75       76 </v>
   <v type="int" >       48       37       67       68       76 </v>
   <v type="int" >       48       38       46       47       77 </v>
   <v type="int" >       48       38       39       47       77 </v>
   <v type="int" >       48       38       39       69       77 </v>
   <v type="int" >       48       38       46       76       77 </v>
   <v type="int" >       48       38       68       76       77 </v>
   <v type="int" >       48       38       68       69       77 </v>
   <v type="int" >       48       39       47       48       78 </v>
   <v type="int" >       48       39       40       48       78 </v>
   <v type="int" >       48       39       40       70       78 </v>
   <v type="int" >       48       39       47       77       78 </v>
   <v type="int" >       48       39       69       77       78 </v>
   <v type="int" >       48       39       69       70       78 </v>
   <v type="int" >       24       40       40       48       79 </v>
   <v type="int" >       24       40       40       41       79 </v>
   <v type="int" >       48       40       41       71       79 </v>
   <v type="int" >       48       40       48       78       79 </v>
   <v type="int" >       48       40       70       78       79 </v>
   <v type="int" >       48       40       70       71       79 </v>
   <v type="int" >       24       41       71       71       79 </v>
   <v type="int" >       24       41       71       71       72 </v>
   <v type="int" >       24       42       43       43       49 </v>
   <v type="int" >       24       42       43       43       73 </v>
   <v type="int" >       48       43       49       50       80 </v>
   <v type="int" >       48       43       44       50       80 </v>
   <v type="int" >       48       43       44       74       80 </v>
   <v type="int" >       24       43       43       49       80 </v>
   <v type="int" >       24       43       43       73       80 </v>
   <v type="int" >       48       43       73       74       80 </v>
   <v type="int" >       48       44       50       51       81 </v>
   <v type="int" >       48       44       45       51       81 </v>
   <v type="int" >       48       44       45       75       81 </v>
   <v type="int" >       48       44       50       80       81 </v>
   <v type="int" >       48       44       74       80       81 </v>
   <v type="int" >       48       44       74       75       81 </v>
   <v type="int" >       48       45       51       52       82 </v>
   <v type="int" >       48       45       46       52       82 </v>
   <v type="int" >       48       45       46       76       82 </v>
   <v type="int" >       48       45       51       81       82 </v>
   <v type="int" >       48       45       75       81       82 </v>
   <v type="int" >       48       45       75       76       82 </v>
   <v type="int" >       48       46       52       53       83 </v>
   <v type="int" >       48       46       47       53       83 </v>
   <v type="int" >       48       46       47       77       83 </v>
   <v type="int" >       48       46       52       82       83 </v>
   <v type="int" >       48       46       76       82       83 </v>
   <v type="int" >       48       46       76       77       83 </v>
   <v type="int" >       24       47       47       53       84 </v>
   <v type="int" >       24       47       47       48       84 </v>
   <v type="int" >       48       47       48       78       84 </v>
   <v type="int" >       48       47       53       83       84 </v>
   <v type="int" >       48       47       77       83       84 </v>
   <v type="int" >       48       47       77       78       84 </v>
   <v type="int" >       24       48       78       78       84 </v>
   <v type="int" >       24       48       78       78       79 </v>
   <v type="int" >       24       49       50       50       54 </v>
   <v type="int" >       24       49       50       50       80 </v>
   <v type="int" >       48       50       54       55       85 </v>
   <v type="int" >       48       50       51       55       85 </v>
   <v type="int" >       48       50       51       81       85 </v>
   <v type="int" >       24       50       50       54       85 </v>
   <v type="int" >       24       50       50       80       85 </v>
   <v type="int" >       48       50       80       81       85 </v>
   <v type="int" >       48       51       55       56       86 </v>
   <v type="int" >       48       51       52       56       86 </v>
   <v type="int" >       48       51       52       82       86 </v>
   <v type="int" >       48       51       55       85       86 </v>
   <v type="int" >       48       51       81       85       86 </v>
   <v type="int" >       48       51       81       82       86 </v>
   <v type="int" >       24       52       52       56       87 </v>
   <v type="int" >       24       52       52       53       87 </v>
   <v type="int" >       48       52       53       83       87 </v>
   <v type="int" >       48       52       56       86       87 </v>
   <v type="int" >       48       52       82       86       87 </v>
   <v type="int" >       48       52       82       83       87 </v>
   <v type="int" >       24       53       83       83       87 </v>
   <v type="int" >       24       53       83       83       84 </v>
   <v type="int" >       24       54       55       55       57 </v>
   <v type="int" >       24       54       55       55       85 </v>
   <v type="int" >       48       55       55       57       88 </v>
   <v type="int" >       24       55       55       56       88 </v>
   <v type="int" >       48       55       56       86       88 </v>
   <v type="int" >       24       55       55       85       88 </v>
   <v type="int" >       48       55       85       86       88 </v>
   <v type="int" >       24       56       86       86       88 </v>
   <v type="int" >       24       56       86       86       87 </v>
   <v type="int" >       24       58       59       59       64 </v>
   <v type="int" >       48       59       64       65       72 </v>
   <v type="int" >       48       59       60       65       72 </v>
   <v type="int" >       24       59       59       64       72 </v>
   <v type="int" >       48       60       65       66       71 </v>
   <v type="int" >       48       60       61       66       71 </v>
   <v type="int" >       48       60       65       71       72 </v>
   <v type="int" >       48       61       66       67       70 </v>
   <v type="int" >       48       61       62       67       70 </v>
   <v type="int" >       48       61       66       70       71 </v>
   <v type="int" >       48       62       67       68       69 </v>
   <v type="int" >       48       62       63       68       69 </v>
   <v type="int" >       48       62       67       69       70 </v>
   <v type="int" >       48       63       68       68       69 </v>
   <v type="int" >       24       64       65       65       73 </v>
   <v type="int" >       24       64       65       65       72 </v>
   <v type="int" >       48       65       73       74       89 </v>
   <v type="int" >       48       65       66       74       89 </v>
   <v type="int" >       48       65       66       71       89 </v>
   <v type="int" >       24       65       65       73       89 </v>
   <v type="int" >       24       65       65       72       89 </v>
   <v type="int" >       48       65       71       72       89 </v>
   <v type="int" >       48       66       74       75       90 </v>
   <v type="int" >       48       66       67       75       90 </v>
   <v type="int" >       48       66       67       70       90 </v>
   <v type="int" >       48       66       74       89       90 </v>
   <v type="int" >       48       66       71       89       90 </v>
   <v type="int" >       48       66       70       71       90 </v>
   <v type="int" >       48       67       75       76       91 </v>
   <v type="int" >       48       67       68       76       91 </v>
   <v type="int" >       48       67       68       69       91 </v>
   <v type="int" >       48       67       75       90       91 </v>
   <v type="int" >       48       67       70       90       91 </v>
   <v type="int" >       48       67       69       70       91 </v>
   <v type="int" >       48       68       76       77       92 </v>
   <v type="int" >       48       68       69       77       92 </v>
   <v type="int" >       48       68       68       69       92 </v>
   <v type="int" >       48       68       76       91       92 </v>
   <v type="int" >       48       68       69       91       92 </v>
   <v type="int" >       48       69       77       78       91 </v>
   <v type="int" >       48       69       70       78       91 </v>
   <v type="int" >       48       69       77       91       92 </v>
   <v type="int" >       48       70       78       79       90 </v>
   <v type="int" >       48       70       71       79       90 </v>
   <v type="int" >       48       70       78       90       91 </v>
   <v type="int" >       24       71       71       79       89 </v>
   <v type="int" >       24       71       71       72       89 </v>
   <v type="int" >       48       71       79       89       90 </v>
   <v type="int" >       24       73       74       74       80 </v>
   <v type="int" >       24       73       74       74       89 </v>
   <v type="int" >       48       74       80       81       93 </v>
   <v type="int" >       48       74       75       81       93 </v>
   <v type="int" >       48       74       75       90       93 </v>
   <v type="int" >       24       74       74       80       93 </v>
   <v type="int" >       24       74       74       89       93 </v>
   <v type="int" >       48       74       89       90       93 </v>
   <v type="int" >       48       75       81       82       94 </v>
   <v type="int" >       48       75       76       82       94 </v>
   <v type="int" >       48       75       76       91       94 </v>
   <v type="int" >       48       75       81       93       94 </v>
   <v type="int" >       48       75       90       93       94 </v>
   <v type="int" >       48       75       90       91       94 </v>
   <v type="int" >       48       76       82       83       95 </v>
   <v type="int" >       48       76       77       83       95 </v>
   <v type="int" >       48       76       77       92       95 </v>
   <v type="int" >       48       76       82       94       95 </v>
   <v type="int" >       48       76       91       94       95 </v>
   <v type="int" >       48       76       91       92       95 </v>
   <v type="int" >       48       77       83       84       96 </v>
   <v type="int" >       48       77       78       84       96 </v>
   <v type="int" >       48       77       78       91       96 </v>
   <v type="int" >       48       77       83       95       96 </v>
   <v type="int" >       48       77       92       95       96 </v>
   <v type="int" >       48       77       91       92       96 </v>
   <v type="int" >       24       78       78       84       97 </v>
   <v type="int" >       24       78       78       79       97 </v>
   <v type="int" >       48       78       79       90       97 </v>
   <v type="int" >       48       78       84       96       97 </v>
   <v type="int" >       48       78       91       96       97 </v>
   <v type="int" >       48       78       90       91       97 </v>
   <v type="int" >       24       79       90       90       97 </v>
   <v type="int" >       24       79       89       90       90 </v>
   <v type="int" >       24       80       81       81       85 </v>
   <v type="int" >       24       80       81       81       93 </v>
   <v type="int" >       48       81       85       86       98 </v>
   <v type="int" >       48       81       82       86       98 </v>
   <v type="int" >       48       81       82       94       98 </v>
   <v type="int" >       24       81       81       85       98 </v>
   <v type="int" >       24       81       81       93       98 </v>
   <v type="int" >       48       81       93       94       98 </v>
   <v type="int" >       48       82       86       87       99 </v>
   <v type="int" >       48       82       83       87       99 </v>
   <v type="int" >       48       82       83       95       99 </v>
   <v type="int" >       48       82       86       98       99 </v>
   <v type="int" >       48       82       94       98       99 </v>
   <v type="int" >       48       82       94       95       99 </v>
   <v type="int" >       24       83       83       87      100 </v>
   <v type="int" >       24       83       83       84      100 </v>
   <v type="int" >       48       83       84       96      100 </v>
   <v type="int" >       48       83       87       99      100 </v>
   <v type="int" >       48       83       95       99      100 </v>
   <v type="int" >       48       83       95       96      100 </v>
   <v type="int" >       24       84       96       96      100 </v>
   <v type="int" >       24       84       96       96       97 </v>
   <v type="int" >       24       85       86       86       88 </v>
   <v type="int" >       24       85       86       86       98 </v>
   <v type="int" >       48       86       86       88      101 </v>
   <v type="int" >       24       86       86       87      101 </v>
   <v type="int" >       48       86       87       99      101 </v>
   <v type="int" >       24       86       86       98      101 </v>
   <v type="int" >       48       86       98       99      101 </v>
   <v type="int" >       24       87       99       99      101 </v>
   <v type="int" >       24       87       99       99      100 </v>
   <v type="int" >       24       89       90       90       93 </v>
   <v type="int" >       48       90       93       94       97 </v>
   <v type="int" >       48       90       91       94       97 </v>
   <v type="int" >       24       90       90       93       97 </v>
   <v type="int" >       48       91       94       95       96 </v>
   <v type="int" >       48       91       92       95       96 </v>
   <v type="int" >       48       91       94       96       97 </v>
   <v type="int" >       48       92       95       95       96 </v>
   <v type="int" >       24       93       94       94       98 </v>
   <v type="int" >       24       93       94       94       97 </v>
   <v type="int" >       48       94       98       99      102 </v>
   <v type="int" >       48       94       95       99      102 </v>
   <v type="int" >       48       94       95       96      102 </v>
   <v type="int" >       24       94       94       98      102 </v>
   <v type="int" >       24       94       94       97      102 </v>
   <v type="int" >       48       94       96       97      102 </v>
   <v type="int" >       48       95       99      100      103 </v>
   <v type="int" >       48       95       96      100      103 </v>
   <v type="int" >       48       95       95       96      103 </v>
   <v type="int" >       48       95       99      102      103 </v>
   <v type="int" >       48       95       96      102      103 </v>
   <v type="int" >       24       96       96      100      102 </v>
   <v type="int" >       24       96       96       97      102 </v>
   <v type="int" >       48       96      100      102      103 </v>
   <v type="int" >       24       98       99       99      101 </v>
   <v type="int" >       24       98       99       99      102 </v>
   <v type="int" >       48       99       99      101      104 </v>
   <v type="int" >       24       99       99      100      104 </v>
   <v type="int" >       48       99      100      103      104 </v>
   <v type="int" >       24       99       99      102      104 </v>
   <v type="int" >       48       99      102      103      104 </v>
   <v type="int" >       24      100      103      103      104 </v>
   <v type="int" >       24      100      102      103      103 </v>
   <v type="int" >       24      102      103      103      104 </v>
   <v type="int" >       24      103      103      104      104 </v>
  </varray>
  <i name="volumeweight">      0.00006074 </i>
 </kpoints>
 <parameters>
  <separator name="general" >
   <i type="string" name="SYSTEM">unknown system</i>
   <i type="logical" name="LCOMPAT"> F  </i>
  </separator>
  <separator name="electronic" >
   <i type="string" name="PREC">accura</i>
   <i name="ENMAX">    520.00000000</i>
   <i name="ENAUG">    291.05200000</i>
   <i name="EDIFF">      0.00005000</i>
   <i type="int" name="IALGO">    68</i>
   <i type="int" name="IWAVPR">    10</i>
   <i type="int" name="NBANDS">    48</i>
   <i type="int" name="NBANDSLOW">    -1</i>
   <i type="int" name="NBANDSHIGH">    -1</i>
   <i name="NELECT">      3.00000000</i>
   <i type="int" name="TURBO">     0</i>
   <i type="int" name="IRESTART">     0</i>
   <i type="int" name="NREBOOT">     0</i>
   <i type="int" name="NMIN">     0</i>
   <i name="EREF">      0.00000000</i>
   <separator name="electronic smearing" >
    <i type="int" name="ISMEAR">    -5</i>
    <i name="SIGMA">      0.05000000</i>
    <i name="KSPACING">      0.50000000</i>
    <i type="logical" name="KGAMMA"> T  </i>
    <i type="logical" name="KBLOWUP"> T  </i>
   </separator>
   <separator name="electronic projectors" >
    <i type="logical" name="LREAL"> F  </i>
    <v name="ROPT">      0.00000000</v>
    <i type="int" name="LMAXPAW">  -100</i>
    <i type="int" name="LMAXMIX">     2</i>
    <i type="logical" name="NLSPLINE"> F  </i>
   </separator>
   <separator name="electronic startup" >
    <i type="int" name="ISTART">     0</i>
    <i type="int" name="ICHARG">     2</i>
    <i type="int" name="INIWAV">     1</i>
   </separator>
   <separator name="electronic spin" >
    <i type="int" name="ISPIN">     2</i>
    <i type="logical" name="LNONCOLLINEAR"> F  </i>
    <v name="MAGMOM">      0.60000000</v>
    <i name="NUPDOWN">     -1.00000000</i>
    <i type="logical" name="LSORBIT"> F  </i>
    <v name="SAXIS">      0.00000000      0.00000000      1.00000000</v>
    <i type="logical" name="LSPIRAL"> F  </i>
    <v name="QSPIRAL">      0.00000000      0.00000000      0.00000000</v>
    <i type="logical" name="LZEROZ"> F  </i>
   </separator>
   <separator name="electronic exchange-correlation" >
    <i type="logical" name="LASPH"> T  </i>
    <i type="logical" name="LMETAGGA"> F  </i>
   </separator>
   <separator name="electronic convergence" >
    <i type="int" name="NELM">   100</i>
    <i type="int" name="NELMDL">     0</i>
    <i type="int" name="NELMIN">     2</i>
    <i name="ENINI">    520.00000000</i>
    <separator name="electronic convergence detail" >
     <i type="logical" name="LDIAG"> T  </i>
     <i type="logical" name="LSUBROT"> F  </i>
     <i name="WEIMIN">      0.00000000</i>
     <i name="EBREAK">      0.00000026</i>
     <i name="DEPER">      0.30000000</i>
     <i type="int" name="NRMM">     4</i>
     <i name="TIME">      0.40000000</i>
    </separator>
   </separator>
   <separator name="electronic mixer" >
    <i name="AMIX">      0.40000000</i>
    <i name="BMIX">      1.00000000</i>
    <i name="AMIN">      0.10000000</i>
    <i name="AMIX_MAG">      1.60000000</i>
    <i name="BMIX_MAG">      1.00000000</i>
    <separator name="electronic mixer details" >
     <i type="int" name="IMIX">     4</i>
     <i type="logical" name="MIXFIRST"> F  </i>
     <i type="int" name="MAXMIX">   -45</i>
     <i name="WC">    100.00000000</i>
     <i type="int" name="INIMIX">     1</i>
     <i type="int" name="MIXPRE">     1</i>
     <i type="int" name="MREMOVE">     5</i>
    </separator>
   </separator>
   <separator name="electronic dipolcorrection" >
    <i type="logical" name="LDIPOL"> F  </i>
    <i type="logical" name="LMONO"> F  </i>
    <i type="int" name="IDIPOL">     0</i>
    <i name="EPSILON">      1.00000000</i>
    <v name="DIPOL">   -100.00000000   -100.00000000   -100.00000000</v>
    <i name="EFIELD">      0.00000000</i>
   </separator>
  </separator>
  <separator name="grids" >
   <i type="int" name="NGX">    24</i>
   <i type="int" name="NGY">    24</i>
   <i type="int" name="NGZ">    24</i>
   <i type="int" name="NGXF">    48</i>
   <i type="int" name="NGYF">    48</i>
   <i type="int" name="NGZF">    48</i>
   <i type="logical" name="ADDGRID"> F  </i>
  </separator>
  <separator name="ionic" >
   <i type="int" name="NSW">     0</i>
   <i type="int" name="IBRION">    -1</i>
   <i type="int" name="MDALGO">     0</i>
   <i type="int" name="ISIF">     2</i>
   <i name="PSTRESS">      0.00000000</i>
   <i name="EDIFFG">      0.00050000</i>
   <i type="int" name="NFREE">     0</i>
   <i name="POTIM">      0.50000000</i>
   <i name="SMASS">     -3.00000000</i>
   <i name="SCALEE">      1.00000000</i>
  </separator>
  <separator name="ionic md" >
   <i name="TEBEG">      0.00010000</i>
   <i name="TEEND">      0.00010000</i>
   <i type="int" name="NBLOCK">     1</i>
   <i type="int" name="KBLOCK">     1</i>
   <i type="int" name="NPACO">   256</i>
   <i name="APACO">     16.00000000</i>
  </separator>
  <separator name="symmetry" >
   <i type="int" name="ISYM">     2</i>
   <i name="SYMPREC">      0.00001000</i>
  </separator>
  <separator name="dos" >
   <i type="int" name="LORBIT">    11</i>
   <v name="RWIGS">     -1.00000000</v>
   <i type="int" name="NEDOS">   301</i>
   <i name="EMIN">     10.00000000</i>
   <i name="EMAX">    -10.00000000</i>
   <i name="EFERMI">      0.00000000</i>
  </separator>
  <separator name="writing" >
   <i type="int" name="NWRITE">     2</i>
   <i type="logical" name="LWAVE"> F  </i>
   <i type="logical" name="LDOWNSAMPLE"> F  </i>
   <i type="logical" name="LCHARG"> T  </i>
   <i type="logical" name="LPARD"> F  </i>
   <i type="logical" name="LVTOT"> F  </i>
   <i type="logical" name="LVHAR"> F  </i>
   <i type="logical" name="LELF"> F  </i>
   <i type="logical" name="LOPTICS"> F  </i>
   <v name="STM">      0.00000000      0.00000000      0.00000000      0.00000000      0.00000000      0.00000000      0.00000000</v>
  </separator>
  <separator name="performance" >
   <i type="int" name="NPAR">    48</i>
   <i type="int" name="NSIM">     4</i>
   <i type="int" name="NBLK">    -1</i>
   <i type="logical" name="LPLANE"> T  </i>
   <i type="logical" name="LSCALAPACK"> T  </i>
   <i type="logical" name="LSCAAWARE"> T  </i>
   <i type="logical" name="LSCALU"> F  </i>
   <i type="logical" name="LASYNC"> F  </i>
   <i type="logical" name="LORBITALREAL"> F  </i>
  </separator>
  <separator name="miscellaneous" >
   <i type="int" name="IDIOT">     3</i>
   <i type="int" name="PHON_NSTRUCT">    -1</i>
   <i type="logical" name="LMUSIC"> F  </i>
   <v name="POMASS">     26.98100000</v>
   <v name="DARWINR">      0.00000000</v>
   <v name="DARWINV">      1.00000000</v>
   <i type="logical" name="LCORR"> T  </i>
  </separator>
  <i type="logical" name="GGA_COMPAT"> T  </i>
  <i type="logical" name="LBERRY"> F  </i>
  <i type="int" name="ICORELEVEL">     0</i>
  <i type="logical" name="LDAU"> F  </i>
  <i type="int" name="I_CONSTRAINED_M">     0</i>
  <separator name="electronic exchange-correlation" >
   <i type="string" name="GGA">--</i>
   <i type="int" name="VOSKOWN">     0</i>
   <i type="logical" name="LHFCALC"> F  </i>
   <i type="string" name="PRECFOCK"></i>
   <i type="logical" name="LSYMGRAD"> F  </i>
   <i type="logical" name="LHFONE"> F  </i>
   <i type="logical" name="LRHFCALC"> F  </i>
   <i type="logical" name="LTHOMAS"> F  </i>
   <i type="logical" name="LMODELHF"> F  </i>
   <i type="logical" name="LFOCKACE"> F  </i>
   <i name="ENCUT4O">     -1.00000000</i>
   <i type="int" name="EXXOEP">     0</i>
   <i type="int" name="FOURORBIT">     0</i>
   <i name="AEXX">      0.00000000</i>
   <i name="HFALPHA">      0.00000000</i>
   <i name="MCALPHA">      0.00000000</i>
   <i name="ALDAX">      1.00000000</i>
   <i name="AGGAX">      1.00000000</i>
   <i name="ALDAC">      1.00000000</i>
   <i name="AGGAC">      1.00000000</i>
   <i type="int" name="NKREDX">     1</i>
   <i type="int" name="NKREDY">     1</i>
   <i type="int" name="NKREDZ">     1</i>
   <i type="logical" name="SHIFTRED"> F  </i>
   <i type="logical" name="ODDONLY"> F  </i>
   <i type="logical" name="EVENONLY"> F  </i>
   <i type="int" name="LMAXFOCK">     0</i>
   <i type="int" name="NMAXFOCKAE">     0</i>
   <i type="logical" name="LFOCKAEDFT"> F  </i>
   <i name="HFSCREEN">      0.00000000</i>
   <i name="HFSCREENC">      0.00000000</i>
   <i type="int" name="NBANDSGWLOW">     0</i>
  </separator>
  <separator name="vdW DFT" >
   <i type="logical" name="LUSE_VDW"> F  </i>
   <i name="Zab_VDW">     -0.84910000</i>
   <i name="PARAM1">      0.12340000</i>
   <i name="PARAM2">      1.00000000</i>
   <i name="PARAM3">      0.00000000</i>
  </separator>
  <separator name="model GW" >
   <i type="int" name="MODEL_GW">     0</i>
   <i name="MODEL_EPS0">      9.94976379</i>
   <i name="MODEL_ALPHA">      1.00000000</i>
  </separator>
  <separator name="linear response parameters" >
   <i type="logical" name="LEPSILON"> F  </i>
   <i type="logical" name="LRPA"> F  </i>
   <i type="logical" name="LNABLA"> F  </i>
   <i type="logical" name="LVEL"> F  </i>
   <i type="int" name="KINTER">     0</i>
   <i name="CSHIFT">      0.10000000</i>
   <i name="OMEGAMAX">     -1.00000000</i>
   <i name="DEG_THRESHOLD">      0.00200000</i>
   <i name="RTIME">     -0.10000000</i>
   <i name="WPLASMAI">      0.00000000</i>
   <v name="DFIELD">      0.00000000      0.00000000      0.00000000</v>
   <v name="WPLASMA">      0.00000000      0.00000000      0.00000000      0.00000000      0.00000000      0.00000000      0.00000000      0.00000000      0.00000000</v>
  </separator>
  <separator name="orbital magnetization" >
   <i type="logical" name="NUCIND"> F  </i>
   <v name="MAGPOS">      0.00000000      0.00000000      0.00000000</v>
   <i type="logical" name="LNICSALL"> T  </i>
   <i type="logical" name="ORBITALMAG"> F  </i>
   <i type="logical" name="LMAGBLOCH"> F  </i>
   <i type="logical" name="LCHIMAG"> F  </i>
   <i type="logical" name="LGAUGE"> T  </i>
   <i type="int" name="MAGATOM">     0</i>
   <v name="MAGDIPOL">      0.00000000      0.00000000      0.00000000</v>
   <v name="AVECCONST">      0.00000000      0.00000000      0.00000000</v>
  </separator>
  <separator name="response functions" >
   <i type="logical" name="LFINITE_TEMPERATURE"> F  </i>
   <i type="logical" name="LADDER"> F  </i>
   <i type="logical" name="LRPAFORCE"> F  </i>
   <i type="logical" name="LFXC"> F  </i>
   <i type="logical" name="LHARTREE"> T  </i>
   <i type="int" name="IBSE">     0</i>
   <v type="int" name="KPOINT">    -1     0     0     0</v>
   <i type="logical" name="LTCTC"> F  </i>
   <i type="logical" name="LTCTE"> F  </i>
   <i type="logical" name="LTETE"> F  </i>
   <i type="logical" name="LTRIPLET"> F  </i>
   <i type="logical" name="LFXCEPS"> F  </i>
   <i type="logical" name="LFXHEG"> F  </i>
   <i type="int" name="NATURALO">     2</i>
   <i type="logical" name="LHOLEGF"> F  </i>
   <i type="logical" name="L2ORDER"> F  </i>
   <i type="logical" name="LDMP1"> F  </i>
   <i type="logical" name="LMP2LT"> F  </i>
   <i type="logical" name="LSMP2LT"> F  </i>
   <i type="logical" name="LGWLF"> F  </i>
   <i name="ENCUTGW">     -2.00000000</i>
   <i name="ENCUTGWSOFT">     -2.00000000</i>
   <i name="ENCUTLF">     -1.00000000</i>
   <i type="logical" name="LESF_SPLINES"> F  </i>
   <i type="int" name="LMAXMP2">    -1</i>
   <i name="SCISSOR">      0.00000000</i>
   <i type="int" name="NOMEGA">     0</i>
   <i type="int" name="NOMEGAR">     0</i>
   <i type="int" name="NBANDSGW">    -1</i>
   <i type="int" name="NBANDSO">    -1</i>
   <i type="int" name="NBANDSV">    -1</i>
   <i type="int" name="NELM">   100</i>
   <i type="int" name="NELMHF">     1</i>
   <i type="int" name="DIM">     3</i>
   <i type="int" name="IESPILON">     4</i>
   <i type="int" name="ANTIRES">     0</i>
   <i name="OMEGAMAX">    -30.00000000</i>
   <i name="OMEGAMIN">    -30.00000000</i>
   <i name="OMEGATL">   -200.00000000</i>
   <i type="int" name="OMEGAGRID">     0</i>
   <i name="CSHIFT">     -0.10000000</i>
   <i type="logical" name="LSELFENERGY"> F  </i>
   <i type="logical" name="LSPECTRAL"> F  </i>
   <i type="logical" name="LSPECTRALGW"> F  </i>
   <i type="logical" name="LSINGLES"> F  </i>
   <i type="logical" name="LFERMIGW"> F  </i>
   <i type="logical" name="ODDONLYGW"> F  </i>
   <i type="logical" name="EVENONLYGW"> F  </i>
   <i type="int" name="NKREDLFX">     1</i>
   <i type="int" name="NKREDLFY">     1</i>
   <i type="int" name="NKREDLFZ">     1</i>
   <i type="int" name="MAXMEM">  2800</i>
   <i type="int" name="TELESCOPE">     0</i>
   <i type="int" name="NTAUPAR">    -1</i>
   <i type="int" name="NOMEGAPAR">    -1</i>
   <i name="DAMP_NEWTON">      0.80000001</i>
   <i name="LAMBDA">      1.00000000</i>
  </separator>
  <separator name="External order field" >
   <i name="OFIELD_KAPPA">      0.00000000</i>
   <v name="OFIELD_K">      0.00000000      0.00000000      0.00000000</v>
   <i name="OFIELD_Q6_NEAR">      0.00000000</i>
   <i name="OFIELD_Q6_FAR">      0.00000000</i>
   <i name="OFIELD_A">      0.00000000</i>
  </separator>
 </parameters>
 <atominfo>
  <atoms>       1 </atoms>
  <types>       1 </types>
  <array name="atoms" >
   <dimension dim="1">ion</dimension>
   <field type="string">element</field>
   <field type="int">atomtype</field>
   <set>
    <rc><c>Al</c><c>   1</c></rc>
   </set>
  </array>
  <array name="atomtypes" >
   <dimension dim="1">type</dimension>
   <field type="int">atomspertype</field>
   <field type="string">element</field>
   <field>mass</field>
   <field>valence</field>
   <field type="string">pseudopotential</field>
   <set>
    <rc><c>   1</c><c>Al</c><c>     26.98100000</c><c>      3.00000000</c><c>  PAW_PBE Al 04Jan2001                  </c></rc>
   </set>
  </array>
 </atominfo>
 <structure name="initialpos" >
  <crystal>
   <varray name="basis" >
    <v>       0.00000000       2.02400000       2.02400000 </v>
    <v>       2.02400000       0.00000000       2.02400000 </v>
    <v>       2.02400000       2.02400000       0.00000000 </v>
   </varray>
   <i name="volume">     16.58293965 </i>
   <varray name="rec_basis" >
    <v>      -0.24703557       0.24703557       0.24703557 </v>
    <v>       0.24703557      -0.24703557       0.24703557 </v>
    <v>       0.24703557       0.24703557      -0.24703557 </v>
   </varray>
  </crystal>
  <varray name="positions" >
   <v>       0.00000000       0.00000000       0.00000000 </v>
  </varray>
 </structure>
 <calculation>
  <scstep>
   <time name="dav">   17.73   17.73</time>
   <time name="total">   18.01   18.02</time>
   <energy>
    <i name="alphaZ">     -0.20254611 </i>
    <i name="ewald">    -73.39295237 </i>
    <i name="hartreedc">     -0.10329695 </i>
    <i name="XCdc">    -26.19545267 </i>
    <i name="pawpsdc">     66.16230985 </i>
    <i name="pawaedc">    -34.20858819 </i>
    <i name="eentropy">      0.00000000 </i>
    <i name="bandstr">     10.76955806 </i>
    <i name="atom">     53.53845706 </i>
    <i name="e_fr_energy">     -3.63251132 </i>
    <i name="e_wo_entrp">     -3.63251132 </i>
    <i name="e_0_energy">     -3.63251132 </i>
   </energy>
  </scstep>
  <scstep>
   <time name="dav">   14.15   14.15</time>
   <time name="total">   14.24   14.24</time>
   <energy>
    <i name="e_fr_energy">     -3.68266038 </i>
    <i name="e_wo_entrp">     -3.68266038 </i>
    <i name="e_0_energy">     -3.68266038 </i>
   </energy>
  </scstep>
  <scstep>
   <time name="dav">   26.19   26.18</time>
   <time name="total">   26.27   26.27</time>
   <energy>
    <i name="e_fr_energy">     -3.68266254 </i>
    <i name="e_wo_entrp">     -3.68266254 </i>
    <i name="e_0_energy">     -3.68266254 </i>
   </energy>
  </scstep>
  <scstep>
   <time name="dav">   20.26   20.26</time>
   <time name="total">   20.35   20.35</time>
   <energy>
    <i name="e_fr_energy">     -3.68266254 </i>
    <i name="e_wo_entrp">     -3.68266254 </i>
    <i name="e_0_energy">     -3.68266254 </i>
   </energy>
  </scstep>
  <scstep>
   <time name="dav">   25.73   25.73</time>
   <time name="total">   25.89   25.89</time>
   <energy>
    <i name="e_fr_energy">     -3.68266254 </i>
    <i name="e_wo_entrp">     -3.68266254 </i>
    <i name="e_0_energy">     -3.68266254 </i>
   </energy>
  </scstep>
  <scstep>
   <time name="diag">    0.78    0.78</time>
   <time name="diis">    0.37    0.37</time>
   <time name="orth">    0.11    0.11</time>
   <time name="total">    1.57    1.57</time>
   <energy>
    <i name="e_fr_energy">     -3.74915032 </i>
    <i name="e_wo_entrp">     -3.74915032 </i>
    <i name="e_0_energy">     -3.74915032 </i>
   </energy>
  </scstep>
  <scstep>
   <time name="diag">    0.76    0.76</time>
   <time name="diis">    0.42    0.42</time>
   <time name="orth">    0.14    0.14</time>
   <time name="total">    1.64    1.64</time>
   <energy>
    <i name="e_fr_energy">     -3.74054789 </i>
    <i name="e_wo_entrp">     -3.74054789 </i>
    <i name="e_0_energy">     -3.74054789 </i>
   </energy>
  </scstep>
  <scstep>
   <time name="diag">    0.78    0.78</time>
   <time name="diis">    0.45    0.45</time>
   <time name="orth">    0.11    0.11</time>
   <time name="total">    1.65    1.65</time>
   <energy>
    <i name="e_fr_energy">     -3.74034975 </i>
    <i name="e_wo_entrp">     -3.74034975 </i>
    <i name="e_0_energy">     -3.74034975 </i>
   </energy>
  </scstep>
  <scstep>
   <time name="diag">    0.81    0.81</time>
   <time name="diis">    0.54    0.54</time>
   <time name="orth">    0.11    0.11</time>
   <time name="total">    1.69    1.69</time>
   <energy>
    <i name="alphaZ">     -0.20254611 </i>
    <i name="ewald">    -73.39295237 </i>
    <i name="hartreedc">     -0.10502876 </i>
    <i name="XCdc">    -26.14011413 </i>
    <i name="pawpsdc">    145.44284259 </i>
    <i name="pawaedc">   -113.49773731 </i>
    <i name="eentropy">      0.00000000 </i>
    <i name="bandstr">     10.61673960 </i>
    <i name="atom">     53.53845706 </i>
    <i name="e_fr_energy">     -3.74033943 </i>
    <i name="e_wo_entrp">     -3.74033943 </i>
    <i name="e_0_energy">     -3.74033943 </i>
   </energy>
  </scstep>
  <structure>
   <crystal>
    <varray name="basis" >
     <v>       0.00000000       2.02400000       2.02400000 </v>
     <v>       2.02400000       0.00000000       2.02400000 </v>
     <v>       2.02400000       2.02400000       0.00000000 </v>
    </varray>
    <i name="volume">     16.58293965 </i>
    <varray name="rec_basis" >
     <v>      -0.24703557       0.24703557       0.24703557 </v>
     <v>       0.24703557      -0.24703557       0.24703557 </v>
     <v>       0.24703557       0.24703557      -0.24703557 </v>
    </varray>
   </crystal>
   <varray name="positions" >
    <v>       0.00000000       0.00000000       0.00000000 </v>
   </varray>
  </structure>
  <varray name="forces" >
   <v>       0.00000000      -0.00000000       0.00000000 </v>
  </varray>
  <varray name="stress" >
   <v>     -10.44319697      -0.00000000       0.00000000 </v>
   <v>      -0.00000000     -10.44319697       0.00000000 </v>
   <v>       0.00000000      -0.00000000     -10.44319697 </v>
  </varray>
  <energy>
   <i name="e_fr_energy">     -3.74033943 </i>
   <i name="e_wo_entrp">     -3.74033943 </i>
   <i name="e_0_energy">     -3.74033943 </i>
  </energy>
  <time name="totalsc">  112.10  112.11</time>
  <eigenvalues>
   <array>
    <dimension dim="1">band</dimension>
    <dimension dim="2">kpoint</dimension>
    <dimension dim="3">spin</dimension>
    <field>eigene</field>
    <field>occ</field>
    <set>
     <set comment="spin 1">
      <set comment="kpoint 1">
       <r>   -3.1516    1.0000 </r>
       <r>   20.5400    0.0000 </r>
       <r>   20.5400    0.0000 </r>
       <r>   20.5400    0.0000 </r>
       <r>   21.9945    0.0000 </r>
       <r>   21.9945    0.0000 </r>
       <r>   21.9945    0.0000 </r>
       <r>   24.3774    0.0000 </r>
       <r>   27.3147    0.0000 </r>
       <r>   27.3147    0.0000 </r>
       <r>   30.1605    0.0000 </r>
       <r>   32.5107    0.0000 </r>
       <r>   32.5107    0.0000 </r>
       <r>   32.5107    0.0000 </r>
       <r>   41.0619    0.0000 </r>
       <r>   56.0145    0.0000 </r>
       <r>   56.0145    0.0000 </r>
       <r>   56.0145    0.0000 </r>
       <r>   56.0499    0.0000 </r>
       <r>   59.2130    0.0000 </r>
       <r>   59.2130    0.0000 </r>
       <r>   59.2130    0.0000 </r>
       <r>   62.8335    0.0000 </r>
       <r>   62.8335    0.0000 </r>
       <r>   65.0771    0.0000 </r>
       <r>   65.0771    0.0000 </r>
       <r>   65.0771    0.0000 </r>
       <r>   73.1775    0.0000 </r>
       <r>   73.1775    0.0000 </r>
       <r>   73.1775    0.0000 </r>
       <r>   80.8188    0.0000 </r>
       <r>   83.0771    0.0000 </r>
       <r>   83.0771    0.0000 </r>
       <r>   87.2056    0.0000 </r>
       <r>   87.2056    0.0000 </r>
       <r>   87.2056    0.0000 </r>
       <r>   90.0889    0.0000 </r>
       <r>   90.0889    0.0000 </r>
       <r>   90.0889    0.0000 </r>
       <r>   90.8971    0.0000 </r>
       <r>   93.4599    0.0000 </r>
       <r>   93.4599    0.0000 </r>
       <r>   93.4599    0.0000 </r>
       <r>   93.9352    0.0000 </r>
       <r>   93.9352    0.0000 </r>
       <r>   93.9352    0.0000 </r>
       <r>   96.3742    0.0000 </r>
       <r>   96.3742    0.0000 </r>
      </set>
      <set comment="kpoint 2">
       <r>   -3.0134    1.0000 </r>
       <r>   18.3990    0.0000 </r>
       <r>   20.0765    0.0000 </r>
       <r>   20.0765    0.0000 </r>
       <r>   22.6481    0.0000 </r>
       <r>   22.6709    0.0000 </r>
       <r>   22.6709    0.0000 </r>
       <r>   25.7679    0.0000 </r>
       <r>   26.5608    0.0000 </r>
       <r>   26.5608    0.0000 </r>
       <r>   29.6672    0.0000 </r>
       <r>   33.2057    0.0000 </r>
       <r>   33.5437    0.0000 </r>
       <r>   33.5437    0.0000 </r>
       <r>   41.6135    0.0000 </r>
       <r>   55.5020    0.0000 </r>
       <r>   55.8334    0.0000 </r>
       <r>   55.8334    0.0000 </r>
       <r>   56.3081    0.0000 </r>
       <r>   57.7950    0.0000 </r>
       <r>   57.7950    0.0000 </r>
       <r>   59.2176    0.0000 </r>
       <r>   61.6964    0.0000 </r>
       <r>   61.6964    0.0000 </r>
       <r>   65.2010    0.0000 </r>
       <r>   67.9164    0.0000 </r>
       <r>   67.9164    0.0000 </r>
       <r>   72.0664    0.0000 </r>
       <r>   73.0504    0.0000 </r>
       <r>   73.0504    0.0000 </r>
       <r>   82.0503    0.0000 </r>
       <r>   82.3247    0.0000 </r>
       <r>   82.3247    0.0000 </r>
       <r>   84.6264    0.0000 </r>
       <r>   86.2304    0.0000 </r>
       <r>   86.2304    0.0000 </r>
       <r>   88.6611    0.0000 </r>
       <r>   88.6611    0.0000 </r>
       <r>   89.9675    0.0000 </r>
       <r>   90.2182    0.0000 </r>
       <r>   91.7459    0.0000 </r>
       <r>   91.7459    0.0000 </r>
       <r>   92.5355    0.0000 </r>
       <r>   95.3199    0.0000 </r>
       <r>   95.3199    0.0000 </r>
       <r>   96.3287    0.0000 </r>
       <r>   96.3287    0.0000 </r>
       <r>   96.5236    0.0000 </r>
      </set>
      <set comment="kpoint 3">
       <r>   -2.5995    1.0000 </r>
       <r>   15.5205    0.0000 </r>
       <r>   19.4403    0.0000 </r>
       <r>   19.4403    0.0000 </r>
       <r>   22.5630    0.0000 </r>
       <r>   23.7942    0.0000 </r>
       <r>   23.7942    0.0000 </r>
       <r>   25.2965    0.0000 </r>
       <r>   25.2965    0.0000 </r>
       <r>   28.4774    0.0000 </r>
       <r>   28.5833    0.0000 </r>
       <r>   35.0338    0.0000 </r>
       <r>   35.7860    0.0000 </r>
       <r>   35.7860    0.0000 </r>
       <r>   43.0796    0.0000 </r>
       <r>   53.6409    0.0000 </r>
       <r>   53.6409    0.0000 </r>
       <r>   54.5554    0.0000 </r>
       <r>   56.4662    0.0000 </r>
       <r>   56.4891    0.0000 </r>
       <r>   56.4891    0.0000 </r>
       <r>   59.0795    0.0000 </r>
       <r>   61.5791    0.0000 </r>
       <r>   61.5791    0.0000 </r>
       <r>   65.5692    0.0000 </r>
       <r>   70.0125    0.0000 </r>
       <r>   71.1078    0.0000 </r>
       <r>   71.1078    0.0000 </r>
       <r>   73.0122    0.0000 </r>
       <r>   73.0122    0.0000 </r>
       <r>   80.1042    0.0000 </r>
       <r>   80.1042    0.0000 </r>
       <r>   80.4786    0.0000 </r>
       <r>   84.2589    0.0000 </r>
       <r>   84.2589    0.0000 </r>
       <r>   85.5450    0.0000 </r>
       <r>   86.5515    0.0000 </r>
       <r>   86.7568    0.0000 </r>
       <r>   86.7568    0.0000 </r>
       <r>   89.4079    0.0000 </r>
       <r>   89.7384    0.0000 </r>
       <r>   90.4303    0.0000 </r>
       <r>   90.4303    0.0000 </r>
       <r>   94.0159    0.0000 </r>
       <r>   96.8118    0.0000 </r>
       <r>   96.8118    0.0000 </r>
       <r>   98.6465    0.0000 </r>
       <r>   98.6465    0.0000 </r>
      </set>
      <set comment="kpoint 4">
       <r>   -1.9124    1.0000 </r>
       <r>   12.7176    0.0000 </r>
       <r>   18.9735    0.0000 </r>
       <r>   18.9735    0.0000 </r>
       <r>   22.3386    0.0000 </r>
       <r>   23.2982    0.0000 </r>
       <r>   23.2982    0.0000 </r>
       <r>   25.9250    0.0000 </r>
       <r>   25.9250    0.0000 </r>
       <r>   27.3001    0.0000 </r>
       <r>   31.1970    0.0000 </r>
       <r>   37.7778    0.0000 </r>
       <r>   38.5116    0.0000 </r>
       <r>   38.5116    0.0000 </r>
       <r>   45.1293    0.0000 </r>
       <r>   50.0880    0.0000 </r>
       <r>   50.0880    0.0000 </r>
       <r>   53.2195    0.0000 </r>
       <r>   56.3736    0.0000 </r>
       <r>   56.3736    0.0000 </r>
       <r>   56.6215    0.0000 </r>
       <r>   58.5955    0.0000 </r>
       <r>   61.8795    0.0000 </r>
       <r>   61.8795    0.0000 </r>
       <r>   66.1674    0.0000 </r>
       <r>   67.9840    0.0000 </r>
       <r>   70.2347    0.0000 </r>
       <r>   70.2347    0.0000 </r>
       <r>   74.5295    0.0000 </r>
       <r>   74.5295    0.0000 </r>
       <r>   77.6699    0.0000 </r>
       <r>   78.6935    0.0000 </r>
       <r>   78.6935    0.0000 </r>
       <r>   81.6175    0.0000 </r>
       <r>   81.6175    0.0000 </r>
       <r>   82.8880    0.0000 </r>
       <r>   83.4555    0.0000 </r>
       <r>   86.8205    0.0000 </r>
       <r>   86.8205    0.0000 </r>
       <r>   88.5994    0.0000 </r>
       <r>   89.4786    0.0000 </r>
       <r>   89.7776    0.0000 </r>
       <r>   89.7776    0.0000 </r>
       <r>   93.5927    0.0000 </r>
       <r>   97.3447    0.0000 </r>
       <r>   97.3447    0.0000 </r>
       <r>  100.4806    0.0000 </r>
       <r>  100.4806    0.0000 </r>
      </set>
      <set comment="kpoint 5">
       <r>   -0.9560    1.0000 </r>
       <r>   10.0850   -0.0096 </r>
       <r>   18.7225    0.0000 </r>
       <r>   18.7225    0.0000 </r>
       <r>   22.0344    0.0000 </r>
       <r>   22.0344    0.0000 </r>
       <r>   22.2145    0.0000 </r>
       <r>   26.0201    0.0000 </r>
       <r>   27.7067    0.0000 </r>
       <r>   27.7067    0.0000 </r>
       <r>   33.7734    0.0000 </r>
       <r>   41.1607    0.0000 </r>
       <r>   41.3335    0.0000 </r>
       <r>   41.3335    0.0000 </r>
       <r>   46.8437    0.0000 </r>
       <r>   46.8437    0.0000 </r>
       <r>   47.4442    0.0000 </r>
       <r>   51.6266    0.0000 </r>
       <r>   56.3456    0.0000 </r>
       <r>   56.3456    0.0000 </r>
       <r>   56.8108    0.0000 </r>
       <r>   57.7373    0.0000 </r>
       <r>   62.2096    0.0000 </r>
       <r>   62.2096    0.0000 </r>
       <r>   65.9544    0.0000 </r>
       <r>   66.9636    0.0000 </r>
       <r>   67.2260    0.0000 </r>
       <r>   67.2260    0.0000 </r>
       <r>   74.2900    0.0000 </r>
       <r>   74.2900    0.0000 </r>
       <r>   75.1478    0.0000 </r>
       <r>   77.7021    0.0000 </r>
       <r>   78.9106    0.0000 </r>
       <r>   78.9106    0.0000 </r>
       <r>   79.9637    0.0000 </r>
       <r>   79.9637    0.0000 </r>
       <r>   80.7129    0.0000 </r>
       <r>   88.6221    0.0000 </r>
       <r>   88.6221    0.0000 </r>
       <r>   88.7021    0.0000 </r>
       <r>   89.4317    0.0000 </r>
       <r>   89.4317    0.0000 </r>
       <r>   91.2929    0.0000 </r>
       <r>   93.0871    0.0000 </r>
       <r>   97.6141    0.0000 </r>
       <r>   97.6141    0.0000 </r>
       <r>  101.5408    0.0000 </r>
       <r>  102.8360    0.0000 </r>
      </set>
      <set comment="kpoint 6">
       <r>    0.2646    1.0000 </r>
       <r>    7.6566    0.6552 </r>
       <r>   18.6983    0.0000 </r>
       <r>   18.6983    0.0000 </r>
       <r>   20.9192    0.0000 </r>
       <r>   20.9192    0.0000 </r>
       <r>   22.2790    0.0000 </r>
       <r>   24.8565    0.0000 </r>
       <r>   29.7040    0.0000 </r>
       <r>   29.7040    0.0000 </r>
       <r>   36.2294    0.0000 </r>
       <r>   42.0654    0.0000 </r>
       <r>   42.0654    0.0000 </r>
       <r>   44.7321    0.0000 </r>
       <r>   46.2328    0.0000 </r>
       <r>   46.2328    0.0000 </r>
       <r>   48.4116    0.0000 </r>
       <r>   51.5490    0.0000 </r>
       <r>   56.2881    0.0000 </r>
       <r>   56.2881    0.0000 </r>
       <r>   56.5273    0.0000 </r>
       <r>   57.0378    0.0000 </r>
       <r>   61.5491    0.0000 </r>
       <r>   61.5491    0.0000 </r>
       <r>   63.9229    0.0000 </r>
       <r>   64.5137    0.0000 </r>
       <r>   64.5137    0.0000 </r>
       <r>   67.8832    0.0000 </r>
       <r>   70.1610    0.0000 </r>
       <r>   73.8609    0.0000 </r>
       <r>   73.8609    0.0000 </r>
       <r>   76.5602    0.0000 </r>
       <r>   77.1144    0.0000 </r>
       <r>   77.1144    0.0000 </r>
       <r>   78.4033    0.0000 </r>
       <r>   80.4174    0.0000 </r>
       <r>   80.4174    0.0000 </r>
       <r>   88.5483    0.0000 </r>
       <r>   89.1461    0.0000 </r>
       <r>   89.1461    0.0000 </r>
       <r>   90.5735    0.0000 </r>
       <r>   91.7257    0.0000 </r>
       <r>   91.7257    0.0000 </r>
       <r>   94.1761    0.0000 </r>
       <r>   98.8023    0.0000 </r>
       <r>   98.8023    0.0000 </r>
       <r>  102.2009    0.0000 </r>
       <r>  104.0678    0.0000 </r>
      </set>
      <set comment="kpoint 7">
       <r>    1.7423    1.0000 </r>
       <r>    5.4511    1.0000 </r>
       <r>   18.9046    0.0000 </r>
       <r>   18.9046    0.0000 </r>
       <r>   20.0192    0.0000 </r>
       <r>   20.0192    0.0000 </r>
       <r>   22.5694    0.0000 </r>
       <r>   23.8739    0.0000 </r>
       <r>   31.6492    0.0000 </r>
       <r>   31.6492    0.0000 </r>
       <r>   38.4084    0.0000 </r>
       <r>   39.8954    0.0000 </r>
       <r>   39.8954    0.0000 </r>
       <r>   46.2402    0.0000 </r>
       <r>   48.7027    0.0000 </r>
       <r>   49.1787    0.0000 </r>
       <r>   49.1787    0.0000 </r>
       <r>   54.3316    0.0000 </r>
       <r>   54.9366    0.0000 </r>
       <r>   55.9128    0.0000 </r>
       <r>   55.9128    0.0000 </r>
       <r>   57.3733    0.0000 </r>
       <r>   58.7284    0.0000 </r>
       <r>   58.7284    0.0000 </r>
       <r>   62.2433    0.0000 </r>
       <r>   64.1869    0.0000 </r>
       <r>   64.1869    0.0000 </r>
       <r>   65.0776    0.0000 </r>
       <r>   68.7363    0.0000 </r>
       <r>   73.6388    0.0000 </r>
       <r>   73.6388    0.0000 </r>
       <r>   75.8111    0.0000 </r>
       <r>   75.8111    0.0000 </r>
       <r>   76.7160    0.0000 </r>
       <r>   76.7608    0.0000 </r>
       <r>   80.5336    0.0000 </r>
       <r>   80.5336    0.0000 </r>
       <r>   88.5499    0.0000 </r>
       <r>   88.9291    0.0000 </r>
       <r>   88.9291    0.0000 </r>
       <r>   89.5013    0.0000 </r>
       <r>   94.2804    0.0000 </r>
       <r>   94.4720    0.0000 </r>
       <r>   94.4720    0.0000 </r>
       <r>  100.7654    0.0000 </r>
       <r>  100.7654    0.0000 </r>
       <r>  104.4111    0.0000 </r>
       <r>  104.4220    0.0000 </r>
      </set>
      <set comment="kpoint 8">
       <r>    3.3749    1.0000 </r>
       <r>    3.5755    1.0000 </r>
       <r>   19.3051    0.0000 </r>
       <r>   19.3051    0.0000 </r>
       <r>   19.3864    0.0000 </r>
       <r>   19.3864    0.0000 </r>
       <r>   23.0426    0.0000 </r>
       <r>   23.1652    0.0000 </r>
       <r>   32.6713    0.0000 </r>
       <r>   32.6713    0.0000 </r>
       <r>   38.6894    0.0000 </r>
       <r>   38.6894    0.0000 </r>
       <r>   39.4852    0.0000 </r>
       <r>   45.4041    0.0000 </r>
       <r>   50.5666    0.0000 </r>
       <r>   51.5341    0.0000 </r>
       <r>   51.5341    0.0000 </r>
       <r>   53.4986    0.0000 </r>
       <r>   54.6494    0.0000 </r>
       <r>   54.6494    0.0000 </r>
       <r>   56.2422    0.0000 </r>
       <r>   57.4996    0.0000 </r>
       <r>   57.4996    0.0000 </r>
       <r>   58.4210    0.0000 </r>
       <r>   60.6120    0.0000 </r>
       <r>   62.6279    0.0000 </r>
       <r>   64.2741    0.0000 </r>
       <r>   64.2741    0.0000 </r>
       <r>   69.1232    0.0000 </r>
       <r>   73.5790    0.0000 </r>
       <r>   73.5790    0.0000 </r>
       <r>   75.3330    0.0000 </r>
       <r>   75.3330    0.0000 </r>
       <r>   76.0517    0.0000 </r>
       <r>   76.9481    0.0000 </r>
       <r>   80.5442    0.0000 </r>
       <r>   80.5442    0.0000 </r>
       <r>   88.6868    0.0000 </r>
       <r>   88.8481    0.0000 </r>
       <r>   88.8481    0.0000 </r>
       <r>   88.9406    0.0000 </r>
       <r>   94.1317    0.0000 </r>
       <r>   95.5453    0.0000 </r>
       <r>   95.5453    0.0000 </r>
       <r>  101.3584    0.0000 </r>
       <r>  101.3584    0.0000 </r>
       <r>  107.1798    0.0000 </r>
       <r>  107.1798    0.0000 </r>
      </set>
      <set comment="kpoint 9">
       <r>   -2.9673    1.0000 </r>
       <r>   19.1113    0.0000 </r>
       <r>   19.1113    0.0000 </r>
       <r>   19.4110    0.0000 </r>
       <r>   21.5640    0.0000 </r>
       <r>   23.6921    0.0000 </r>
       <r>   23.6921    0.0000 </r>
       <r>   25.2394    0.0000 </r>
       <r>   25.8746    0.0000 </r>
       <r>   27.4853    0.0000 </r>
       <r>   30.3288    0.0000 </r>
       <r>   32.7224    0.0000 </r>
       <r>   32.7224    0.0000 </r>
       <r>   34.7412    0.0000 </r>
       <r>   41.8553    0.0000 </r>
       <r>   55.5705    0.0000 </r>
       <r>   55.5966    0.0000 </r>
       <r>   55.5966    0.0000 </r>
       <r>   56.4379    0.0000 </r>
       <r>   57.8682    0.0000 </r>
       <r>   57.8682    0.0000 </r>
       <r>   59.0719    0.0000 </r>
       <r>   59.3341    0.0000 </r>
       <r>   62.8014    0.0000 </r>
       <r>   66.7518    0.0000 </r>
       <r>   66.7518    0.0000 </r>
       <r>   69.0822    0.0000 </r>
       <r>   71.2591    0.0000 </r>
       <r>   73.3442    0.0000 </r>
       <r>   73.3442    0.0000 </r>
       <r>   81.1541    0.0000 </r>
       <r>   82.7395    0.0000 </r>
       <r>   83.3045    0.0000 </r>
       <r>   84.1254    0.0000 </r>
       <r>   84.1254    0.0000 </r>
       <r>   84.6402    0.0000 </r>
       <r>   89.9167    0.0000 </r>
       <r>   89.9167    0.0000 </r>
       <r>   89.9355    0.0000 </r>
       <r>   90.7202    0.0000 </r>
       <r>   90.7202    0.0000 </r>
       <r>   92.1511    0.0000 </r>
       <r>   92.6448    0.0000 </r>
       <r>   93.7524    0.0000 </r>
       <r>   94.3053    0.0000 </r>
       <r>   97.1497    0.0000 </r>
       <r>   97.1497    0.0000 </r>
       <r>   98.7783    0.0000 </r>
      </set>
      <set comment="kpoint 10">
       <r>   -2.6454    1.0000 </r>
       <r>   16.5345    0.0000 </r>
       <r>   18.3237    0.0000 </r>
       <r>   19.4888    0.0000 </r>
       <r>   21.8424    0.0000 </r>
       <r>   23.5501    0.0000 </r>
       <r>   24.0824    0.0000 </r>
       <r>   24.8991    0.0000 </r>
       <r>   26.9761    0.0000 </r>
       <r>   28.0736    0.0000 </r>
       <r>   29.9175    0.0000 </r>
       <r>   33.9486    0.0000 </r>
       <r>   34.0213    0.0000 </r>
       <r>   36.5473    0.0000 </r>
       <r>   43.1494    0.0000 </r>
       <r>   53.6383    0.0000 </r>
       <r>   54.1639    0.0000 </r>
       <r>   55.5965    0.0000 </r>
       <r>   56.0552    0.0000 </r>
       <r>   56.5156    0.0000 </r>
       <r>   56.9571    0.0000 </r>
       <r>   58.6965    0.0000 </r>
       <r>   59.3498    0.0000 </r>
       <r>   62.3095    0.0000 </r>
       <r>   67.4914    0.0000 </r>
       <r>   68.4932    0.0000 </r>
       <r>   70.5897    0.0000 </r>
       <r>   71.8293    0.0000 </r>
       <r>   72.8047    0.0000 </r>
       <r>   73.7225    0.0000 </r>
       <r>   79.3291    0.0000 </r>
       <r>   80.4434    0.0000 </r>
       <r>   81.5744    0.0000 </r>
       <r>   83.0581    0.0000 </r>
       <r>   83.1615    0.0000 </r>
       <r>   84.7053    0.0000 </r>
       <r>   86.5382    0.0000 </r>
       <r>   87.3970    0.0000 </r>
       <r>   89.2023    0.0000 </r>
       <r>   89.2633    0.0000 </r>
       <r>   91.2673    0.0000 </r>
       <r>   92.3560    0.0000 </r>
       <r>   93.5147    0.0000 </r>
       <r>   93.7564    0.0000 </r>
       <r>   94.4756    0.0000 </r>
       <r>   95.7586    0.0000 </r>
       <r>   97.5438    0.0000 </r>
       <r>   97.5454    0.0000 </r>
      </set>
      <set comment="kpoint 11">
       <r>   -2.0496    1.0000 </r>
       <r>   13.7253    0.0000 </r>
       <r>   17.7551    0.0000 </r>
       <r>   19.1737    0.0000 </r>
       <r>   21.7145    0.0000 </r>
       <r>   23.3096    0.0000 </r>
       <r>   23.9713    0.0000 </r>
       <r>   25.1386    0.0000 </r>
       <r>   26.9888    0.0000 </r>
       <r>   28.7195    0.0000 </r>
       <r>   30.8423    0.0000 </r>
       <r>   36.3453    0.0000 </r>
       <r>   36.6444    0.0000 </r>
       <r>   38.8543    0.0000 </r>
       <r>   45.1360    0.0000 </r>
       <r>   50.0224    0.0000 </r>
       <r>   51.4888    0.0000 </r>
       <r>   54.4770    0.0000 </r>
       <r>   55.7011    0.0000 </r>
       <r>   56.3206    0.0000 </r>
       <r>   56.9779    0.0000 </r>
       <r>   59.0237    0.0000 </r>
       <r>   59.0855    0.0000 </r>
       <r>   62.2615    0.0000 </r>
       <r>   67.0546    0.0000 </r>
       <r>   67.9717    0.0000 </r>
       <r>   70.8437    0.0000 </r>
       <r>   72.0042    0.0000 </r>
       <r>   73.1781    0.0000 </r>
       <r>   75.3845    0.0000 </r>
       <r>   76.5705    0.0000 </r>
       <r>   77.4754    0.0000 </r>
       <r>   80.4522    0.0000 </r>
       <r>   81.5726    0.0000 </r>
       <r>   81.8654    0.0000 </r>
       <r>   83.4314    0.0000 </r>
       <r>   85.4615    0.0000 </r>
       <r>   85.9678    0.0000 </r>
       <r>   86.7948    0.0000 </r>
       <r>   87.4546    0.0000 </r>
       <r>   89.6423    0.0000 </r>
       <r>   92.3899    0.0000 </r>
       <r>   92.4558    0.0000 </r>
       <r>   93.3198    0.0000 </r>
       <r>   94.9804    0.0000 </r>
       <r>   97.0935    0.0000 </r>
       <r>   98.6064    0.0000 </r>
       <r>   99.3285    0.0000 </r>
      </set>
      <set comment="kpoint 12">
       <r>   -1.1831    1.0000 </r>
       <r>   11.0445    0.0000 </r>
       <r>   17.4153    0.0000 </r>
       <r>   18.9036    0.0000 </r>
       <r>   20.3220    0.0000 </r>
       <r>   23.6921    0.0000 </r>
       <r>   23.9793    0.0000 </r>
       <r>   25.0758    0.0000 </r>
       <r>   27.5033    0.0000 </r>
       <r>   28.5869    0.0000 </r>
       <r>   33.4767    0.0000 </r>
       <r>   39.1406    0.0000 </r>
       <r>   39.9867    0.0000 </r>
       <r>   41.4491    0.0000 </r>
       <r>   46.5586    0.0000 </r>
       <r>   47.4923    0.0000 </r>
       <r>   48.3662    0.0000 </r>
       <r>   52.8492    0.0000 </r>
       <r>   55.7721    0.0000 </r>
       <r>   56.3157    0.0000 </r>
       <r>   57.0855    0.0000 </r>
       <r>   58.2408    0.0000 </r>
       <r>   59.5901    0.0000 </r>
       <r>   62.5818    0.0000 </r>
       <r>   65.0390    0.0000 </r>
       <r>   67.9459    0.0000 </r>
       <r>   68.1774    0.0000 </r>
       <r>   70.6390    0.0000 </r>
       <r>   72.3387    0.0000 </r>
       <r>   73.4017    0.0000 </r>
       <r>   77.2801    0.0000 </r>
       <r>   77.3358    0.0000 </r>
       <r>   77.8517    0.0000 </r>
       <r>   79.6742    0.0000 </r>
       <r>   80.6682    0.0000 </r>
       <r>   81.3242    0.0000 </r>
       <r>   83.2165    0.0000 </r>
       <r>   85.2933    0.0000 </r>
       <r>   87.1127    0.0000 </r>
       <r>   87.4298    0.0000 </r>
       <r>   91.6317    0.0000 </r>
       <r>   91.8547    0.0000 </r>
       <r>   92.2772    0.0000 </r>
       <r>   93.3923    0.0000 </r>
       <r>   95.1463    0.0000 </r>
       <r>   98.3527    0.0000 </r>
       <r>   99.5450    0.0000 </r>
       <r>  101.8868    0.0000 </r>
      </set>
      <set comment="kpoint 13">
       <r>   -0.0510    1.0000 </r>
       <r>    8.5522    0.1593 </r>
       <r>   17.3077    0.0000 </r>
[...]
        <r>  0.0000  0.0000  0.0000  0.2133  0.0000  0.0000  0.0000  0.0000  0.0000 </r>
       </set>
       <set comment="band 3">
        <r>  0.0742  0.1141  0.0089  0.0000  0.0000  0.0000  0.0000  0.0000  0.0000 </r>
       </set>
       <set comment="band 4">
        <r>  0.2891  0.0007  0.0999  0.0000  0.0000  0.0000  0.0000  0.0000  0.0000 </r>
       </set>
       <set comment="band 5">
        <r>  0.0000  0.0000  0.0000  0.1142  0.0000  0.0000  0.0000  0.0000  0.0000 </r>
       </set>
       <set comment="band 6">
        <r>  0.0109  0.3132  0.0288  0.0000  0.0000  0.0000  0.0000  0.0000  0.0000 </r>
       </set>
       <set comment="band 7">
        <r>  0.0797  0.0034  0.0188  0.0000  0.0000  0.0000  0.0000  0.0000  0.0000 </r>
       </set>
       <set comment="band 8">
        <r>  0.0264  0.0535  0.0591  0.0000  0.0000  0.0000  0.0000  0.0000  0.0000 </r>
       </set>
       <set comment="band 9">
        <r>  0.0000  0.0000  0.0000  0.0479  0.0000  0.0000  0.0000  0.0000  0.0000 </r>
       </set>
       <set comment="band 10">
        <r>  0.0019  0.0030  0.0191  0.0000  0.0000  0.0000  0.0000  0.0000  0.0000 </r>
       </set>
       <set comment="band 11">
        <r>  0.0000  0.0000  0.0000  0.0128  0.0000  0.0000  0.0000  0.0000  0.0000 </r>
       </set>
       <set comment="band 12">
        <r>  0.0951  0.0101  0.0700  0.0000  0.0000  0.0000  0.0000  0.0000  0.0000 </r>
       </set>
       <set comment="band 13">
        <r>  0.0000  0.0000  0.0000  0.1989  0.0000  0.0000  0.0000  0.0000  0.0000 </r>
       </set>
       <set comment="band 14">
        <r>  0.0121  0.0060  0.0731  0.0000  0.0000  0.0000  0.0000  0.0000  0.0000 </r>
       </set>
       <set comment="band 15">
        <r>  0.1318  0.0000  0.0446  0.0000  0.0000  0.0000  0.0000  0.0000  0.0000 </r>
       </set>
       <set comment="band 16">
        <r>  0.0000  0.0000  0.0000  0.0324  0.0000  0.0000  0.0000  0.0000  0.0000 </r>
       </set>
       <set comment="band 17">
        <r>  0.2665  0.1091  0.5443  0.0000  0.0000  0.0000  0.0000  0.0000  0.0000 </r>
       </set>
       <set comment="band 18">
        <r>  0.0000  0.0000  0.0000  0.1131  0.0000  0.0000  0.0000  0.0000  0.0000 </r>
       </set>
       <set comment="band 19">
        <r>  3.0864  1.3614  0.3233  0.0000  0.0000  0.0000  0.0000  0.0000  0.0000 </r>
       </set>
       <set comment="band 20">
        <r>  0.0000  0.0000  0.0000  1.9318  0.0000  0.0000  0.0000  0.0000  0.0000 </r>
       </set>
       <set comment="band 21">
        <r>  2.7723  1.2435  0.0031  0.0000  0.0000  0.0000  0.0000  0.0000  0.0000 </r>
       </set>
       <set comment="band 22">
        <r>  3.5914  0.1721  0.0032  0.0000  0.0000  0.0000  0.0000  0.0000  0.0000 </r>
       </set>
       <set comment="band 23">
        <r>  0.0788  0.2355  3.3865  0.0000  0.0000  0.0000  0.0000  0.0000  0.0000 </r>
       </set>
       <set comment="band 24">
        <r>  0.0000  0.0000  0.0000  2.6178  0.0000  0.0000  0.0000  0.0000  0.0000 </r>
       </set>
       <set comment="band 25">
        <r>  0.0168  0.5021  0.4738  0.0000  0.0000  0.0000  0.0000  0.0000  0.0000 </r>
       </set>
       <set comment="band 26">
        <r>  0.0000  0.0000  0.0000  0.0122  0.0000  0.0000  0.0000  0.0000  0.0000 </r>
       </set>
       <set comment="band 27">
        <r>  0.0000  0.2162  0.0002  0.0000  0.0000  0.0000  0.0000  0.0000  0.0000 </r>
       </set>
       <set comment="band 28">
        <r>  0.4527  0.1561  0.2053  0.0000  0.0000  0.0000  0.0000  0.0000  0.0000 </r>
       </set>
       <set comment="band 29">
        <r>  0.0000  0.0000  0.0000  0.3238  0.0000  0.0000  0.0000  0.0000  0.0000 </r>
       </set>
       <set comment="band 30">
        <r>  0.0216  1.3023  0.0016  0.0000  0.0000  0.0000  0.0000  0.0000  0.0000 </r>
       </set>
       <set comment="band 31">
        <r>  0.0000  0.0000  0.0000  0.1884  0.0000  0.0000  0.0000  0.0000  0.0000 </r>
       </set>
       <set comment="band 32">
        <r>  0.0067  0.0111  0.4757  0.0000  0.0000  0.0000  0.0000  0.0000  0.0000 </r>
       </set>
       <set comment="band 33">
        <r>  0.5122  0.0747  0.0337  0.0000  0.0000  0.0000  0.0000  0.0000  0.0000 </r>
       </set>
       <set comment="band 34">
        <r>  0.3805  0.0004  0.0156  0.0000  0.0000  0.0000  0.0000  0.0000  0.0000 </r>
       </set>
       <set comment="band 35">
        <r>  0.0000  0.0000  0.0000  0.0365  0.0000  0.0000  0.0000  0.0000  0.0000 </r>
       </set>
       <set comment="band 36">
        <r>  0.0247  0.0642  0.0658  0.0000  0.0000  0.0000  0.0000  0.0000  0.0000 </r>
       </set>
       <set comment="band 37">
        <r>  0.0000  0.0000  0.0000  0.3103  0.0000  0.0000  0.0000  0.0000  0.0000 </r>
       </set>
       <set comment="band 38">
        <r>  0.0414  0.0841  0.0967  0.0000  0.0000  0.0000  0.0000  0.0000  0.0000 </r>
       </set>
       <set comment="band 39">
        <r>  0.0000  0.0000  0.0000  0.0081  0.0000  0.0000  0.0000  0.0000  0.0000 </r>
       </set>
       <set comment="band 40">
        <r>  0.0037  0.0226  0.0050  0.0000  0.0000  0.0000  0.0000  0.0000  0.0000 </r>
       </set>
       <set comment="band 41">
        <r>  0.0182  0.0044  0.0062  0.0000  0.0000  0.0000  0.0000  0.0000  0.0000 </r>
       </set>
       <set comment="band 42">
        <r>  0.0000  0.0000  0.0000  0.0255  0.0000  0.0000  0.0000  0.0000  0.0000 </r>
       </set>
       <set comment="band 43">
        <r>  0.0993  0.0151  0.0224  0.0000  0.0000  0.0000  0.0000  0.0000  0.0000 </r>
       </set>
       <set comment="band 44">
        <r>  0.0000  0.0000  0.0000  0.0406  0.0000  0.0000  0.0000  0.0000  0.0000 </r>
       </set>
       <set comment="band 45">
        <r>  0.0000  0.0000  0.0000  0.0853  0.0000  0.0000  0.0000  0.0000  0.0000 </r>
       </set>
       <set comment="band 46">
        <r>  0.0279  0.2070  0.0212  0.0000  0.0000  0.0000  0.0000  0.0000  0.0000 </r>
       </set>
       <set comment="band 47">
        <r>  0.0264  0.0007  0.1039  0.0000  0.0000  0.0000  0.0000  0.0000  0.0000 </r>
       </set>
       <set comment="band 48">
        <r>  0.0000  0.0000  0.0000  0.0553  0.0000  0.0000  0.0000  0.0000  0.0000 </r>
       </set>
      </set>
      <set comment="kpoint 103">
       <set comment="band 1">
        <r>  0.0000  0.0432  0.0793  0.0793  0.0000  0.0000  0.0000  0.0000  0.0000 </r>
       </set>
       <set comment="band 2">
        <r>  0.1131  0.0000  0.0773  0.0773  0.0000  0.0000  0.0000  0.0000  0.0000 </r>
       </set>
       <set comment="band 3">
        <r>  0.0000  0.0926  0.0312  0.0312  0.0000  0.0000  0.0000  0.0000  0.0000 </r>
       </set>
       <set comment="band 4">
        <r>  0.3576  0.0000  0.0345  0.0345  0.0000  0.0000  0.0000  0.0000  0.0000 </r>
       </set>
       <set comment="band 5">
        <r>  0.0000  0.1633  0.0350  0.0350  0.0000  0.0000  0.0000  0.0000  0.0000 </r>
       </set>
       <set comment="band 6">
        <r>  0.0269  0.0000  0.0369  0.0369  0.0000  0.0000  0.0000  0.0000  0.0000 </r>
       </set>
       <set comment="band 7">
        <r>  0.0000  0.2183  0.0174  0.0174  0.0000  0.0000  0.0000  0.0000  0.0000 </r>
       </set>
       <set comment="band 8">
        <r>  0.0901  0.0000  0.0187  0.0187  0.0000  0.0000  0.0000  0.0000  0.0000 </r>
       </set>
       <set comment="band 9">
        <r>  0.0014  0.0000  0.0137  0.0137  0.0000  0.0000  0.0000  0.0000  0.0000 </r>
       </set>
       <set comment="band 10">
        <r>  0.0000  0.0013  0.0075  0.0075  0.0000  0.0000  0.0000  0.0000  0.0000 </r>
       </set>
       <set comment="band 11">
        <r>  0.0824  0.0000  0.0452  0.0452  0.0000  0.0000  0.0000  0.0000  0.0000 </r>
       </set>
       <set comment="band 12">
        <r>  0.0000  0.0000  0.0478  0.0478  0.0000  0.0000  0.0000  0.0000  0.0000 </r>
       </set>
       <set comment="band 13">
        <r>  0.0000  0.0014  0.0591  0.0591  0.0000  0.0000  0.0000  0.0000  0.0000 </r>
       </set>
       <set comment="band 14">
        <r>  0.0165  0.0000  0.0067  0.0067  0.0000  0.0000  0.0000  0.0000  0.0000 </r>
       </set>
       <set comment="band 15">
        <r>  0.1305  0.0000  0.0595  0.0595  0.0000  0.0000  0.0000  0.0000  0.0000 </r>
       </set>
       <set comment="band 16">
        <r>  0.0000  0.0018  0.0081  0.0081  0.0000  0.0000  0.0000  0.0000  0.0000 </r>
       </set>
       <set comment="band 17">
        <r>  0.0000  0.1652  0.2885  0.2885  0.0000  0.0000  0.0000  0.0000  0.0000 </r>
       </set>
       <set comment="band 18">
        <r>  0.3129  0.0000  0.4003  0.4003  0.0000  0.0000  0.0000  0.0000  0.0000 </r>
       </set>
       <set comment="band 19">
        <r>  0.0000  2.6537  0.0918  0.0918  0.0000  0.0000  0.0000  0.0000  0.0000 </r>
       </set>
       <set comment="band 20">
        <r>  9.2211  0.0000  0.0490  0.0490  0.0000  0.0000  0.0000  0.0000  0.0000 </r>
       </set>
       <set comment="band 21">
        <r>  0.0582  0.0000  0.7483  0.7483  0.0000  0.0000  0.0000  0.0000  0.0000 </r>
       </set>
       <set comment="band 22">
        <r>  0.0000  0.0854  1.1874  1.1874  0.0000  0.0000  0.0000  0.0000  0.0000 </r>
       </set>
       <set comment="band 23">
        <r>  0.0000  0.3728  0.1098  0.1098  0.0000  0.0000  0.0000  0.0000  0.0000 </r>
       </set>
       <set comment="band 24">
        <r>  0.3013  0.0000  0.0502  0.0502  0.0000  0.0000  0.0000  0.0000  0.0000 </r>
       </set>
       <set comment="band 25">
        <r>  0.0583  0.0000  1.0881  1.0881  0.0000  0.0000  0.0000  0.0000  0.0000 </r>
       </set>
       <set comment="band 26">
        <r>  0.0000  0.0749  0.5478  0.5478  0.0000  0.0000  0.0000  0.0000  0.0000 </r>
       </set>
       <set comment="band 27">
        <r>  0.0066  0.0000  0.0616  0.0616  0.0000  0.0000  0.0000  0.0000  0.0000 </r>
       </set>
       <set comment="band 28">
        <r>  0.0000  0.3026  0.0184  0.0184  0.0000  0.0000  0.0000  0.0000  0.0000 </r>
       </set>
       <set comment="band 29">
        <r>  0.0000  0.6647  0.2313  0.2313  0.0000  0.0000  0.0000  0.0000  0.0000 </r>
       </set>
       <set comment="band 30">
        <r>  0.0000  1.0487  0.1340  0.1340  0.0000  0.0000  0.0000  0.0000  0.0000 </r>
       </set>
       <set comment="band 31">
        <r>  0.1843  0.0000  0.1695  0.1695  0.0000  0.0000  0.0000  0.0000  0.0000 </r>
       </set>
       <set comment="band 32">
        <r>  0.4859  0.0000  0.0919  0.0919  0.0000  0.0000  0.0000  0.0000  0.0000 </r>
       </set>
       <set comment="band 33">
        <r>  0.0000  0.0411  0.0632  0.0632  0.0000  0.0000  0.0000  0.0000  0.0000 </r>
       </set>
       <set comment="band 34">
        <r>  0.5041  0.0000  0.0039  0.0039  0.0000  0.0000  0.0000  0.0000  0.0000 </r>
       </set>
       <set comment="band 35">
        <r>  0.0000  0.0433  0.0205  0.0205  0.0000  0.0000  0.0000  0.0000  0.0000 </r>
       </set>
       <set comment="band 36">
        <r>  0.1163  0.0000  0.0341  0.0341  0.0000  0.0000  0.0000  0.0000  0.0000 </r>
       </set>
       <set comment="band 37">
        <r>  0.0437  0.0000  0.0912  0.0912  0.0000  0.0000  0.0000  0.0000  0.0000 </r>
       </set>
       <set comment="band 38">
        <r>  0.0000  0.0273  0.1198  0.1198  0.0000  0.0000  0.0000  0.0000  0.0000 </r>
       </set>
       <set comment="band 39">
        <r>  0.0071  0.0000  0.0097  0.0097  0.0000  0.0000  0.0000  0.0000  0.0000 </r>
       </set>
       <set comment="band 40">
        <r>  0.0000  0.0685  0.0042  0.0042  0.0000  0.0000  0.0000  0.0000  0.0000 </r>
       </set>
       <set comment="band 41">
        <r>  0.0042  0.0000  0.0245  0.0245  0.0000  0.0000  0.0000  0.0000  0.0000 </r>
       </set>
       <set comment="band 42">
        <r>  0.0000  0.0001  0.0354  0.0354  0.0000  0.0000  0.0000  0.0000  0.0000 </r>
       </set>
       <set comment="band 43">
        <r>  0.0274  0.0000  0.0001  0.0001  0.0000  0.0000  0.0000  0.0000  0.0000 </r>
       </set>
       <set comment="band 44">
        <r>  0.0000  0.0649  0.0017  0.0017  0.0000  0.0000  0.0000  0.0000  0.0000 </r>
       </set>
       <set comment="band 45">
        <r>  0.0000  0.1047  0.0139  0.0139  0.0000  0.0000  0.0000  0.0000  0.0000 </r>
       </set>
       <set comment="band 46">
        <r>  0.0240  0.0000  0.0019  0.0019  0.0000  0.0000  0.0000  0.0000  0.0000 </r>
       </set>
       <set comment="band 47">
        <r>  0.0799  0.0000  0.0004  0.0004  0.0000  0.0000  0.0000  0.0000  0.0000 </r>
       </set>
       <set comment="band 48">
        <r>  0.0000  0.1270  0.0018  0.0018  0.0000  0.0000  0.0000  0.0000  0.0000 </r>
       </set>
      </set>
      <set comment="kpoint 104">
       <set comment="band 1">
        <r>  0.0000  0.0000  0.2271  0.0000  0.0000  0.0000  0.0000  0.0000  0.0000 </r>
       </set>
       <set comment="band 2">
        <r>  0.0000  0.0000  0.0000  0.2148  0.0000  0.0000  0.0000  0.0000  0.0000 </r>
       </set>
       <set comment="band 3">
        <r>  0.1104  0.0914  0.0000  0.0000  0.0000  0.0000  0.0000  0.0000  0.0000 </r>
       </set>
       <set comment="band 4">
        <r>  0.3603  0.0477  0.0000  0.0000  0.0000  0.0000  0.0000  0.0000  0.0000 </r>
       </set>
       <set comment="band 5">
        <r>  0.0000  0.0000  0.0000  0.1166  0.0000  0.0000  0.0000  0.0000  0.0000 </r>
       </set>
       <set comment="band 6">
        <r>  0.0473  0.2940  0.0000  0.0000  0.0000  0.0000  0.0000  0.0000  0.0000 </r>
       </set>
       <set comment="band 7">
        <r>  0.0000  0.0000  0.0939  0.0000  0.0000  0.0000  0.0000  0.0000  0.0000 </r>
       </set>
       <set comment="band 8">
        <r>  0.0770  0.0823  0.0000  0.0000  0.0000  0.0000  0.0000  0.0000  0.0000 </r>
       </set>
       <set comment="band 9">
        <r>  0.0000  0.0000  0.0000  0.0000  0.0000  0.0000  0.0000  0.0000  0.0000 </r>
       </set>
       <set comment="band 10">
        <r>  0.0038  0.0000  0.0000  0.0000  0.0000  0.0000  0.0000  0.0000  0.0000 </r>
       </set>
       <set comment="band 11">
        <r>  0.0000  0.0000  0.0000  0.2011  0.0000  0.0000  0.0000  0.0000  0.0000 </r>
       </set>
       <set comment="band 12">
        <r>  0.0000  0.0000  0.2013  0.0000  0.0000  0.0000  0.0000  0.0000  0.0000 </r>
       </set>
       <set comment="band 13">
        <r>  0.0000  0.0000  0.0032  0.0000  0.0000  0.0000  0.0000  0.0000  0.0000 </r>
       </set>
       <set comment="band 14">
        <r>  0.0000  0.0000  0.0000  0.0668  0.0000  0.0000  0.0000  0.0000  0.0000 </r>
       </set>
       <set comment="band 15">
        <r>  0.2165  0.0109  0.0000  0.0000  0.0000  0.0000  0.0000  0.0000  0.0000 </r>
       </set>
       <set comment="band 16">
        <r>  0.0000  0.0000  0.0000  0.0000  0.0000  0.0000  0.0000  0.0000  0.0000 </r>
       </set>
       <set comment="band 17">
        <r>  0.0000  0.0000  0.7605  0.0000  0.0000  0.0000  0.0000  0.0000  0.0000 </r>
       </set>
       <set comment="band 18">
        <r>  0.0000  0.0000  0.0000  0.9148  0.0000  0.0000  0.0000  0.0000  0.0000 </r>
       </set>
       <set comment="band 19">
        <r>  2.0155  2.0544  0.0000  0.0000  0.0000  0.0000  0.0000  0.0000  0.0000 </r>
       </set>
       <set comment="band 20">
        <r>  7.1484  0.6418  0.0000  0.0000  0.0000  0.0000  0.0000  0.0000  0.0000 </r>
       </set>
       <set comment="band 21">
        <r>  0.0000  0.0000  0.0000  2.6723  0.0000  0.0000  0.0000  0.0000  0.0000 </r>
       </set>
       <set comment="band 22">
        <r>  0.6070  0.2760  0.0000  0.0000  0.0000  0.0000  0.0000  0.0000  0.0000 </r>
       </set>
       <set comment="band 23">
        <r>  0.0000  0.0000  3.5720  0.0000  0.0000  0.0000  0.0000  0.0000  0.0000 </r>
       </set>
       <set comment="band 24">
        <r>  0.0000  0.0000  0.0000  0.0000  0.0000  0.0000  0.0000  0.0000  0.0000 </r>
       </set>
       <set comment="band 25">
        <r>  0.0000  0.0000  0.1223  0.0000  0.0000  0.0000  0.0000  0.0000  0.0000 </r>
       </set>
       <set comment="band 26">
        <r>  0.2276  0.7792  0.0000  0.0000  0.0000  0.0000  0.0000  0.0000  0.0000 </r>
       </set>
       <set comment="band 27">
        <r>  0.0000  0.0000  0.0000  0.0000  0.0000  0.0000  0.0000  0.0000  0.0000 </r>
       </set>
       <set comment="band 28">
        <r>  0.0000  0.0000  0.0000  1.4524  0.0000  0.0000  0.0000  0.0000  0.0000 </r>
       </set>
       <set comment="band 29">
        <r>  0.0000  0.0000  0.8790  0.0000  0.0000  0.0000  0.0000  0.0000  0.0000 </r>
       </set>
       <set comment="band 30">
        <r>  0.0704  1.5690  0.0000  0.0000  0.0000  0.0000  0.0000  0.0000  0.0000 </r>
       </set>
       <set comment="band 31">
        <r>  0.0000  0.0000  0.0000  0.1707  0.0000  0.0000  0.0000  0.0000  0.0000 </r>
       </set>
       <set comment="band 32">
        <r>  0.7315  0.0037  0.0000  0.0000  0.0000  0.0000  0.0000  0.0000  0.0000 </r>
       </set>
       <set comment="band 33">
        <r>  0.0795  0.0962  0.0000  0.0000  0.0000  0.0000  0.0000  0.0000  0.0000 </r>
       </set>
       <set comment="band 34">
        <r>  0.0000  0.0000  0.1979  0.0000  0.0000  0.0000  0.0000  0.0000  0.0000 </r>
       </set>
       <set comment="band 35">
        <r>  0.0000  0.0000  0.0000  0.0442  0.0000  0.0000  0.0000  0.0000  0.0000 </r>
       </set>
       <set comment="band 36">
        <r>  0.3950  0.0369  0.0000  0.0000  0.0000  0.0000  0.0000  0.0000  0.0000 </r>
       </set>
       <set comment="band 37">
        <r>  0.0000  0.0000  0.0000  0.4031  0.0000  0.0000  0.0000  0.0000  0.0000 </r>
       </set>
       <set comment="band 38">
        <r>  0.0000  0.0000  0.1076  0.0000  0.0000  0.0000  0.0000  0.0000  0.0000 </r>
       </set>
       <set comment="band 39">
        <r>  0.0000  0.0000  0.0000  0.0000  0.0000  0.0000  0.0000  0.0000  0.0000 </r>
       </set>
       <set comment="band 40">
        <r>  0.0038  0.0664  0.0000  0.0000  0.0000  0.0000  0.0000  0.0000  0.0000 </r>
       </set>
       <set comment="band 41">
        <r>  0.0000  0.0000  0.0000  0.0091  0.0000  0.0000  0.0000  0.0000  0.0000 </r>
       </set>
       <set comment="band 42">
        <r>  0.0000  0.0000  0.1386  0.0000  0.0000  0.0000  0.0000  0.0000  0.0000 </r>
       </set>
       <set comment="band 43">
        <r>  0.0261  0.1225  0.0000  0.0000  0.0000  0.0000  0.0000  0.0000  0.0000 </r>
       </set>
       <set comment="band 44">
        <r>  0.0000  0.0000  0.0000  0.0000  0.0000  0.0000  0.0000  0.0000  0.0000 </r>
       </set>
       <set comment="band 45">
        <r>  0.0000  0.0000  0.0102  0.0000  0.0000  0.0000  0.0000  0.0000  0.0000 </r>
       </set>
       <set comment="band 46">
        <r>  0.0000  0.0000  0.0000  0.0426  0.0000  0.0000  0.0000  0.0000  0.0000 </r>
       </set>
       <set comment="band 47">
        <r>  0.0132  0.1215  0.0000  0.0000  0.0000  0.0000  0.0000  0.0000  0.0000 </r>
       </set>
       <set comment="band 48">
        <r>  0.1973  0.0001  0.0000  0.0000  0.0000  0.0000  0.0000  0.0000  0.0000 </r>
       </set>
      </set>
     </set>
    </set>
   </array>
  </projected>
 </calculation>
 <structure name="finalpos" >
  <crystal>
   <varray name="basis" >
    <v>       0.00000000       2.02400000       2.02400000 </v>
    <v>       2.02400000       0.00000000       2.02400000 </v>
    <v>       2.02400000       2.02400000       0.00000000 </v>
   </varray>
   <i name="volume">     16.58293965 </i>
   <varray name="rec_basis" >
    <v>      -0.24703557       0.24703557       0.24703557 </v>
    <v>       0.24703557      -0.24703557       0.24703557 </v>
    <v>       0.24703557       0.24703557      -0.24703557 </v>
   </varray>
  </crystal>
  <varray name="positions" >
   <v>       0.00000000       0.00000000       0.00000000 </v>
  </varray>
 </structure>
</modeling>
