   4   4   1   0
  0.1133154E+02  0.3577431E-09  0.3541656E-09  0.3577431E-09  0.5000000E-15
   1.0000000000000000E-004
  CAR 
 unknown system                          
     24.83845784    -66.80175386  301      7.41114994      1.00000000
    -66.802  0.0000E+00  0.0000E+00
    -66.496  0.0000E+00  0.0000E+00
    -66.191  0.0000E+00  0.0000E+00
    -65.885  0.0000E+00  0.0000E+00
    -65.580  0.0000E+00  0.0000E+00
    -65.274  0.0000E+00  0.0000E+00
    -64.969  0.0000E+00  0.0000E+00
    -64.663  0.0000E+00  0.0000E+00
    -64.358 -0.5731E-31 -0.1751E-31
    -64.053 -0.1625E-20 -0.4963E-21
    -63.747 -0.4212E-12 -0.1287E-12
    -63.442 -0.1035E-05 -0.3161E-06
    -63.136 -0.2262E-01 -0.6911E-02
    -62.831 -0.2412E+01 -0.7437E+00
    -62.525  0.5403E+02  0.1576E+02
    -62.220  0.2839E+02  0.2443E+02
    -61.914 -0.1417E+01  0.2400E+02
    -61.609 -0.2449E-02  0.2400E+02
    -61.303 -0.2722E-07  0.2400E+02
    -60.998 -0.1332E-14  0.2400E+02
    -60.692  0.0000E+00  0.2400E+02
    -60.387  0.0000E+00  0.2400E+02
    -60.081  0.0000E+00  0.2400E+02
    -59.776  0.0000E+00  0.2400E+02
    -59.471  0.0000E+00  0.2400E+02
    -59.165  0.0000E+00  0.2400E+02
    -58.860  0.0000E+00  0.2400E+02
    -58.554  0.0000E+00  0.2400E+02
    -58.249  0.0000E+00  0.2400E+02
    -57.943  0.0000E+00  0.2400E+02
    -57.638  0.0000E+00  0.2400E+02
    -57.332  0.0000E+00  0.2400E+02
    -57.027  0.0000E+00  0.2400E+02
    -56.721  0.0000E+00  0.2400E+02
    -56.416  0.0000E+00  0.2400E+02
    -56.110  0.0000E+00  0.2400E+02
    -55.805  0.0000E+00  0.2400E+02
    -55.499  0.0000E+00  0.2400E+02
    -55.194  0.0000E+00  0.2400E+02
    -54.889  0.0000E+00  0.2400E+02
    -54.583  0.0000E+00  0.2400E+02
    -54.278  0.0000E+00  0.2400E+02
    -53.972  0.0000E+00  0.2400E+02
    -53.667  0.0000E+00  0.2400E+02
    -53.361  0.0000E+00  0.2400E+02
    -53.056  0.0000E+00  0.2400E+02
    -52.750  0.0000E+00  0.2400E+02
    -52.445  0.0000E+00  0.2400E+02
    -52.139  0.0000E+00  0.2400E+02
    -51.834  0.0000E+00  0.2400E+02
    -51.528  0.0000E+00  0.2400E+02
    -51.223  0.0000E+00  0.2400E+02
    -50.917  0.0000E+00  0.2400E+02
    -50.612  0.0000E+00  0.2400E+02
    -50.307  0.0000E+00  0.2400E+02
    -50.001  0.0000E+00  0.2400E+02
    -49.696  0.0000E+00  0.2400E+02
    -49.390  0.0000E+00  0.2400E+02
    -49.085  0.0000E+00  0.2400E+02
    -48.779  0.0000E+00  0.2400E+02
    -48.474  0.0000E+00  0.2400E+02
    -48.168  0.0000E+00  0.2400E+02
    -47.863  0.0000E+00  0.2400E+02
    -47.557  0.0000E+00  0.2400E+02
    -47.252  0.0000E+00  0.2400E+02
    -46.946  0.0000E+00  0.2400E+02
    -46.641  0.0000E+00  0.2400E+02
    -46.335  0.0000E+00  0.2400E+02
    -46.030  0.0000E+00  0.2400E+02
    -45.725  0.0000E+00  0.2400E+02
    -45.419  0.0000E+00  0.2400E+02
    -45.114  0.0000E+00  0.2400E+02
    -44.808  0.0000E+00  0.2400E+02
    -44.503  0.0000E+00  0.2400E+02
    -44.197  0.0000E+00  0.2400E+02
    -43.892  0.0000E+00  0.2400E+02
    -43.586  0.0000E+00  0.2400E+02
    -43.281  0.0000E+00  0.2400E+02
    -42.975  0.0000E+00  0.2400E+02
    -42.670  0.0000E+00  0.2400E+02
    -42.364  0.0000E+00  0.2400E+02
    -42.059  0.0000E+00  0.2400E+02
    -41.753  0.0000E+00  0.2400E+02
    -41.448  0.0000E+00  0.2400E+02
    -41.142  0.0000E+00  0.2400E+02
    -40.837  0.0000E+00  0.2400E+02
    -40.532  0.0000E+00  0.2400E+02
    -40.226  0.0000E+00  0.2400E+02
    -39.921  0.0000E+00  0.2400E+02
    -39.615  0.0000E+00  0.2400E+02
    -39.310  0.0000E+00  0.2400E+02
    -39.004  0.0000E+00  0.2400E+02
    -38.699  0.0000E+00  0.2400E+02
    -38.393  0.0000E+00  0.2400E+02
    -38.088  0.0000E+00  0.2400E+02
    -37.782  0.0000E+00  0.2400E+02
    -37.477  0.0000E+00  0.2400E+02
    -37.171  0.0000E+00  0.2400E+02
    -36.866  0.0000E+00  0.2400E+02
    -36.560  0.0000E+00  0.2400E+02
    -36.255  0.0000E+00  0.2400E+02
    -35.950  0.0000E+00  0.2400E+02
    -35.644  0.0000E+00  0.2400E+02
    -35.339  0.0000E+00  0.2400E+02
    -35.033  0.0000E+00  0.2400E+02
    -34.728  0.0000E+00  0.2400E+02
    -34.422  0.0000E+00  0.2400E+02
    -34.117  0.0000E+00  0.2400E+02
    -33.811  0.0000E+00  0.2400E+02
    -33.506  0.0000E+00  0.2400E+02
    -33.200  0.0000E+00  0.2400E+02
    -32.895  0.0000E+00  0.2400E+02
    -32.589  0.0000E+00  0.2400E+02
    -32.284  0.0000E+00  0.2400E+02
    -31.978  0.0000E+00  0.2400E+02
    -31.673  0.0000E+00  0.2400E+02
    -31.368  0.0000E+00  0.2400E+02
    -31.062  0.0000E+00  0.2400E+02
    -30.757  0.0000E+00  0.2400E+02
    -30.451  0.0000E+00  0.2400E+02
    -30.146  0.0000E+00  0.2400E+02
    -29.840  0.0000E+00  0.2400E+02
    -29.535  0.0000E+00  0.2400E+02
    -29.229  0.0000E+00  0.2400E+02
    -28.924  0.0000E+00  0.2400E+02
    -28.618  0.0000E+00  0.2400E+02
    -28.313  0.0000E+00  0.2400E+02
    -28.007  0.0000E+00  0.2400E+02
    -27.702  0.0000E+00  0.2400E+02
    -27.396  0.0000E+00  0.2400E+02
    -27.091  0.0000E+00  0.2400E+02
    -26.786  0.0000E+00  0.2400E+02
    -26.480  0.0000E+00  0.2400E+02
    -26.175  0.0000E+00  0.2400E+02
    -25.869  0.0000E+00  0.2400E+02
    -25.564  0.0000E+00  0.2400E+02
    -25.258  0.0000E+00  0.2400E+02
    -24.953  0.0000E+00  0.2400E+02
    -24.647  0.0000E+00  0.2400E+02
    -24.342  0.0000E+00  0.2400E+02
    -24.036  0.0000E+00  0.2400E+02
    -23.731  0.0000E+00  0.2400E+02
    -23.425  0.0000E+00  0.2400E+02
    -23.120  0.0000E+00  0.2400E+02
    -22.814  0.0000E+00  0.2400E+02
    -22.509  0.0000E+00  0.2400E+02
    -22.204  0.0000E+00  0.2400E+02
    -21.898  0.0000E+00  0.2400E+02
    -21.593  0.0000E+00  0.2400E+02
    -21.287  0.0000E+00  0.2400E+02
    -20.982  0.0000E+00  0.2400E+02
    -20.676  0.0000E+00  0.2400E+02
    -20.371  0.0000E+00  0.2400E+02
    -20.065  0.0000E+00  0.2400E+02
    -19.760  0.0000E+00  0.2400E+02
    -19.454  0.0000E+00  0.2400E+02
    -19.149  0.0000E+00  0.2400E+02
    -18.843  0.0000E+00  0.2400E+02
    -18.538  0.0000E+00  0.2400E+02
    -18.232  0.0000E+00  0.2400E+02
    -17.927  0.0000E+00  0.2400E+02
    -17.622  0.0000E+00  0.2400E+02
    -17.316  0.0000E+00  0.2400E+02
    -17.011  0.0000E+00  0.2400E+02
    -16.705  0.0000E+00  0.2400E+02
    -16.400  0.0000E+00  0.2400E+02
    -16.094  0.0000E+00  0.2400E+02
    -15.789  0.0000E+00  0.2400E+02
    -15.483  0.0000E+00  0.2400E+02
    -15.178  0.0000E+00  0.2400E+02
    -14.872  0.0000E+00  0.2400E+02
    -14.567  0.0000E+00  0.2400E+02
    -14.261  0.0000E+00  0.2400E+02
    -13.956  0.0000E+00  0.2400E+02
    -13.650  0.0000E+00  0.2400E+02
    -13.345  0.0000E+00  0.2400E+02
    -13.039  0.0000E+00  0.2400E+02
    -12.734  0.0000E+00  0.2400E+02
    -12.429  0.0000E+00  0.2400E+02
    -12.123  0.0000E+00  0.2400E+02
    -11.818  0.0000E+00  0.2400E+02
    -11.512  0.0000E+00  0.2400E+02
    -11.207  0.0000E+00  0.2400E+02
    -10.901  0.0000E+00  0.2400E+02
    -10.596  0.0000E+00  0.2400E+02
    -10.290  0.0000E+00  0.2400E+02
     -9.985  0.0000E+00  0.2400E+02
     -9.679  0.0000E+00  0.2400E+02
     -9.374  0.0000E+00  0.2400E+02
     -9.068  0.0000E+00  0.2400E+02
     -8.763  0.0000E+00  0.2400E+02
     -8.457  0.0000E+00  0.2400E+02
     -8.152  0.0000E+00  0.2400E+02
     -7.847  0.0000E+00  0.2400E+02
     -7.541  0.0000E+00  0.2400E+02
     -7.236  0.0000E+00  0.2400E+02
     -6.930  0.0000E+00  0.2400E+02
     -6.625  0.0000E+00  0.2400E+02
     -6.319  0.0000E+00  0.2400E+02
     -6.014  0.0000E+00  0.2400E+02
     -5.708  0.0000E+00  0.2400E+02
     -5.403  0.0000E+00  0.2400E+02
     -5.097  0.0000E+00  0.2400E+02
     -4.792  0.0000E+00  0.2400E+02
     -4.486  0.0000E+00  0.2400E+02
     -4.181 -0.4977E-40  0.2400E+02
     -3.875 -0.1170E-28  0.2400E+02
     -3.570 -0.2517E-19  0.2400E+02
     -3.265 -0.4805E-12  0.2400E+02
     -2.959 -0.9073E-07  0.2400E+02
     -2.654 -0.1870E-03  0.2400E+02
     -2.348 -0.8424E-04  0.2400E+02
     -2.043  0.7984E-01  0.2402E+02
     -1.737  0.1935E+00  0.2408E+02
     -1.432  0.2466E+00  0.2416E+02
     -1.126  0.3109E+00  0.2425E+02
     -0.821  0.3338E+00  0.2436E+02
     -0.515  0.4588E+00  0.2450E+02
     -0.210  0.3860E+00  0.2461E+02
      0.096  0.6045E+00  0.2480E+02
      0.401  0.5126E+00  0.2495E+02
      0.707  0.6709E+00  0.2516E+02
      1.012  0.8017E+00  0.2540E+02
      1.317  0.8102E+00  0.2565E+02
      1.623  0.1166E+01  0.2601E+02
      1.928  0.1340E+01  0.2642E+02
      2.234  0.2734E+01  0.2725E+02
      2.539  0.4316E+01  0.2857E+02
      2.845  0.5410E+01  0.3022E+02
      3.150  0.8299E+01  0.3276E+02
      3.456  0.8119E+01  0.3524E+02
      3.761  0.8312E+01  0.3778E+02
      4.067  0.1137E+02  0.4125E+02
      4.372  0.1449E+02  0.4568E+02
      4.678  0.1298E+02  0.4964E+02
      4.983  0.1111E+02  0.5304E+02
      5.289  0.1303E+02  0.5702E+02
      5.594  0.1318E+02  0.6104E+02
      5.899  0.1535E+02  0.6573E+02
      6.205  0.2192E+01  0.6640E+02
      6.510  0.1403E+01  0.6683E+02
      6.816  0.1376E+01  0.6725E+02
      7.121  0.1295E+01  0.6765E+02
      7.427  0.1199E+01  0.6801E+02
      7.732  0.1031E+01  0.6833E+02
      8.038  0.1289E+01  0.6872E+02
      8.343  0.1022E+01  0.6903E+02
      8.649  0.8892E+00  0.6931E+02
      8.954  0.1204E+01  0.6967E+02
      9.260  0.1014E+01  0.6998E+02
      9.565  0.7731E+00  0.7022E+02
      9.871  0.9740E+00  0.7052E+02
     10.176  0.8388E+00  0.7077E+02
     10.481  0.6941E+00  0.7098E+02
     10.787  0.6868E+00  0.7119E+02
     11.092  0.6492E+00  0.7139E+02
     11.398  0.5559E+00  0.7156E+02
     11.703  0.9112E+00  0.7184E+02
     12.009  0.1271E+01  0.7223E+02
     12.314  0.1048E+01  0.7255E+02
     12.620  0.1151E+01  0.7290E+02
     12.925  0.1216E+01  0.7327E+02
     13.231  0.9715E+00  0.7357E+02
     13.536  0.1031E+01  0.7388E+02
     13.842  0.1003E+01  0.7419E+02
     14.147  0.9448E+00  0.7448E+02
     14.453  0.9252E+00  0.7476E+02
     14.758  0.8232E+00  0.7501E+02
     15.064  0.1026E+01  0.7533E+02
     15.369  0.1228E+01  0.7570E+02
     15.674  0.1424E+01  0.7614E+02
     15.980  0.1274E+01  0.7653E+02
     16.285  0.1098E+01  0.7686E+02
     16.591  0.1686E+01  0.7738E+02
     16.896  0.1378E+01  0.7780E+02
     17.202  0.1055E+01  0.7812E+02
     17.507  0.1316E+01  0.7852E+02
     17.813  0.1325E+01  0.7893E+02
     18.118  0.1310E+01  0.7933E+02
     18.424  0.7888E+00  0.7957E+02
     18.729  0.5457E+00  0.7973E+02
     19.035  0.4532E+00  0.7987E+02
     19.340  0.2898E+00  0.7996E+02
     19.646  0.7365E-01  0.7998E+02
     19.951 -0.4359E-02  0.7998E+02
     20.256  0.3578E-01  0.7999E+02
     20.562  0.1990E-01  0.8000E+02
     20.867  0.2614E-02  0.8000E+02
     21.173 -0.8514E-04  0.8000E+02
     21.478 -0.4402E-05  0.8000E+02
     21.784 -0.3677E-09  0.8000E+02
     22.089 -0.2305E-15  0.8000E+02
     22.395  0.0000E+00  0.8000E+02
     22.700  0.0000E+00  0.8000E+02
     23.006  0.0000E+00  0.8000E+02
     23.311  0.0000E+00  0.8000E+02
     23.617  0.0000E+00  0.8000E+02
     23.922  0.0000E+00  0.8000E+02
     24.228  0.0000E+00  0.8000E+02
     24.533  0.0000E+00  0.8000E+02
     24.838  0.0000E+00  0.8000E+02
     24.83845784    -66.80175386  301      7.41114994      1.00000000
    -66.802  0.0000E+00  0.0000E+00  0.0000E+00  0.0000E+00  0.0000E+00  0.0000E+00  0.0000E+00  0.0000E+00  0.0000E+00
    -66.496  0.0000E+00  0.0000E+00  0.0000E+00  0.0000E+00  0.0000E+00  0.0000E+00  0.0000E+00  0.0000E+00  0.0000E+00
    -66.191  0.0000E+00  0.0000E+00  0.0000E+00  0.0000E+00  0.0000E+00  0.0000E+00  0.0000E+00  0.0000E+00  0.0000E+00
    -65.885  0.0000E+00  0.0000E+00  0.0000E+00  0.0000E+00  0.0000E+00  0.0000E+00  0.0000E+00  0.0000E+00  0.0000E+00
    -65.580  0.0000E+00  0.0000E+00  0.0000E+00  0.0000E+00  0.0000E+00  0.0000E+00  0.0000E+00  0.0000E+00  0.0000E+00
    -65.274  0.0000E+00  0.0000E+00  0.0000E+00  0.0000E+00  0.0000E+00  0.0000E+00  0.0000E+00  0.0000E+00  0.0000E+00
    -64.969  0.0000E+00  0.0000E+00  0.0000E+00  0.0000E+00  0.0000E+00  0.0000E+00  0.0000E+00  0.0000E+00  0.0000E+00
    -64.663  0.0000E+00  0.0000E+00  0.0000E+00  0.0000E+00  0.0000E+00  0.0000E+00  0.0000E+00  0.0000E+00  0.0000E+00
    -64.358 -0.2605E-37 -0.4888E-32 -0.4686E-32 -0.4686E-32 -0.9293E-38 -0.9293E-38 -0.4459E-38 -0.8475E-38 -0.3522E-38
    -64.053 -0.8131E-27 -0.1382E-21 -0.1330E-21 -0.1330E-21 -0.2832E-27 -0.2832E-27 -0.1340E-27 -0.2577E-27 -0.1059E-27
    -63.747 -0.2296E-18 -0.3572E-13 -0.3456E-13 -0.3456E-13 -0.7936E-19 -0.7936E-19 -0.3710E-19 -0.7197E-19 -0.2951E-19
    -63.442 -0.5964E-12 -0.8730E-07 -0.8514E-07 -0.8514E-07 -0.2115E-12 -0.2115E-12 -0.9843E-13 -0.1908E-12 -0.7946E-13
    -63.136 -0.1278E-07 -0.1895E-02 -0.1869E-02 -0.1869E-02 -0.4955E-08 -0.4955E-08 -0.2358E-08 -0.4430E-08 -0.1964E-08
    -62.831 -0.1038E-05 -0.1999E+00 -0.2005E+00 -0.2005E+00 -0.5349E-06 -0.5349E-06 -0.2801E-06 -0.4697E-06 -0.2499E-06
    -62.525  0.2434E-04  0.4488E+01  0.4486E+01  0.4486E+01  0.1189E-04  0.1189E-04  0.6140E-05  0.1047E-04  0.5424E-05
    -62.220  0.8794E-05  0.2357E+01  0.2360E+01  0.2360E+01  0.5703E-05  0.5703E-05  0.3230E-05  0.4965E-05  0.3007E-05
    -61.914 -0.4381E-06 -0.1177E+00 -0.1178E+00 -0.1178E+00 -0.2838E-06 -0.2838E-06 -0.1609E-06 -0.2471E-06 -0.1498E-06
    -61.609 -0.4913E-09 -0.2050E-03 -0.2028E-03 -0.2028E-03 -0.4219E-09 -0.4219E-09 -0.2556E-09 -0.3647E-09 -0.2494E-09
    -61.303 -0.3994E-14 -0.2299E-08 -0.2244E-08 -0.2244E-08 -0.4142E-14 -0.4142E-14 -0.2564E-14 -0.3570E-14 -0.2589E-14
    -60.998 -0.7143E-22 -0.1173E-15 -0.1075E-15 -0.1075E-15 -0.1137E-21 -0.1137E-21 -0.4902E-22 -0.9930E-22 -0.6310E-22
    -60.692  0.0000E+00  0.0000E+00  0.0000E+00  0.0000E+00  0.0000E+00  0.0000E+00  0.0000E+00  0.0000E+00  0.0000E+00
    -60.387  0.0000E+00  0.0000E+00  0.0000E+00  0.0000E+00  0.0000E+00  0.0000E+00  0.0000E+00  0.0000E+00  0.0000E+00
    -60.081  0.0000E+00  0.0000E+00  0.0000E+00  0.0000E+00  0.0000E+00  0.0000E+00  0.0000E+00  0.0000E+00  0.0000E+00
    -59.776  0.0000E+00  0.0000E+00  0.0000E+00  0.0000E+00  0.0000E+00  0.0000E+00  0.0000E+00  0.0000E+00  0.0000E+00
    -59.471  0.0000E+00  0.0000E+00  0.0000E+00  0.0000E+00  0.0000E+00  0.0000E+00  0.0000E+00  0.0000E+00  0.0000E+00
    -59.165  0.0000E+00  0.0000E+00  0.0000E+00  0.0000E+00  0.0000E+00  0.0000E+00  0.0000E+00  0.0000E+00  0.0000E+00
    -58.860  0.0000E+00  0.0000E+00  0.0000E+00  0.0000E+00  0.0000E+00  0.0000E+00  0.0000E+00  0.0000E+00  0.0000E+00
    -58.554  0.0000E+00  0.0000E+00  0.0000E+00  0.0000E+00  0.0000E+00  0.0000E+00  0.0000E+00  0.0000E+00  0.0000E+00
    -58.249  0.0000E+00  0.0000E+00  0.0000E+00  0.0000E+00  0.0000E+00  0.0000E+00  0.0000E+00  0.0000E+00  0.0000E+00
    -57.943  0.0000E+00  0.0000E+00  0.0000E+00  0.0000E+00  0.0000E+00  0.0000E+00  0.0000E+00  0.0000E+00  0.0000E+00
    -57.638  0.0000E+00  0.0000E+00  0.0000E+00  0.0000E+00  0.0000E+00  0.0000E+00  0.0000E+00  0.0000E+00  0.0000E+00
    -57.332  0.0000E+00  0.0000E+00  0.0000E+00  0.0000E+00  0.0000E+00  0.0000E+00  0.0000E+00  0.0000E+00  0.0000E+00
    -57.027  0.0000E+00  0.0000E+00  0.0000E+00  0.0000E+00  0.0000E+00  0.0000E+00  0.0000E+00  0.0000E+00  0.0000E+00
    -56.721  0.0000E+00  0.0000E+00  0.0000E+00  0.0000E+00  0.0000E+00  0.0000E+00  0.0000E+00  0.0000E+00  0.0000E+00
    -56.416  0.0000E+00  0.0000E+00  0.0000E+00  0.0000E+00  0.0000E+00  0.0000E+00  0.0000E+00  0.0000E+00  0.0000E+00
    -56.110  0.0000E+00  0.0000E+00  0.0000E+00  0.0000E+00  0.0000E+00  0.0000E+00  0.0000E+00  0.0000E+00  0.0000E+00
    -55.805  0.0000E+00  0.0000E+00  0.0000E+00  0.0000E+00  0.0000E+00  0.0000E+00  0.0000E+00  0.0000E+00  0.0000E+00
    -55.499  0.0000E+00  0.0000E+00  0.0000E+00  0.0000E+00  0.0000E+00  0.0000E+00  0.0000E+00  0.0000E+00  0.0000E+00
    -55.194  0.0000E+00  0.0000E+00  0.0000E+00  0.0000E+00  0.0000E+00  0.0000E+00  0.0000E+00  0.0000E+00  0.0000E+00
    -54.889  0.0000E+00  0.0000E+00  0.0000E+00  0.0000E+00  0.0000E+00  0.0000E+00  0.0000E+00  0.0000E+00  0.0000E+00
    -54.583  0.0000E+00  0.0000E+00  0.0000E+00  0.0000E+00  0.0000E+00  0.0000E+00  0.0000E+00  0.0000E+00  0.0000E+00
    -54.278  0.0000E+00  0.0000E+00  0.0000E+00  0.0000E+00  0.0000E+00  0.0000E+00  0.0000E+00  0.0000E+00  0.0000E+00
    -53.972  0.0000E+00  0.0000E+00  0.0000E+00  0.0000E+00  0.0000E+00  0.0000E+00  0.0000E+00  0.0000E+00  0.0000E+00
    -53.667  0.0000E+00  0.0000E+00  0.0000E+00  0.0000E+00  0.0000E+00  0.0000E+00  0.0000E+00  0.0000E+00  0.0000E+00
    -53.361  0.0000E+00  0.0000E+00  0.0000E+00  0.0000E+00  0.0000E+00  0.0000E+00  0.0000E+00  0.0000E+00  0.0000E+00
    -53.056  0.0000E+00  0.0000E+00  0.0000E+00  0.0000E+00  0.0000E+00  0.0000E+00  0.0000E+00  0.0000E+00  0.0000E+00
    -52.750  0.0000E+00  0.0000E+00  0.0000E+00  0.0000E+00  0.0000E+00  0.0000E+00  0.0000E+00  0.0000E+00  0.0000E+00
    -52.445  0.0000E+00  0.0000E+00  0.0000E+00  0.0000E+00  0.0000E+00  0.0000E+00  0.0000E+00  0.0000E+00  0.0000E+00
    -52.139  0.0000E+00  0.0000E+00  0.0000E+00  0.0000E+00  0.0000E+00  0.0000E+00  0.0000E+00  0.0000E+00  0.0000E+00
    -51.834  0.0000E+00  0.0000E+00  0.0000E+00  0.0000E+00  0.0000E+00  0.0000E+00  0.0000E+00  0.0000E+00  0.0000E+00
    -51.528  0.0000E+00  0.0000E+00  0.0000E+00  0.0000E+00  0.0000E+00  0.0000E+00  0.0000E+00  0.0000E+00  0.0000E+00
    -51.223  0.0000E+00  0.0000E+00  0.0000E+00  0.0000E+00  0.0000E+00  0.0000E+00  0.0000E+00  0.0000E+00  0.0000E+00
    -50.917  0.0000E+00  0.0000E+00  0.0000E+00  0.0000E+00  0.0000E+00  0.0000E+00  0.0000E+00  0.0000E+00  0.0000E+00
    -50.612  0.0000E+00  0.0000E+00  0.0000E+00  0.0000E+00  0.0000E+00  0.0000E+00  0.0000E+00  0.0000E+00  0.0000E+00
    -50.307  0.0000E+00  0.0000E+00  0.0000E+00  0.0000E+00  0.0000E+00  0.0000E+00  0.0000E+00  0.0000E+00  0.0000E+00
    -50.001  0.0000E+00  0.0000E+00  0.0000E+00  0.0000E+00  0.0000E+00  0.0000E+00  0.0000E+00  0.0000E+00  0.0000E+00
    -49.696  0.0000E+00  0.0000E+00  0.0000E+00  0.0000E+00  0.0000E+00  0.0000E+00  0.0000E+00  0.0000E+00  0.0000E+00
    -49.390  0.0000E+00  0.0000E+00  0.0000E+00  0.0000E+00  0.0000E+00  0.0000E+00  0.0000E+00  0.0000E+00  0.0000E+00
    -49.085  0.0000E+00  0.0000E+00  0.0000E+00  0.0000E+00  0.0000E+00  0.0000E+00  0.0000E+00  0.0000E+00  0.0000E+00
    -48.779  0.0000E+00  0.0000E+00  0.0000E+00  0.0000E+00  0.0000E+00  0.0000E+00  0.0000E+00  0.0000E+00  0.0000E+00
    -48.474  0.0000E+00  0.0000E+00  0.0000E+00  0.0000E+00  0.0000E+00  0.0000E+00  0.0000E+00  0.0000E+00  0.0000E+00
    -48.168  0.0000E+00  0.0000E+00  0.0000E+00  0.0000E+00  0.0000E+00  0.0000E+00  0.0000E+00  0.0000E+00  0.0000E+00
    -47.863  0.0000E+00  0.0000E+00  0.0000E+00  0.0000E+00  0.0000E+00  0.0000E+00  0.0000E+00  0.0000E+00  0.0000E+00
    -47.557  0.0000E+00  0.0000E+00  0.0000E+00  0.0000E+00  0.0000E+00  0.0000E+00  0.0000E+00  0.0000E+00  0.0000E+00
    -47.252  0.0000E+00  0.0000E+00  0.0000E+00  0.0000E+00  0.0000E+00  0.0000E+00  0.0000E+00  0.0000E+00  0.0000E+00
    -46.946  0.0000E+00  0.0000E+00  0.0000E+00  0.0000E+00  0.0000E+00  0.0000E+00  0.0000E+00  0.0000E+00  0.0000E+00
    -46.641  0.0000E+00  0.0000E+00  0.0000E+00  0.0000E+00  0.0000E+00  0.0000E+00  0.0000E+00  0.0000E+00  0.0000E+00
    -46.335  0.0000E+00  0.0000E+00  0.0000E+00  0.0000E+00  0.0000E+00  0.0000E+00  0.0000E+00  0.0000E+00  0.0000E+00
    -46.030  0.0000E+00  0.0000E+00  0.0000E+00  0.0000E+00  0.0000E+00  0.0000E+00  0.0000E+00  0.0000E+00  0.0000E+00
    -45.725  0.0000E+00  0.0000E+00  0.0000E+00  0.0000E+00  0.0000E+00  0.0000E+00  0.0000E+00  0.0000E+00  0.0000E+00
    -45.419  0.0000E+00  0.0000E+00  0.0000E+00  0.0000E+00  0.0000E+00  0.0000E+00  0.0000E+00  0.0000E+00  0.0000E+00
    -45.114  0.0000E+00  0.0000E+00  0.0000E+00  0.0000E+00  0.0000E+00  0.0000E+00  0.0000E+00  0.0000E+00  0.0000E+00
    -44.808  0.0000E+00  0.0000E+00  0.0000E+00  0.0000E+00  0.0000E+00  0.0000E+00  0.0000E+00  0.0000E+00  0.0000E+00
    -44.503  0.0000E+00  0.0000E+00  0.0000E+00  0.0000E+00  0.0000E+00  0.0000E+00  0.0000E+00  0.0000E+00  0.0000E+00
    -44.197  0.0000E+00  0.0000E+00  0.0000E+00  0.0000E+00  0.0000E+00  0.0000E+00  0.0000E+00  0.0000E+00  0.0000E+00
    -43.892  0.0000E+00  0.0000E+00  0.0000E+00  0.0000E+00  0.0000E+00  0.0000E+00  0.0000E+00  0.0000E+00  0.0000E+00
    -43.586  0.0000E+00  0.0000E+00  0.0000E+00  0.0000E+00  0.0000E+00  0.0000E+00  0.0000E+00  0.0000E+00  0.0000E+00
    -43.281  0.0000E+00  0.0000E+00  0.0000E+00  0.0000E+00  0.0000E+00  0.0000E+00  0.0000E+00  0.0000E+00  0.0000E+00
    -42.975  0.0000E+00  0.0000E+00  0.0000E+00  0.0000E+00  0.0000E+00  0.0000E+00  0.0000E+00  0.0000E+00  0.0000E+00
    -42.670  0.0000E+00  0.0000E+00  0.0000E+00  0.0000E+00  0.0000E+00  0.0000E+00  0.0000E+00  0.0000E+00  0.0000E+00
    -42.364  0.0000E+00  0.0000E+00  0.0000E+00  0.0000E+00  0.0000E+00  0.0000E+00  0.0000E+00  0.0000E+00  0.0000E+00
    -42.059  0.0000E+00  0.0000E+00  0.0000E+00  0.0000E+00  0.0000E+00  0.0000E+00  0.0000E+00  0.0000E+00  0.0000E+00
    -41.753  0.0000E+00  0.0000E+00  0.0000E+00  0.0000E+00  0.0000E+00  0.0000E+00  0.0000E+00  0.0000E+00  0.0000E+00
    -41.448  0.0000E+00  0.0000E+00  0.0000E+00  0.0000E+00  0.0000E+00  0.0000E+00  0.0000E+00  0.0000E+00  0.0000E+00
    -41.142  0.0000E+00  0.0000E+00  0.0000E+00  0.0000E+00  0.0000E+00  0.0000E+00  0.0000E+00  0.0000E+00  0.0000E+00
    -40.837  0.0000E+00  0.0000E+00  0.0000E+00  0.0000E+00  0.0000E+00  0.0000E+00  0.0000E+00  0.0000E+00  0.0000E+00
    -40.532  0.0000E+00  0.0000E+00  0.0000E+00  0.0000E+00  0.0000E+00  0.0000E+00  0.0000E+00  0.0000E+00  0.0000E+00
    -40.226  0.0000E+00  0.0000E+00  0.0000E+00  0.0000E+00  0.0000E+00  0.0000E+00  0.0000E+00  0.0000E+00  0.0000E+00
    -39.921  0.0000E+00  0.0000E+00  0.0000E+00  0.0000E+00  0.0000E+00  0.0000E+00  0.0000E+00  0.0000E+00  0.0000E+00
    -39.615  0.0000E+00  0.0000E+00  0.0000E+00  0.0000E+00  0.0000E+00  0.0000E+00  0.0000E+00  0.0000E+00  0.0000E+00
    -39.310  0.0000E+00  0.0000E+00  0.0000E+00  0.0000E+00  0.0000E+00  0.0000E+00  0.0000E+00  0.0000E+00  0.0000E+00
    -39.004  0.0000E+00  0.0000E+00  0.0000E+00  0.0000E+00  0.0000E+00  0.0000E+00  0.0000E+00  0.0000E+00  0.0000E+00
    -38.699  0.0000E+00  0.0000E+00  0.0000E+00  0.0000E+00  0.0000E+00  0.0000E+00  0.0000E+00  0.0000E+00  0.0000E+00
    -38.393  0.0000E+00  0.0000E+00  0.0000E+00  0.0000E+00  0.0000E+00  0.0000E+00  0.0000E+00  0.0000E+00  0.0000E+00
    -38.088  0.0000E+00  0.0000E+00  0.0000E+00  0.0000E+00  0.0000E+00  0.0000E+00  0.0000E+00  0.0000E+00  0.0000E+00
    -37.782  0.0000E+00  0.0000E+00  0.0000E+00  0.0000E+00  0.0000E+00  0.0000E+00  0.0000E+00  0.0000E+00  0.0000E+00
    -37.477  0.0000E+00  0.0000E+00  0.0000E+00  0.0000E+00  0.0000E+00  0.0000E+00  0.0000E+00  0.0000E+00  0.0000E+00
    -37.171  0.0000E+00  0.0000E+00  0.0000E+00  0.0000E+00  0.0000E+00  0.0000E+00  0.0000E+00  0.0000E+00  0.0000E+00
    -36.866  0.0000E+00  0.0000E+00  0.0000E+00  0.0000E+00  0.0000E+00  0.0000E+00  0.0000E+00  0.0000E+00  0.0000E+00
    -36.560  0.0000E+00  0.0000E+00  0.0000E+00  0.0000E+00  0.0000E+00  0.0000E+00  0.0000E+00  0.0000E+00  0.0000E+00
    -36.255  0.0000E+00  0.0000E+00  0.0000E+00  0.0000E+00  0.0000E+00  0.0000E+00  0.0000E+00  0.0000E+00  0.0000E+00
    -35.950  0.0000E+00  0.0000E+00  0.0000E+00  0.0000E+00  0.0000E+00  0.0000E+00  0.0000E+00  0.0000E+00  0.0000E+00
    -35.644  0.0000E+00  0.0000E+00  0.0000E+00  0.0000E+00  0.0000E+00  0.0000E+00  0.0000E+00  0.0000E+00  0.0000E+00
    -35.339  0.0000E+00  0.0000E+00  0.0000E+00  0.0000E+00  0.0000E+00  0.0000E+00  0.0000E+00  0.0000E+00  0.0000E+00
    -35.033  0.0000E+00  0.0000E+00  0.0000E+00  0.0000E+00  0.0000E+00  0.0000E+00  0.0000E+00  0.0000E+00  0.0000E+00
    -34.728  0.0000E+00  0.0000E+00  0.0000E+00  0.0000E+00  0.0000E+00  0.0000E+00  0.0000E+00  0.0000E+00  0.0000E+00
    -34.422  0.0000E+00  0.0000E+00  0.0000E+00  0.0000E+00  0.0000E+00  0.0000E+00  0.0000E+00  0.0000E+00  0.0000E+00
    -34.117  0.0000E+00  0.0000E+00  0.0000E+00  0.0000E+00  0.0000E+00  0.0000E+00  0.0000E+00  0.0000E+00  0.0000E+00
    -33.811  0.0000E+00  0.0000E+00  0.0000E+00  0.0000E+00  0.0000E+00  0.0000E+00  0.0000E+00  0.0000E+00  0.0000E+00
    -33.506  0.0000E+00  0.0000E+00  0.0000E+00  0.0000E+00  0.0000E+00  0.0000E+00  0.0000E+00  0.0000E+00  0.0000E+00
    -33.200  0.0000E+00  0.0000E+00  0.0000E+00  0.0000E+00  0.0000E+00  0.0000E+00  0.0000E+00  0.0000E+00  0.0000E+00
    -32.895  0.0000E+00  0.0000E+00  0.0000E+00  0.0000E+00  0.0000E+00  0.0000E+00  0.0000E+00  0.0000E+00  0.0000E+00
    -32.589  0.0000E+00  0.0000E+00  0.0000E+00  0.0000E+00  0.0000E+00  0.0000E+00  0.0000E+00  0.0000E+00  0.0000E+00
    -32.284  0.0000E+00  0.0000E+00  0.0000E+00  0.0000E+00  0.0000E+00  0.0000E+00  0.0000E+00  0.0000E+00  0.0000E+00
    -31.978  0.0000E+00  0.0000E+00  0.0000E+00  0.0000E+00  0.0000E+00  0.0000E+00  0.0000E+00  0.0000E+00  0.0000E+00
    -31.673  0.0000E+00  0.0000E+00  0.0000E+00  0.0000E+00  0.0000E+00  0.0000E+00  0.0000E+00  0.0000E+00  0.0000E+00
    -31.368  0.0000E+00  0.0000E+00  0.0000E+00  0.0000E+00  0.0000E+00  0.0000E+00  0.0000E+00  0.0000E+00  0.0000E+00
    -31.062  0.0000E+00  0.0000E+00  0.0000E+00  0.0000E+00  0.0000E+00  0.0000E+00  0.0000E+00  0.0000E+00  0.0000E+00
    -30.757  0.0000E+00  0.0000E+00  0.0000E+00  0.0000E+00  0.0000E+00  0.0000E+00  0.0000E+00  0.0000E+00  0.0000E+00
    -30.451  0.0000E+00  0.0000E+00  0.0000E+00  0.0000E+00  0.0000E+00  0.0000E+00  0.0000E+00  0.0000E+00  0.0000E+00
    -30.146  0.0000E+00  0.0000E+00  0.0000E+00  0.0000E+00  0.0000E+00  0.0000E+00  0.0000E+00  0.0000E+00  0.0000E+00
    -29.840  0.0000E+00  0.0000E+00  0.0000E+00  0.0000E+00  0.0000E+00  0.0000E+00  0.0000E+00  0.0000E+00  0.0000E+00
    -29.535  0.0000E+00  0.0000E+00  0.0000E+00  0.0000E+00  0.0000E+00  0.0000E+00  0.0000E+00  0.0000E+00  0.0000E+00
    -29.229  0.0000E+00  0.0000E+00  0.0000E+00  0.0000E+00  0.0000E+00  0.0000E+00  0.0000E+00  0.0000E+00  0.0000E+00
    -28.924  0.0000E+00  0.0000E+00  0.0000E+00  0.0000E+00  0.0000E+00  0.0000E+00  0.0000E+00  0.0000E+00  0.0000E+00
    -28.618  0.0000E+00  0.0000E+00  0.0000E+00  0.0000E+00  0.0000E+00  0.0000E+00  0.0000E+00  0.0000E+00  0.0000E+00
    -28.313  0.0000E+00  0.0000E+00  0.0000E+00  0.0000E+00  0.0000E+00  0.0000E+00  0.0000E+00  0.0000E+00  0.0000E+00
    -28.007  0.0000E+00  0.0000E+00  0.0000E+00  0.0000E+00  0.0000E+00  0.0000E+00  0.0000E+00  0.0000E+00  0.0000E+00
    -27.702  0.0000E+00  0.0000E+00  0.0000E+00  0.0000E+00  0.0000E+00  0.0000E+00  0.0000E+00  0.0000E+00  0.0000E+00
    -27.396  0.0000E+00  0.0000E+00  0.0000E+00  0.0000E+00  0.0000E+00  0.0000E+00  0.0000E+00  0.0000E+00  0.0000E+00
    -27.091  0.0000E+00  0.0000E+00  0.0000E+00  0.0000E+00  0.0000E+00  0.0000E+00  0.0000E+00  0.0000E+00  0.0000E+00
    -26.786  0.0000E+00  0.0000E+00  0.0000E+00  0.0000E+00  0.0000E+00  0.0000E+00  0.0000E+00  0.0000E+00  0.0000E+00
    -26.480  0.0000E+00  0.0000E+00  0.0000E+00  0.0000E+00  0.0000E+00  0.0000E+00  0.0000E+00  0.0000E+00  0.0000E+00
    -26.175  0.0000E+00  0.0000E+00  0.0000E+00  0.0000E+00  0.0000E+00  0.0000E+00  0.0000E+00  0.0000E+00  0.0000E+00
    -25.869  0.0000E+00  0.0000E+00  0.0000E+00  0.0000E+00  0.0000E+00  0.0000E+00  0.0000E+00  0.0000E+00  0.0000E+00
    -25.564  0.0000E+00  0.0000E+00  0.0000E+00  0.0000E+00  0.0000E+00  0.0000E+00  0.0000E+00  0.0000E+00  0.0000E+00
    -25.258  0.0000E+00  0.0000E+00  0.0000E+00  0.0000E+00  0.0000E+00  0.0000E+00  0.0000E+00  0.0000E+00  0.0000E+00
    -24.953  0.0000E+00  0.0000E+00  0.0000E+00  0.0000E+00  0.0000E+00  0.0000E+00  0.0000E+00  0.0000E+00  0.0000E+00
    -24.647  0.0000E+00  0.0000E+00  0.0000E+00  0.0000E+00  0.0000E+00  0.0000E+00  0.0000E+00  0.0000E+00  0.0000E+00
    -24.342  0.0000E+00  0.0000E+00  0.0000E+00  0.0000E+00  0.0000E+00  0.0000E+00  0.0000E+00  0.0000E+00  0.0000E+00
    -24.036  0.0000E+00  0.0000E+00  0.0000E+00  0.0000E+00  0.0000E+00  0.0000E+00  0.0000E+00  0.0000E+00  0.0000E+00
    -23.731  0.0000E+00  0.0000E+00  0.0000E+00  0.0000E+00  0.0000E+00  0.0000E+00  0.0000E+00  0.0000E+00  0.0000E+00
    -23.425  0.0000E+00  0.0000E+00  0.0000E+00  0.0000E+00  0.0000E+00  0.0000E+00  0.0000E+00  0.0000E+00  0.0000E+00
    -23.120  0.0000E+00  0.0000E+00  0.0000E+00  0.0000E+00  0.0000E+00  0.0000E+00  0.0000E+00  0.0000E+00  0.0000E+00
    -22.814  0.0000E+00  0.0000E+00  0.0000E+00  0.0000E+00  0.0000E+00  0.0000E+00  0.0000E+00  0.0000E+00  0.0000E+00
    -22.509  0.0000E+00  0.0000E+00  0.0000E+00  0.0000E+00  0.0000E+00  0.0000E+00  0.0000E+00  0.0000E+00  0.0000E+00
    -22.204  0.0000E+00  0.0000E+00  0.0000E+00  0.0000E+00  0.0000E+00  0.0000E+00  0.0000E+00  0.0000E+00  0.0000E+00
    -21.898  0.0000E+00  0.0000E+00  0.0000E+00  0.0000E+00  0.0000E+00  0.0000E+00  0.0000E+00  0.0000E+00  0.0000E+00
    -21.593  0.0000E+00  0.0000E+00  0.0000E+00  0.0000E+00  0.0000E+00  0.0000E+00  0.0000E+00  0.0000E+00  0.0000E+00
    -21.287  0.0000E+00  0.0000E+00  0.0000E+00  0.0000E+00  0.0000E+00  0.0000E+00  0.0000E+00  0.0000E+00  0.0000E+00
    -20.982  0.0000E+00  0.0000E+00  0.0000E+00  0.0000E+00  0.0000E+00  0.0000E+00  0.0000E+00  0.0000E+00  0.0000E+00
    -20.676  0.0000E+00  0.0000E+00  0.0000E+00  0.0000E+00  0.0000E+00  0.0000E+00  0.0000E+00  0.0000E+00  0.0000E+00
    -20.371  0.0000E+00  0.0000E+00  0.0000E+00  0.0000E+00  0.0000E+00  0.0000E+00  0.0000E+00  0.0000E+00  0.0000E+00
    -20.065  0.0000E+00  0.0000E+00  0.0000E+00  0.0000E+00  0.0000E+00  0.0000E+00  0.0000E+00  0.0000E+00  0.0000E+00
    -19.760  0.0000E+00  0.0000E+00  0.0000E+00  0.0000E+00  0.0000E+00  0.0000E+00  0.0000E+00  0.0000E+00  0.0000E+00
    -19.454  0.0000E+00  0.0000E+00  0.0000E+00  0.0000E+00  0.0000E+00  0.0000E+00  0.0000E+00  0.0000E+00  0.0000E+00
    -19.149  0.0000E+00  0.0000E+00  0.0000E+00  0.0000E+00  0.0000E+00  0.0000E+00  0.0000E+00  0.0000E+00  0.0000E+00