   4   4   1   0
  0.1144571E+02  0.3577475E-09  0.3577475E-09  0.3577431E-09  0.5000000E-15
   1.0000000000000000E-004
  CAR 
 unknown system                          
     24.54779673    -66.88791861  301      7.28940977      1.00000000
    -66.888  0.0000E+00  0.0000E+00
    -66.583  0.0000E+00  0.0000E+00
    -66.278  0.0000E+00  0.0000E+00
    -65.974  0.0000E+00  0.0000E+00
    -65.669  0.0000E+00  0.0000E+00
    -65.364  0.0000E+00  0.0000E+00
    -65.059  0.0000E+00  0.0000E+00
    -64.754  0.0000E+00  0.0000E+00
    -64.450 -0.7311E-31 -0.2228E-31
    -64.145 -0.1901E-20 -0.5795E-21
    -63.840 -0.4621E-12 -0.1408E-12
    -63.535 -0.1087E-05 -0.3314E-06
    -63.230 -0.2320E-01 -0.7072E-02
    -62.926 -0.2440E+01 -0.7507E+00
    -62.621  0.5435E+02  0.1582E+02
    -62.316  0.2827E+02  0.2443E+02
    -62.011 -0.1420E+01  0.2400E+02
    -61.707 -0.2461E-02  0.2400E+02
    -61.402 -0.2795E-07  0.2400E+02
    -61.097 -0.1466E-14  0.2400E+02
    -60.792  0.0000E+00  0.2400E+02
    -60.487  0.0000E+00  0.2400E+02
    -60.183  0.0000E+00  0.2400E+02
    -59.878  0.0000E+00  0.2400E+02
    -59.573  0.0000E+00  0.2400E+02
    -59.268  0.0000E+00  0.2400E+02
    -58.963  0.0000E+00  0.2400E+02
    -58.659  0.0000E+00  0.2400E+02
    -58.354  0.0000E+00  0.2400E+02
    -58.049  0.0000E+00  0.2400E+02
    -57.744  0.0000E+00  0.2400E+02
    -57.440  0.0000E+00  0.2400E+02
    -57.135  0.0000E+00  0.2400E+02
    -56.830  0.0000E+00  0.2400E+02
    -56.525  0.0000E+00  0.2400E+02
    -56.220  0.0000E+00  0.2400E+02
    -55.916  0.0000E+00  0.2400E+02
    -55.611  0.0000E+00  0.2400E+02
    -55.306  0.0000E+00  0.2400E+02
    -55.001  0.0000E+00  0.2400E+02
    -54.696  0.0000E+00  0.2400E+02
    -54.392  0.0000E+00  0.2400E+02
    -54.087  0.0000E+00  0.2400E+02
    -53.782  0.0000E+00  0.2400E+02
    -53.477  0.0000E+00  0.2400E+02
    -53.173  0.0000E+00  0.2400E+02
    -52.868  0.0000E+00  0.2400E+02
    -52.563  0.0000E+00  0.2400E+02
    -52.258  0.0000E+00  0.2400E+02
    -51.953  0.0000E+00  0.2400E+02
    -51.649  0.0000E+00  0.2400E+02
    -51.344  0.0000E+00  0.2400E+02
    -51.039  0.0000E+00  0.2400E+02
    -50.734  0.0000E+00  0.2400E+02
    -50.429  0.0000E+00  0.2400E+02
    -50.125  0.0000E+00  0.2400E+02
    -49.820  0.0000E+00  0.2400E+02
    -49.515  0.0000E+00  0.2400E+02
    -49.210  0.0000E+00  0.2400E+02
    -48.906  0.0000E+00  0.2400E+02
    -48.601  0.0000E+00  0.2400E+02
    -48.296  0.0000E+00  0.2400E+02
    -47.991  0.0000E+00  0.2400E+02
    -47.686  0.0000E+00  0.2400E+02
    -47.382  0.0000E+00  0.2400E+02
    -47.077  0.0000E+00  0.2400E+02
    -46.772  0.0000E+00  0.2400E+02
    -46.467  0.0000E+00  0.2400E+02
    -46.162  0.0000E+00  0.2400E+02
    -45.858  0.0000E+00  0.2400E+02
    -45.553  0.0000E+00  0.2400E+02
    -45.248  0.0000E+00  0.2400E+02
    -44.943  0.0000E+00  0.2400E+02
    -44.639  0.0000E+00  0.2400E+02
    -44.334  0.0000E+00  0.2400E+02
    -44.029  0.0000E+00  0.2400E+02
    -43.724  0.0000E+00  0.2400E+02
    -43.419  0.0000E+00  0.2400E+02
    -43.115  0.0000E+00  0.2400E+02
    -42.810  0.0000E+00  0.2400E+02
    -42.505  0.0000E+00  0.2400E+02
    -42.200  0.0000E+00  0.2400E+02
    -41.895  0.0000E+00  0.2400E+02
    -41.591  0.0000E+00  0.2400E+02
    -41.286  0.0000E+00  0.2400E+02
    -40.981  0.0000E+00  0.2400E+02
    -40.676  0.0000E+00  0.2400E+02
    -40.372  0.0000E+00  0.2400E+02
    -40.067  0.0000E+00  0.2400E+02
    -39.762  0.0000E+00  0.2400E+02
    -39.457  0.0000E+00  0.2400E+02
    -39.152  0.0000E+00  0.2400E+02
    -38.848  0.0000E+00  0.2400E+02
    -38.543  0.0000E+00  0.2400E+02
    -38.238  0.0000E+00  0.2400E+02
    -37.933  0.0000E+00  0.2400E+02
    -37.628  0.0000E+00  0.2400E+02
    -37.324  0.0000E+00  0.2400E+02
    -37.019  0.0000E+00  0.2400E+02
    -36.714  0.0000E+00  0.2400E+02
    -36.409  0.0000E+00  0.2400E+02
    -36.105  0.0000E+00  0.2400E+02
    -35.800  0.0000E+00  0.2400E+02
    -35.495  0.0000E+00  0.2400E+02
    -35.190  0.0000E+00  0.2400E+02
    -34.885  0.0000E+00  0.2400E+02
    -34.581  0.0000E+00  0.2400E+02
    -34.276  0.0000E+00  0.2400E+02
    -33.971  0.0000E+00  0.2400E+02
    -33.666  0.0000E+00  0.2400E+02
    -33.361  0.0000E+00  0.2400E+02
    -33.057  0.0000E+00  0.2400E+02
    -32.752  0.0000E+00  0.2400E+02
    -32.447  0.0000E+00  0.2400E+02
    -32.142  0.0000E+00  0.2400E+02
    -31.838  0.0000E+00  0.2400E+02
    -31.533  0.0000E+00  0.2400E+02
    -31.228  0.0000E+00  0.2400E+02
    -30.923  0.0000E+00  0.2400E+02
    -30.618  0.0000E+00  0.2400E+02
    -30.314  0.0000E+00  0.2400E+02
    -30.009  0.0000E+00  0.2400E+02
    -29.704  0.0000E+00  0.2400E+02
    -29.399  0.0000E+00  0.2400E+02
    -29.094  0.0000E+00  0.2400E+02
    -28.790  0.0000E+00  0.2400E+02
    -28.485  0.0000E+00  0.2400E+02
    -28.180  0.0000E+00  0.2400E+02
    -27.875  0.0000E+00  0.2400E+02
    -27.571  0.0000E+00  0.2400E+02
    -27.266  0.0000E+00  0.2400E+02
    -26.961  0.0000E+00  0.2400E+02
    -26.656  0.0000E+00  0.2400E+02
    -26.351  0.0000E+00  0.2400E+02
    -26.047  0.0000E+00  0.2400E+02
    -25.742  0.0000E+00  0.2400E+02
    -25.437  0.0000E+00  0.2400E+02
    -25.132  0.0000E+00  0.2400E+02
    -24.827  0.0000E+00  0.2400E+02
    -24.523  0.0000E+00  0.2400E+02
    -24.218  0.0000E+00  0.2400E+02
    -23.913  0.0000E+00  0.2400E+02
    -23.608  0.0000E+00  0.2400E+02
    -23.304  0.0000E+00  0.2400E+02
    -22.999  0.0000E+00  0.2400E+02
    -22.694  0.0000E+00  0.2400E+02
    -22.389  0.0000E+00  0.2400E+02
    -22.084  0.0000E+00  0.2400E+02
    -21.780  0.0000E+00  0.2400E+02
    -21.475  0.0000E+00  0.2400E+02
    -21.170  0.0000E+00  0.2400E+02
    -20.865  0.0000E+00  0.2400E+02
    -20.560  0.0000E+00  0.2400E+02
    -20.256  0.0000E+00  0.2400E+02
    -19.951  0.0000E+00  0.2400E+02
    -19.646  0.0000E+00  0.2400E+02
    -19.341  0.0000E+00  0.2400E+02
    -19.037  0.0000E+00  0.2400E+02
    -18.732  0.0000E+00  0.2400E+02
    -18.427  0.0000E+00  0.2400E+02
    -18.122  0.0000E+00  0.2400E+02
    -17.817  0.0000E+00  0.2400E+02
    -17.513  0.0000E+00  0.2400E+02
    -17.208  0.0000E+00  0.2400E+02
    -16.903  0.0000E+00  0.2400E+02
    -16.598  0.0000E+00  0.2400E+02
    -16.293  0.0000E+00  0.2400E+02
    -15.989  0.0000E+00  0.2400E+02
    -15.684  0.0000E+00  0.2400E+02
    -15.379  0.0000E+00  0.2400E+02
    -15.074  0.0000E+00  0.2400E+02
    -14.770  0.0000E+00  0.2400E+02
    -14.465  0.0000E+00  0.2400E+02
    -14.160  0.0000E+00  0.2400E+02
    -13.855  0.0000E+00  0.2400E+02
    -13.550  0.0000E+00  0.2400E+02
    -13.246  0.0000E+00  0.2400E+02
    -12.941  0.0000E+00  0.2400E+02
    -12.636  0.0000E+00  0.2400E+02
    -12.331  0.0000E+00  0.2400E+02
    -12.026  0.0000E+00  0.2400E+02
    -11.722  0.0000E+00  0.2400E+02
    -11.417  0.0000E+00  0.2400E+02
    -11.112  0.0000E+00  0.2400E+02
    -10.807  0.0000E+00  0.2400E+02
    -10.503  0.0000E+00  0.2400E+02
    -10.198  0.0000E+00  0.2400E+02
     -9.893  0.0000E+00  0.2400E+02
     -9.588  0.0000E+00  0.2400E+02
     -9.283  0.0000E+00  0.2400E+02
     -8.979  0.0000E+00  0.2400E+02
     -8.674  0.0000E+00  0.2400E+02
     -8.369  0.0000E+00  0.2400E+02
     -8.064  0.0000E+00  0.2400E+02
     -7.759  0.0000E+00  0.2400E+02
     -7.455  0.0000E+00  0.2400E+02
     -7.150  0.0000E+00  0.2400E+02
     -6.845  0.0000E+00  0.2400E+02
     -6.540  0.0000E+00  0.2400E+02
     -6.236  0.0000E+00  0.2400E+02
     -5.931  0.0000E+00  0.2400E+02
     -5.626  0.0000E+00  0.2400E+02
     -5.321  0.0000E+00  0.2400E+02
     -5.016  0.0000E+00  0.2400E+02
     -4.712  0.0000E+00  0.2400E+02
     -4.407  0.0000E+00  0.2400E+02
     -4.102 -0.2957E-35  0.2400E+02
     -3.797 -0.1020E-24  0.2400E+02
     -3.492 -0.3195E-16  0.2400E+02
     -3.188 -0.9719E-10  0.2400E+02
     -2.883 -0.3043E-05  0.2400E+02
     -2.578 -0.1041E-02  0.2400E+02
     -2.273  0.1689E-01  0.2400E+02
     -1.969  0.1285E+00  0.2404E+02
     -1.664  0.2056E+00  0.2411E+02
     -1.359  0.2922E+00  0.2420E+02
     -1.054  0.3097E+00  0.2429E+02
     -0.749  0.4092E+00  0.2441E+02
     -0.445  0.3995E+00  0.2454E+02
     -0.140  0.5157E+00  0.2469E+02
      0.165  0.5399E+00  0.2486E+02
      0.470  0.6142E+00  0.2505E+02
      0.775  0.6819E+00  0.2525E+02
      1.079  0.8404E+00  0.2551E+02
      1.384  0.8792E+00  0.2578E+02
      1.689  0.1297E+01  0.2617E+02
      1.994  0.1761E+01  0.2671E+02
      2.298  0.3460E+01  0.2776E+02
      2.603  0.4740E+01  0.2921E+02
      2.908  0.6694E+01  0.3125E+02
      3.213  0.8706E+01  0.3390E+02
      3.518  0.7929E+01  0.3632E+02
      3.822  0.9767E+01  0.3930E+02
      4.127  0.1296E+02  0.4324E+02
      4.432  0.1542E+02  0.4794E+02
      4.737  0.1083E+02  0.5124E+02
      5.042  0.1293E+02  0.5518E+02
      5.346  0.1248E+02  0.5899E+02
      5.651  0.1676E+02  0.6409E+02
      5.956  0.7014E+01  0.6623E+02
      6.261  0.1424E+01  0.6667E+02
      6.565  0.1396E+01  0.6709E+02
      6.870  0.1099E+01  0.6743E+02
      7.175  0.1562E+01  0.6790E+02
      7.480  0.8994E+00  0.6818E+02
      7.785  0.1257E+01  0.6856E+02
      8.089  0.1228E+01  0.6893E+02
      8.394  0.7562E+00  0.6916E+02
      8.699  0.1278E+01  0.6955E+02
      9.004  0.9464E+00  0.6984E+02
      9.309  0.9398E+00  0.7013E+02
      9.613  0.8755E+00  0.7040E+02
      9.918  0.1005E+01  0.7070E+02
     10.223  0.5846E+00  0.7088E+02
     10.528  0.8023E+00  0.7112E+02
     10.832  0.6631E+00  0.7133E+02
     11.137  0.5574E+00  0.7150E+02
     11.442  0.7992E+00  0.7174E+02
     11.747  0.1204E+01  0.7211E+02
     12.052  0.1140E+01  0.7245E+02
     12.356  0.1050E+01  0.7278E+02
     12.661  0.1308E+01  0.7317E+02
     12.966  0.1002E+01  0.7348E+02
     13.271  0.1003E+01  0.7378E+02
     13.576  0.9825E+00  0.7408E+02
     13.880  0.1057E+01  0.7441E+02
     14.185  0.8583E+00  0.7467E+02
     14.490  0.8681E+00  0.7493E+02
     14.795  0.9726E+00  0.7523E+02
     15.099  0.1183E+01  0.7559E+02
     15.404  0.1366E+01  0.7601E+02
     15.709  0.1436E+01  0.7644E+02
     16.014  0.1001E+01  0.7675E+02
     16.319  0.1634E+01  0.7725E+02
     16.623  0.1525E+01  0.7771E+02
     16.928  0.8919E+00  0.7798E+02
     17.233  0.1524E+01  0.7845E+02
     17.538  0.1165E+01  0.7880E+02
     17.843  0.1419E+01  0.7924E+02
     18.147  0.9067E+00  0.7951E+02
     18.452  0.6088E+00  0.7970E+02
     18.757  0.4661E+00  0.7984E+02
     19.062  0.3015E+00  0.7993E+02
     19.366  0.1672E+00  0.7998E+02
     19.671  0.1668E-02  0.7998E+02
     19.976  0.2591E-01  0.7999E+02
     20.281  0.2823E-01  0.8000E+02
     20.586  0.3607E-02  0.8000E+02
     20.890 -0.1395E-03  0.8000E+02
     21.195 -0.4535E-05  0.8000E+02
     21.500 -0.3952E-09  0.8000E+02
     21.805 -0.2648E-15  0.8000E+02
     22.110  0.0000E+00  0.8000E+02
     22.414  0.0000E+00  0.8000E+02
     22.719  0.0000E+00  0.8000E+02
     23.024  0.0000E+00  0.8000E+02
     23.329  0.0000E+00  0.8000E+02
     23.633  0.0000E+00  0.8000E+02
     23.938  0.0000E+00  0.8000E+02
     24.243  0.0000E+00  0.8000E+02
     24.548  0.0000E+00  0.8000E+02
     24.54779673    -66.88791861  301      7.28940977      1.00000000
    -66.888  0.0000E+00  0.0000E+00  0.0000E+00  0.0000E+00  0.0000E+00  0.0000E+00  0.0000E+00  0.0000E+00  0.0000E+00
    -66.583  0.0000E+00  0.0000E+00  0.0000E+00  0.0000E+00  0.0000E+00  0.0000E+00  0.0000E+00  0.0000E+00  0.0000E+00
    -66.278  0.0000E+00  0.0000E+00  0.0000E+00  0.0000E+00  0.0000E+00  0.0000E+00  0.0000E+00  0.0000E+00  0.0000E+00
    -65.974  0.0000E+00  0.0000E+00  0.0000E+00  0.0000E+00  0.0000E+00  0.0000E+00  0.0000E+00  0.0000E+00  0.0000E+00
    -65.669  0.0000E+00  0.0000E+00  0.0000E+00  0.0000E+00  0.0000E+00  0.0000E+00  0.0000E+00  0.0000E+00  0.0000E+00
    -65.364  0.0000E+00  0.0000E+00  0.0000E+00  0.0000E+00  0.0000E+00  0.0000E+00  0.0000E+00  0.0000E+00  0.0000E+00
    -65.059  0.0000E+00  0.0000E+00  0.0000E+00  0.0000E+00  0.0000E+00  0.0000E+00  0.0000E+00  0.0000E+00  0.0000E+00
    -64.754  0.0000E+00  0.0000E+00  0.0000E+00  0.0000E+00  0.0000E+00  0.0000E+00  0.0000E+00  0.0000E+00  0.0000E+00
    -64.450 -0.3103E-37 -0.6114E-32 -0.5965E-32 -0.6114E-32 -0.1096E-37 -0.1068E-37 -0.4828E-38 -0.1068E-37 -0.4637E-38
    -64.145 -0.8847E-27 -0.1588E-21 -0.1556E-21 -0.1588E-21 -0.3051E-27 -0.2976E-27 -0.1325E-27 -0.2976E-27 -0.1279E-27
    -63.840 -0.2328E-18 -0.3853E-13 -0.3795E-13 -0.3853E-13 -0.7964E-19 -0.7780E-19 -0.3433E-19 -0.7780E-19 -0.3331E-19
    -63.535 -0.5754E-12 -0.9051E-07 -0.8962E-07 -0.9051E-07 -0.2015E-12 -0.1973E-12 -0.8729E-13 -0.1973E-12 -0.8529E-13
    -63.230 -0.1196E-07 -0.1929E-02 -0.1920E-02 -0.1929E-02 -0.4552E-08 -0.4472E-08 -0.2053E-08 -0.4472E-08 -0.2021E-08
    -62.926 -0.9595E-06 -0.2026E+00 -0.2027E+00 -0.2026E+00 -0.4758E-06 -0.4707E-06 -0.2451E-06 -0.4707E-06 -0.2437E-06
    -62.621  0.2239E-04  0.4515E+01  0.4513E+01  0.4515E+01  0.1056E-04  0.1043E-04  0.5330E-05  0.1043E-04  0.5291E-05
    -62.316  0.8121E-05  0.2348E+01  0.2351E+01  0.2348E+01  0.4990E-05  0.4957E-05  0.2837E-05  0.4957E-05  0.2827E-05
    -62.011 -0.4076E-06 -0.1180E+00 -0.1181E+00 -0.1180E+00 -0.2501E-06 -0.2484E-06 -0.1423E-06 -0.2484E-06 -0.1417E-06
    -61.707 -0.4652E-09 -0.2045E-03 -0.2047E-03 -0.2045E-03 -0.3734E-09 -0.3724E-09 -0.2326E-09 -0.3724E-09 -0.2321E-09
    -61.402 -0.3884E-14 -0.2322E-08 -0.2324E-08 -0.2322E-08 -0.3751E-14 -0.3751E-14 -0.2435E-14 -0.3751E-14 -0.2430E-14
    -61.097 -0.6803E-22 -0.1217E-15 -0.1223E-15 -0.1217E-15 -0.1127E-21 -0.1164E-21 -0.5324E-22 -0.1164E-21 -0.5316E-22
    -60.792  0.0000E+00  0.0000E+00  0.0000E+00  0.0000E+00  0.0000E+00  0.0000E+00  0.0000E+00  0.0000E+00  0.0000E+00
    -60.487  0.0000E+00  0.0000E+00  0.0000E+00  0.0000E+00  0.0000E+00  0.0000E+00  0.0000E+00  0.0000E+00  0.0000E+00
    -60.183  0.0000E+00  0.0000E+00  0.0000E+00  0.0000E+00  0.0000E+00  0.0000E+00  0.0000E+00  0.0000E+00  0.0000E+00
    -59.878  0.0000E+00  0.0000E+00  0.0000E+00  0.0000E+00  0.0000E+00  0.0000E+00  0.0000E+00  0.0000E+00  0.0000E+00
    -59.573  0.0000E+00  0.0000E+00  0.0000E+00  0.0000E+00  0.0000E+00  0.0000E+00  0.0000E+00  0.0000E+00  0.0000E+00
    -59.268  0.0000E+00  0.0000E+00  0.0000E+00  0.0000E+00  0.0000E+00  0.0000E+00  0.0000E+00  0.0000E+00  0.0000E+00
    -58.963  0.0000E+00  0.0000E+00  0.0000E+00  0.0000E+00  0.0000E+00  0.0000E+00  0.0000E+00  0.0000E+00  0.0000E+00
    -58.659  0.0000E+00  0.0000E+00  0.0000E+00  0.0000E+00  0.0000E+00  0.0000E+00  0.0000E+00  0.0000E+00  0.0000E+00
    -58.354  0.0000E+00  0.0000E+00  0.0000E+00  0.0000E+00  0.0000E+00  0.0000E+00  0.0000E+00  0.0000E+00  0.0000E+00
    -58.049  0.0000E+00  0.0000E+00  0.0000E+00  0.0000E+00  0.0000E+00  0.0000E+00  0.0000E+00  0.0000E+00  0.0000E+00
    -57.744  0.0000E+00  0.0000E+00  0.0000E+00  0.0000E+00  0.0000E+00  0.0000E+00  0.0000E+00  0.0000E+00  0.0000E+00
    -57.440  0.0000E+00  0.0000E+00  0.0000E+00  0.0000E+00  0.0000E+00  0.0000E+00  0.0000E+00  0.0000E+00  0.0000E+00
    -57.135  0.0000E+00  0.0000E+00  0.0000E+00  0.0000E+00  0.0000E+00  0.0000E+00  0.0000E+00  0.0000E+00  0.0000E+00
    -56.830  0.0000E+00  0.0000E+00  0.0000E+00  0.0000E+00  0.0000E+00  0.0000E+00  0.0000E+00  0.0000E+00  0.0000E+00
    -56.525  0.0000E+00  0.0000E+00  0.0000E+00  0.0000E+00  0.0000E+00  0.0000E+00  0.0000E+00  0.0000E+00  0.0000E+00
    -56.220  0.0000E+00  0.0000E+00  0.0000E+00  0.0000E+00  0.0000E+00  0.0000E+00  0.0000E+00  0.0000E+00  0.0000E+00
    -55.916  0.0000E+00  0.0000E+00  0.0000E+00  0.0000E+00  0.0000E+00  0.0000E+00  0.0000E+00  0.0000E+00  0.0000E+00
    -55.611  0.0000E+00  0.0000E+00  0.0000E+00  0.0000E+00  0.0000E+00  0.0000E+00  0.0000E+00  0.0000E+00  0.0000E+00
    -55.306  0.0000E+00  0.0000E+00  0.0000E+00  0.0000E+00  0.0000E+00  0.0000E+00  0.0000E+00  0.0000E+00  0.0000E+00
    -55.001  0.0000E+00  0.0000E+00  0.0000E+00  0.0000E+00  0.0000E+00  0.0000E+00  0.0000E+00  0.0000E+00  0.0000E+00
    -54.696  0.0000E+00  0.0000E+00  0.0000E+00  0.0000E+00  0.0000E+00  0.0000E+00  0.0000E+00  0.0000E+00  0.0000E+00
    -54.392  0.0000E+00  0.0000E+00  0.0000E+00  0.0000E+00  0.0000E+00  0.0000E+00  0.0000E+00  0.0000E+00  0.0000E+00
    -54.087  0.0000E+00  0.0000E+00  0.0000E+00  0.0000E+00  0.0000E+00  0.0000E+00  0.0000E+00  0.0000E+00  0.0000E+00
    -53.782  0.0000E+00  0.0000E+00  0.0000E+00  0.0000E+00  0.0000E+00  0.0000E+00  0.0000E+00  0.0000E+00  0.0000E+00
    -53.477  0.0000E+00  0.0000E+00  0.0000E+00  0.0000E+00  0.0000E+00  0.0000E+00  0.0000E+00  0.0000E+00  0.0000E+00
    -53.173  0.0000E+00  0.0000E+00  0.0000E+00  0.0000E+00  0.0000E+00  0.0000E+00  0.0000E+00  0.0000E+00  0.0000E+00
    -52.868  0.0000E+00  0.0000E+00  0.0000E+00  0.0000E+00  0.0000E+00  0.0000E+00  0.0000E+00  0.0000E+00  0.0000E+00
    -52.563  0.0000E+00  0.0000E+00  0.0000E+00  0.0000E+00  0.0000E+00  0.0000E+00  0.0000E+00  0.0000E+00  0.0000E+00
    -52.258  0.0000E+00  0.0000E+00  0.0000E+00  0.0000E+00  0.0000E+00  0.0000E+00  0.0000E+00  0.0000E+00  0.0000E+00
    -51.953  0.0000E+00  0.0000E+00  0.0000E+00  0.0000E+00  0.0000E+00  0.0000E+00  0.0000E+00  0.0000E+00  0.0000E+00
    -51.649  0.0000E+00  0.0000E+00  0.0000E+00  0.0000E+00  0.0000E+00  0.0000E+00  0.0000E+00  0.0000E+00  0.0000E+00
    -51.344  0.0000E+00  0.0000E+00  0.0000E+00  0.0000E+00  0.0000E+00  0.0000E+00  0.0000E+00  0.0000E+00  0.0000E+00
    -51.039  0.0000E+00  0.0000E+00  0.0000E+00  0.0000E+00  0.0000E+00  0.0000E+00  0.0000E+00  0.0000E+00  0.0000E+00
    -50.734  0.0000E+00  0.0000E+00  0.0000E+00  0.0000E+00  0.0000E+00  0.0000E+00  0.0000E+00  0.0000E+00  0.0000E+00
    -50.429  0.0000E+00  0.0000E+00  0.0000E+00  0.0000E+00  0.0000E+00  0.0000E+00  0.0000E+00  0.0000E+00  0.0000E+00
    -50.125  0.0000E+00  0.0000E+00  0.0000E+00  0.0000E+00  0.0000E+00  0.0000E+00  0.0000E+00  0.0000E+00  0.0000E+00
    -49.820  0.0000E+00  0.0000E+00  0.0000E+00  0.0000E+00  0.0000E+00  0.0000E+00  0.0000E+00  0.0000E+00  0.0000E+00
    -49.515  0.0000E+00  0.0000E+00  0.0000E+00  0.0000E+00  0.0000E+00  0.0000E+00  0.0000E+00  0.0000E+00  0.0000E+00
    -49.210  0.0000E+00  0.0000E+00  0.0000E+00  0.0000E+00  0.0000E+00  0.0000E+00  0.0000E+00  0.0000E+00  0.0000E+00
    -48.906  0.0000E+00  0.0000E+00  0.0000E+00  0.0000E+00  0.0000E+00  0.0000E+00  0.0000E+00  0.0000E+00  0.0000E+00
    -48.601  0.0000E+00  0.0000E+00  0.0000E+00  0.0000E+00  0.0000E+00  0.0000E+00  0.0000E+00  0.0000E+00  0.0000E+00
    -48.296  0.0000E+00  0.0000E+00  0.0000E+00  0.0000E+00  0.0000E+00  0.0000E+00  0.0000E+00  0.0000E+00  0.0000E+00
    -47.991  0.0000E+00  0.0000E+00  0.0000E+00  0.0000E+00  0.0000E+00  0.0000E+00  0.0000E+00  0.0000E+00  0.0000E+00
    -47.686  0.0000E+00  0.0000E+00  0.0000E+00  0.0000E+00  0.0000E+00  0.0000E+00  0.0000E+00  0.0000E+00  0.0000E+00
    -47.382  0.0000E+00  0.0000E+00  0.0000E+00  0.0000E+00  0.0000E+00  0.0000E+00  0.0000E+00  0.0000E+00  0.0000E+00
    -47.077  0.0000E+00  0.0000E+00  0.0000E+00  0.0000E+00  0.0000E+00  0.0000E+00  0.0000E+00  0.0000E+00  0.0000E+00
    -46.772  0.0000E+00  0.0000E+00  0.0000E+00  0.0000E+00  0.0000E+00  0.0000E+00  0.0000E+00  0.0000E+00  0.0000E+00
    -46.467  0.0000E+00  0.0000E+00  0.0000E+00  0.0000E+00  0.0000E+00  0.0000E+00  0.0000E+00  0.0000E+00  0.0000E+00
    -46.162  0.0000E+00  0.0000E+00  0.0000E+00  0.0000E+00  0.0000E+00  0.0000E+00  0.0000E+00  0.0000E+00  0.0000E+00
    -45.858  0.0000E+00  0.0000E+00  0.0000E+00  0.0000E+00  0.0000E+00  0.0000E+00  0.0000E+00  0.0000E+00  0.0000E+00
    -45.553  0.0000E+00  0.0000E+00  0.0000E+00  0.0000E+00  0.0000E+00  0.0000E+00  0.0000E+00  0.0000E+00  0.0000E+00
    -45.248  0.0000E+00  0.0000E+00  0.0000E+00  0.0000E+00  0.0000E+00  0.0000E+00  0.0000E+00  0.0000E+00  0.0000E+00
    -44.943  0.0000E+00  0.0000E+00  0.0000E+00  0.0000E+00  0.0000E+00  0.0000E+00  0.0000E+00  0.0000E+00  0.0000E+00
    -44.639  0.0000E+00  0.0000E+00  0.0000E+00  0.0000E+00  0.0000E+00  0.0000E+00  0.0000E+00  0.0000E+00  0.0000E+00
    -44.334  0.0000E+00  0.0000E+00  0.0000E+00  0.0000E+00  0.0000E+00  0.0000E+00  0.0000E+00  0.0000E+00  0.0000E+00
    -44.029  0.0000E+00  0.0000E+00  0.0000E+00  0.0000E+00  0.0000E+00  0.0000E+00  0.0000E+00  0.0000E+00  0.0000E+00
    -43.724  0.0000E+00  0.0000E+00  0.0000E+00  0.0000E+00  0.0000E+00  0.0000E+00  0.0000E+00  0.0000E+00  0.0000E+00
    -43.419  0.0000E+00  0.0000E+00  0.0000E+00  0.0000E+00  0.0000E+00  0.0000E+00  0.0000E+00  0.0000E+00  0.0000E+00
    -43.115  0.0000E+00  0.0000E+00  0.0000E+00  0.0000E+00  0.0000E+00  0.0000E+00  0.0000E+00  0.0000E+00  0.0000E+00
    -42.810  0.0000E+00  0.0000E+00  0.0000E+00  0.0000E+00  0.0000E+00  0.0000E+00  0.0000E+00  0.0000E+00  0.0000E+00
    -42.505  0.0000E+00  0.0000E+00  0.0000E+00  0.0000E+00  0.0000E+00  0.0000E+00  0.0000E+00  0.0000E+00  0.0000E+00
    -42.200  0.0000E+00  0.0000E+00  0.0000E+00  0.0000E+00  0.0000E+00  0.0000E+00  0.0000E+00  0.0000E+00  0.0000E+00
    -41.895  0.0000E+00  0.0000E+00  0.0000E+00  0.0000E+00  0.0000E+00  0.0000E+00  0.0000E+00  0.0000E+00  0.0000E+00
    -41.591  0.0000E+00  0.0000E+00  0.0000E+00  0.0000E+00  0.0000E+00  0.0000E+00  0.0000E+00  0.0000E+00  0.0000E+00
    -41.286  0.0000E+00  0.0000E+00  0.0000E+00  0.0000E+00  0.0000E+00  0.0000E+00  0.0000E+00  0.0000E+00  0.0000E+00
    -40.981  0.0000E+00  0.0000E+00  0.0000E+00  0.0000E+00  0.0000E+00  0.0000E+00  0.0000E+00  0.0000E+00  0.0000E+00
    -40.676  0.0000E+00  0.0000E+00  0.0000E+00  0.0000E+00  0.0000E+00  0.0000E+00  0.0000E+00  0.0000E+00  0.0000E+00
    -40.372  0.0000E+00  0.0000E+00  0.0000E+00  0.0000E+00  0.0000E+00  0.0000E+00  0.0000E+00  0.0000E+00  0.0000E+00
    -40.067  0.0000E+00  0.0000E+00  0.0000E+00  0.0000E+00  0.0000E+00  0.0000E+00  0.0000E+00  0.0000E+00  0.0000E+00
    -39.762  0.0000E+00  0.0000E+00  0.0000E+00  0.0000E+00  0.0000E+00  0.0000E+00  0.0000E+00  0.0000E+00  0.0000E+00
    -39.457  0.0000E+00  0.0000E+00  0.0000E+00  0.0000E+00  0.0000E+00  0.0000E+00  0.0000E+00  0.0000E+00  0.0000E+00
    -39.152  0.0000E+00  0.0000E+00  0.0000E+00  0.0000E+00  0.0000E+00  0.0000E+00  0.0000E+00  0.0000E+00  0.0000E+00
    -38.848  0.0000E+00  0.0000E+00  0.0000E+00  0.0000E+00  0.0000E+00  0.0000E+00  0.0000E+00  0.0000E+00  0.0000E+00
    -38.543  0.0000E+00  0.0000E+00  0.0000E+00  0.0000E+00  0.0000E+00  0.0000E+00  0.0000E+00  0.0000E+00  0.0000E+00
    -38.238  0.0000E+00  0.0000E+00  0.0000E+00  0.0000E+00  0.0000E+00  0.0000E+00  0.0000E+00  0.0000E+00  0.0000E+00
    -37.933  0.0000E+00  0.0000E+00  0.0000E+00  0.0000E+00  0.0000E+00  0.0000E+00  0.0000E+00  0.0000E+00  0.0000E+00
    -37.628  0.0000E+00  0.0000E+00  0.0000E+00  0.0000E+00  0.0000E+00  0.0000E+00  0.0000E+00  0.0000E+00  0.0000E+00
    -37.324  0.0000E+00  0.0000E+00  0.0000E+00  0.0000E+00  0.0000E+00  0.0000E+00  0.0000E+00  0.0000E+00  0.0000E+00
    -37.019  0.0000E+00  0.0000E+00  0.0000E+00  0.0000E+00  0.0000E+00  0.0000E+00  0.0000E+00  0.0000E+00  0.0000E+00
    -36.714  0.0000E+00  0.0000E+00  0.0000E+00  0.0000E+00  0.0000E+00  0.0000E+00  0.0000E+00  0.0000E+00  0.0000E+00
    -36.409  0.0000E+00  0.0000E+00  0.0000E+00  0.0000E+00  0.0000E+00  0.0000E+00  0.0000E+00  0.0000E+00  0.0000E+00
    -36.105  0.0000E+00  0.0000E+00  0.0000E+00  0.0000E+00  0.0000E+00  0.0000E+00  0.0000E+00  0.0000E+00  0.0000E+00
    -35.800  0.0000E+00  0.0000E+00  0.0000E+00  0.0000E+00  0.0000E+00  0.0000E+00  0.0000E+00  0.0000E+00  0.0000E+00
    -35.495  0.0000E+00  0.0000E+00  0.0000E+00  0.0000E+00  0.0000E+00  0.0000E+00  0.0000E+00  0.0000E+00  0.0000E+00
    -35.190  0.0000E+00  0.0000E+00  0.0000E+00  0.0000E+00  0.0000E+00  0.0000E+00  0.0000E+00  0.0000E+00  0.0000E+00
    -34.885  0.0000E+00  0.0000E+00  0.0000E+00  0.0000E+00  0.0000E+00  0.0000E+00  0.0000E+00  0.0000E+00  0.0000E+00
    -34.581  0.0000E+00  0.0000E+00  0.0000E+00  0.0000E+00  0.0000E+00  0.0000E+00  0.0000E+00  0.0000E+00  0.0000E+00
    -34.276  0.0000E+00  0.0000E+00  0.0000E+00  0.0000E+00  0.0000E+00  0.0000E+00  0.0000E+00  0.0000E+00  0.0000E+00
    -33.971  0.0000E+00  0.0000E+00  0.0000E+00  0.0000E+00  0.0000E+00  0.0000E+00  0.0000E+00  0.0000E+00  0.0000E+00
    -33.666  0.0000E+00  0.0000E+00  0.0000E+00  0.0000E+00  0.0000E+00  0.0000E+00  0.0000E+00  0.0000E+00  0.0000E+00
    -33.361  0.0000E+00  0.0000E+00  0.0000E+00  0.0000E+00  0.0000E+00  0.0000E+00  0.0000E+00  0.0000E+00  0.0000E+00
    -33.057  0.0000E+00  0.0000E+00  0.0000E+00  0.0000E+00  0.0000E+00  0.0000E+00  0.0000E+00  0.0000E+00  0.0000E+00
    -32.752  0.0000E+00  0.0000E+00  0.0000E+00  0.0000E+00  0.0000E+00  0.0000E+00  0.0000E+00  0.0000E+00  0.0000E+00
    -32.447  0.0000E+00  0.0000E+00  0.0000E+00  0.0000E+00  0.0000E+00  0.0000E+00  0.0000E+00  0.0000E+00  0.0000E+00
    -32.142  0.0000E+00  0.0000E+00  0.0000E+00  0.0000E+00  0.0000E+00  0.0000E+00  0.0000E+00  0.0000E+00  0.0000E+00
    -31.838  0.0000E+00  0.0000E+00  0.0000E+00  0.0000E+00  0.0000E+00  0.0000E+00  0.0000E+00  0.0000E+00  0.0000E+00
    -31.533  0.0000E+00  0.0000E+00  0.0000E+00  0.0000E+00  0.0000E+00  0.0000E+00  0.0000E+00  0.0000E+00  0.0000E+00
    -31.228  0.0000E+00  0.0000E+00  0.0000E+00  0.0000E+00  0.0000E+00  0.0000E+00  0.0000E+00  0.0000E+00  0.0000E+00
    -30.923  0.0000E+00  0.0000E+00  0.0000E+00  0.0000E+00  0.0000E+00  0.0000E+00  0.0000E+00  0.0000E+00  0.0000E+00
    -30.618  0.0000E+00  0.0000E+00  0.0000E+00  0.0000E+00  0.0000E+00  0.0000E+00  0.0000E+00  0.0000E+00  0.0000E+00
    -30.314  0.0000E+00  0.0000E+00  0.0000E+00  0.0000E+00  0.0000E+00  0.0000E+00  0.0000E+00  0.0000E+00  0.0000E+00
    -30.009  0.0000E+00  0.0000E+00  0.0000E+00  0.0000E+00  0.0000E+00  0.0000E+00  0.0000E+00  0.0000E+00  0.0000E+00
    -29.704  0.0000E+00  0.0000E+00  0.0000E+00  0.0000E+00  0.0000E+00  0.0000E+00  0.0000E+00  0.0000E+00  0.0000E+00
    -29.399  0.0000E+00  0.0000E+00  0.0000E+00  0.0000E+00  0.0000E+00  0.0000E+00  0.0000E+00  0.0000E+00  0.0000E+00
    -29.094  0.0000E+00  0.0000E+00  0.0000E+00  0.0000E+00  0.0000E+00  0.0000E+00  0.0000E+00  0.0000E+00  0.0000E+00
    -28.790  0.0000E+00  0.0000E+00  0.0000E+00  0.0000E+00  0.0000E+00  0.0000E+00  0.0000E+00  0.0000E+00  0.0000E+00
    -28.485  0.0000E+00  0.0000E+00  0.0000E+00  0.0000E+00  0.0000E+00  0.0000E+00  0.0000E+00  0.0000E+00  0.0000E+00
    -28.180  0.0000E+00  0.0000E+00  0.0000E+00  0.0000E+00  0.0000E+00  0.0000E+00  0.0000E+00  0.0000E+00  0.0000E+00
    -27.875  0.0000E+00  0.0000E+00  0.0000E+00  0.0000E+00  0.0000E+00  0.0000E+00  0.0000E+00  0.0000E+00  0.0000E+00
    -27.571  0.0000E+00  0.0000E+00  0.0000E+00  0.0000E+00  0.0000E+00  0.0000E+00  0.0000E+00  0.0000E+00  0.0000E+00
    -27.266  0.0000E+00  0.0000E+00  0.0000E+00  0.0000E+00  0.0000E+00  0.0000E+00  0.0000E+00  0.0000E+00  0.0000E+00
    -26.961  0.0000E+00  0.0000E+00  0.0000E+00  0.0000E+00  0.0000E+00  0.0000E+00  0.0000E+00  0.0000E+00  0.0000E+00
    -26.656  0.0000E+00  0.0000E+00  0.0000E+00  0.0000E+00  0.0000E+00  0.0000E+00  0.0000E+00  0.0000E+00  0.0000E+00
    -26.351  0.0000E+00  0.0000E+00  0.0000E+00  0.0000E+00  0.0000E+00  0.0000E+00  0.0000E+00  0.0000E+00  0.0000E+00
    -26.047  0.0000E+00  0.0000E+00  0.0000E+00  0.0000E+00  0.0000E+00  0.0000E+00  0.0000E+00  0.0000E+00  0.0000E+00
    -25.742  0.0000E+00  0.0000E+00  0.0000E+00  0.0000E+00  0.0000E+00  0.0000E+00  0.0000E+00  0.0000E+00  0.0000E+00
    -25.437  0.0000E+00  0.0000E+00  0.0000E+00  0.0000E+00  0.0000E+00  0.0000E+00  0.0000E+00  0.0000E+00  0.0000E+00
    -25.132  0.0000E+00  0.0000E+00  0.0000E+00  0.0000E+00  0.0000E+00  0.0000E+00  0.0000E+00  0.0000E+00  0.0000E+00
    -24.827  0.0000E+00  0.0000E+00  0.0000E+00  0.0000E+00  0.0000E+00  0.0000E+00  0.0000E+00  0.0000E+00  0.0000E+00
    -24.523  0.0000E+00  0.0000E+00  0.0000E+00  0.0000E+00  0.0000E+00  0.0000E+00  0.0000E+00  0.0000E+00  0.0000E+00
    -24.218  0.0000E+00  0.0000E+00  0.0000E+00  0.0000E+00  0.0000E+00  0.0000E+00  0.0000E+00  0.0000E+00  0.0000E+00
    -23.913  0.0000E+00  0.0000E+00  0.0000E+00  0.0000E+00  0.0000E+00  0.0000E+00  0.0000E+00  0.0000E+00  0.0000E+00
    -23.608  0.0000E+00  0.0000E+00  0.0000E+00  0.0000E+00  0.0000E+00  0.0000E+00  0.0000E+00  0.0000E+00  0.0000E+00
    -23.304  0.0000E+00  0.0000E+00  0.0000E+00  0.0000E+00  0.0000E+00  0.0000E+00  0.0000E+00  0.0000E+00  0.0000E+00
    -22.999  0.0000E+00  0.0000E+00  0.0000E+00  0.0000E+00  0.0000E+00  0.0000E+00  0.0000E+00  0.0000E+00  0.0000E+00
    -22.694  0.0000E+00  0.0000E+00  0.0000E+00  0.0000E+00  0.0000E+00  0.0000E+00  0.0000E+00  0.0000E+00  0.0000E+00
    -22.389  0.0000E+00  0.0000E+00  0.0000E+00  0.0000E+00  0.0000E+00  0.0000E+00  0.0000E+00  0.0000E+00  0.0000E+00
    -22.084  0.0000E+00  0.0000E+00  0.0000E+00  0.0000E+00  0.0000E+00  0.0000E+00  0.0000E+00  0.0000E+00  0.0000E+00
    -21.780  0.0000E+00  0.0000E+00  0.0000E+00  0.0000E+00  0.0000E+00  0.0000E+00  0.0000E+00  0.0000E+00  0.0000E+00
    -21.475  0.0000E+00  0.0000E+00  0.0000E+00  0.0000E+00  0.0000E+00  0.0000E+00  0.0000E+00  0.0000E+00  0.0000E+00
    -21.170  0.0000E+00  0.0000E+00  0.0000E+00  0.0000E+00  0.0000E+00  0.0000E+00  0.0000E+00  0.0000E+00  0.0000E+00
    -20.865  0.0000E+00  0.0000E+00  0.0000E+00  0.0000E+00  0.0000E+00  0.0000E+00  0.0000E+00  0.0000E+00  0.0000E+00
    -20.560  0.0000E+00  0.0000E+00  0.0000E+00  0.0000E+00  0.0000E+00  0.0000E+00  0.0000E+00  0.0000E+00  0.0000E+00
    -20.256  0.0000E+00  0.0000E+00  0.0000E+00  0.0000E+00  0.0000E+00  0.0000E+00  0.0000E+00  0.0000E+00  0.0000E+00
    -19.951  0.0000E+00  0.0000E+00  0.0000E+00  0.0000E+00  0.0000E+00  0.0000E+00  0.0000E+00  0.0000E+00  0.0000E+00
    -19.646  0.0000E+00  0.0000E+00  0.0000E+00  0.0000E+00  0.0000E+00  0.0000E+00  0.0000E+00  0.0000E+00  0.0000E+00
    -19.341  0.0000E+00  0.0000E+00  0.0000E+00  0.0000E+00  0.0000E+00  0.0000E+00  0.0000E+00  0.0000E+00  0.0000E+00