 running on    4 total cores
 distrk:  each k-point on    4 cores,    1 groups
 distr:  one band on    1 cores,    4 groups
 vasp.6.2.1 16May21 (build Aug 15 2022 14:47:30) complex                         
 POSCAR found type information on POSCAR Cu
 POSCAR found :  1 types and       4 ions
 scaLAPACK will be used
 LDA part: xc-table for Pade appr. of Perdew
 POSCAR found type information on POSCAR Cu
 POSCAR found :  1 types and       4 ions
 POSCAR, INCAR and KPOINTS ok, starting setup
 FFT: planning ...
 WAVECAR not read
 entering main loop
       N       E                     dE             d eps       ncg     rms          rms(c)
DAV:   1     0.912613844585E+03    0.91261E+03   -0.46605E+04 27736   0.274E+03
DAV:   2     0.387234903245E+02   -0.87389E+03   -0.85391E+03 24552   0.763E+02
DAV:   3    -0.184567827541E+02   -0.57180E+02   -0.55372E+02 26200   0.218E+02
DAV:   4    -0.197734630313E+02   -0.13167E+01   -0.13142E+01 26088   0.330E+01
DAV:   5    -0.198143768865E+02   -0.40914E-01   -0.40912E-01 29680   0.559E+00    0.161E+01
RMM:   6    -0.178305605055E+02    0.19838E+01   -0.36353E+01 24573   0.608E+01    0.104E+01
RMM:   7    -0.163832116255E+02    0.14473E+01   -0.66252E+00 24128   0.282E+01    0.120E+00
RMM:   8    -0.163471773254E+02    0.36034E-01   -0.67621E-02 25336   0.307E+00    0.336E-01
RMM:   9    -0.163463818730E+02    0.79545E-03   -0.14237E-02 25827   0.980E-01    0.939E-02
RMM:  10    -0.163466456550E+02   -0.26378E-03   -0.30329E-03 26244   0.652E-01    0.657E-02
RMM:  11    -0.163466669509E+02   -0.21296E-04   -0.10224E-03 27781   0.259E-01    0.205E-02
RMM:  12    -0.163466871314E+02   -0.20180E-04   -0.25575E-04 30508   0.148E-01    0.795E-03
RMM:  13    -0.163466953346E+02   -0.82032E-05   -0.69313E-05 32802   0.535E-02    0.264E-03
RMM:  14    -0.163466969754E+02   -0.16408E-05   -0.10264E-05 34249   0.229E-02    0.825E-04
RMM:  15    -0.163466971250E+02   -0.14962E-06   -0.13963E-06 34668   0.786E-03    0.124E-04
RMM:  16    -0.163466971748E+02   -0.49764E-07   -0.16161E-07 26234   0.305E-03    0.355E-04
RMM:  17    -0.163466971298E+02    0.44958E-07   -0.24539E-08 14929   0.152E-03    0.214E-05
RMM:  18    -0.163466971342E+02   -0.44056E-08   -0.63720E-09 13289   0.738E-04
   1 F= -.16346697E+02 E0= -.16347725E+02  d E =0.308428E-02
