    7    7    1    2
  0.1432189E+02  0.3975729E-09  0.3975729E-09  0.6937676E-09  0.5000000E-15
   1.0000000000000000E-004
  CAR 
 unknown system                          
     62     60     48

  0.1262379E-14  0.1262379E-14  0.1262379E-14  0.5102041E-02
    1      -57.636185    -55.460484   1.000000   1.000000
    2      -57.542466    -55.339003   1.000000   1.000000
    3      -57.542447    -55.338244   1.000000   1.000000
    4      -24.362364    -24.363928   1.000000   1.000000
    5      -24.185696    -24.187736   1.000000   1.000000
    6      -11.593327    -11.444263   1.000000   1.000000
    7      -10.128679    -10.053526   1.000000   1.000000
    8      -10.073572     -9.782714   1.000000   1.000000
    9       -9.837473     -9.705792   1.000000   1.000000
   10       -7.840035     -7.845337   1.000000   1.000000
   11       -7.840035     -7.845337   1.000000   1.000000
   12       -7.828784     -7.833699   1.000000   1.000000
   13       -7.828784     -7.833699   1.000000   1.000000
   14       -7.123857     -7.115736   1.000000   1.000000
   15       -6.662086     -6.566496   1.000000   1.000000
   16        1.137888      2.873610   1.000000   1.000000
   17        1.859814      2.873621   1.000000   1.000000
   18        2.344806      3.238913   1.000000   1.000000
   19        2.344813      3.347613   1.000000   1.000000
   20        2.360031      3.347817   1.000000   1.000000
   21        2.692080      3.381351   1.000000   1.000000
   22        2.692081      3.873511   1.000000   1.000000
   23        3.158128      4.020806   1.000000   1.000000
   24        3.969364      5.013005   1.000000   1.000000
   25        4.499846      5.013007   1.000000   1.000000
   26        4.907853      5.015819   1.000000   1.000000
   27        4.907853      5.015834   1.000000   1.000000
   28        4.944854      5.801800   1.000000   1.000000
   29        4.944854      5.801802   1.000000   1.000000
   30        5.692091      6.087004   1.000000   1.000000
   31        5.692091      9.385623   1.000000   0.002845
   32        5.982346      9.996978   1.000000   0.000000
   33        9.381101     10.274638   0.003160   0.000000
   34       10.000920     10.324844   0.000000   0.000000
   35       10.281533     10.454755   0.000000   0.000000
   36       10.435069     10.551454   0.000000   0.000000
   37       10.545779     10.647020   0.000000   0.000000
   38       10.640741     10.647022   0.000000   0.000000
   39       10.640742     10.791526   0.000000   0.000000
   40       10.791589     10.808759   0.000000   0.000000
   41       10.807248     10.808817   0.000000   0.000000
   42       10.807248     10.816772   0.000000   0.000000
   43       10.814154     10.881030   0.000000   0.000000
   44       10.881683     10.881070   0.000000   0.000000
   45       10.881687     11.063648   0.000000   0.000000
   46       11.059440     11.063672   0.000000   0.000000
   47       11.059442     11.138041   0.000000   0.000000
   48       11.141145     11.844423   0.000000   0.000000

  0.1428571E+00  0.1262379E-14  0.1259083E-14  0.2040816E-01
    1      -57.636129    -55.460429   1.000000   1.000000
    2      -57.542387    -55.338774   1.000000   1.000000
    3      -57.542196    -55.338150   1.000000   1.000000
    4      -24.347840    -24.349455   1.000000   1.000000
    5      -24.184409    -24.186432   1.000000   1.000000
    6      -11.515352    -11.367704   1.000000   1.000000
    7      -10.336211    -10.224225   1.000000   1.000000
    8      -10.064369     -9.855910   1.000000   1.000000
    9       -9.907995     -9.775467   1.000000   1.000000
   10       -7.853985     -7.859008   1.000000   1.000000
   11       -7.843452     -7.845852   1.000000   1.000000
   12       -7.786487     -7.791770   1.000000   1.000000
   13       -7.645763     -7.628210   1.000000   1.000000
   14       -7.081183     -7.070392   1.000000   1.000000
   15       -6.744192     -6.657087   1.000000   1.000000
   16        1.020111      2.717303   1.000000   1.000000
   17        1.346952      2.760568   1.000000   1.000000
   18        2.129496      2.814397   1.000000   1.000000
   19        2.165959      3.316492   1.000000   1.000000
   20        2.327072      3.424148   1.000000   1.000000
   21        2.871627      3.566136   1.000000   1.000000
   22        3.026645      4.074076   1.000000   1.000000
   23        3.288658      4.328205   1.000000   1.000000
   24        4.148474      4.799646   1.000000   1.000000
   25        4.698808      4.867676   1.000000   1.000000
   26        4.752462      5.072815   1.000000   1.000000
   27        4.770113      5.109701   1.000000   1.000000
   28        4.994877      5.421216   1.000000   1.000000
   29        5.033696      5.696988   1.000000   1.000000
   30        5.514163      6.061281   1.000000   1.000000
   31        5.567479      9.504865   1.000000  -0.014983
   32        5.986610     10.077726   1.000000   0.000000
   33        9.499604     10.346336  -0.014554   0.000000
   34       10.083642     10.411797   0.000000   0.000000
   35       10.418946     10.581461   0.000000   0.000000
   36       10.575352     10.651129   0.000000   0.000000
   37       10.644674     10.671307   0.000000   0.000000
   38       10.661334     10.694606   0.000000   0.000000
   39       10.680535     10.787874   0.000000   0.000000
   40       10.783581     10.793721   0.000000   0.000000
   41       10.796010     10.799718   0.000000   0.000000
   42       10.799026     10.852495   0.000000   0.000000
   43       10.852406     10.870932   0.000000   0.000000
   44       10.872017     11.022077   0.000000   0.000000
   45       11.018006     11.064197   0.000000   0.000000
   46       11.064091     11.090350   0.000000   0.000000
   47       11.085481     11.191995   0.000000   0.000000
   48       11.184245     11.732018   0.000000   0.000000

  0.2857143E+00  0.1262379E-14  0.1212941E-14  0.2040816E-01
    1      -57.636194    -55.460489   1.000000   1.000000
    2      -57.542294    -55.338870   1.000000   1.000000
    3      -57.542230    -55.338030   1.000000   1.000000
    4      -24.313170    -24.314897   1.000000   1.000000
    5      -24.183377    -24.185366   1.000000   1.000000
    6      -11.340230    -11.194888   1.000000   1.000000
    7      -10.729672    -10.611969   1.000000   1.000000
    8      -10.061885     -9.986750   1.000000   1.000000
    9       -9.991055     -9.806326   1.000000   1.000000
   10       -7.864817     -7.860146   1.000000   1.000000
   11       -7.848349     -7.853248   1.000000   1.000000
   12       -7.727761     -7.733386   1.000000   1.000000
   13       -7.452665     -7.410850   1.000000   1.000000
   14       -6.938631     -6.916551   1.000000   1.000000
   15       -6.871882     -6.813308   1.000000   1.000000
   16        0.296007      2.375618   1.000000   1.000000
   17        1.223759      2.534117   1.000000   1.000000
   18        1.799204      2.574454   1.000000   1.000000
   19        1.925188      3.235651   1.000000   1.000000
   20        2.281843      3.419090   1.000000   1.000000
   21        3.056362      3.673876   1.000000   1.000000
   22        3.320610      4.260393   1.000000   1.000000
   23        3.521062      4.611223   1.000000   1.000000
   24        4.392288      4.750655   1.000000   1.000000
   25        4.531832      4.770059   1.000000   1.000000
   26        4.587363      4.812120   1.000000   1.000000
   27        4.721516      5.130427   1.000000   1.000000
   28        4.981608      5.158892   1.000000   1.000000
   29        5.105182      5.501308   1.000000   1.000000
   30        5.292177      5.968479   1.000000   1.000000
   31        5.607264      9.886945   1.000000   0.000000
   32        6.058998     10.136263   1.000000   0.000000
   33        9.885946     10.349339   0.000000   0.000000
   34       10.139638     10.474579   0.000000   0.000000
   35       10.495834     10.636740   0.000000   0.000000
   36       10.630497     10.673103   0.000000   0.000000
   37       10.665290     10.713821   0.000000   0.000000
   38       10.713992     10.762773   0.000000   0.000000
   39       10.759917     10.774288   0.000000   0.000000
   40       10.773370     10.788177   0.000000   0.000000
   41       10.786659     10.789156   0.000000   0.000000
   42       10.797190     10.816717   0.000000   0.000000
   43       10.803754     10.861604   0.000000   0.000000
   44       10.862856     10.959097   0.000000   0.000000
   45       10.956364     11.044075   0.000000   0.000000
   46       11.041391     11.390975   0.000000   0.000000
   47       11.388468     11.797268   0.000000   0.000000
   48       11.783749     12.162025   0.000000   0.000000

  0.4285714E+00  0.1262379E-14  0.1237313E-14  0.2040816E-01
    1      -57.636189    -55.460484   1.000000   1.000000
    2      -57.542274    -55.338789   1.000000   1.000000
    3      -57.542040    -55.337850   1.000000   1.000000
    4      -24.281760    -24.283594   1.000000   1.000000
    5      -24.185886    -24.187834   1.000000   1.000000
    6      -11.252518    -11.100164   1.000000   1.000000
    7      -10.927038    -10.836718   1.000000   1.000000
    8      -10.084754     -9.996002   1.000000   1.000000
    9      -10.011556     -9.872651   1.000000   1.000000
   10       -7.915112     -7.903230   1.000000   1.000000
   11       -7.837035     -7.841838   1.000000   1.000000
   12       -7.686774     -7.692681   1.000000   1.000000
   13       -7.468171     -7.420472   1.000000   1.000000
   14       -6.932772     -6.899815   1.000000   1.000000
   15       -6.746665     -6.714658   1.000000   1.000000
   16       -0.216400      2.136974   1.000000   1.000000
   17        1.223035      2.456534   1.000000   1.000000
   18        1.603073      2.463990   1.000000   1.000000
   19        1.786481      3.161733   1.000000   1.000000
   20        2.240542      3.353983   1.000000   1.000000
   21        3.116709      3.599225   1.000000   1.000000
   22        3.470036      4.256615   1.000000   1.000000
   23        3.847507      4.505465   1.000000   1.000000
   24        4.246435      4.700312   1.000000   1.000000
   25        4.284640      4.726211   1.000000   1.000000
   26        4.572589      4.807083   1.000000   1.000000
   27        4.580536      5.027150   1.000000   1.000000
   28        4.922429      5.416369   1.000000   1.000000
   29        5.068907      5.511669   1.000000   1.000000
   30        5.387454      5.801759   1.000000   1.000000
   31        5.630382     10.179082   1.000000   0.000000
   32        6.269781     10.286004   1.000000   0.000000
   33       10.184446     10.360370   0.000000   0.000000
   34       10.299653     10.420763   0.000000   0.000000
   35       10.450008     10.668075   0.000000   0.000000
   36       10.660904     10.703750   0.000000   0.000000
   37       10.701745     10.710516   0.000000   0.000000
   38       10.709633     10.730070   0.000000   0.000000
   39       10.735372     10.749322   0.000000   0.000000
   40       10.747234     10.760605   0.000000   0.000000
   41       10.757967     10.772317   0.000000   0.000000
   42       10.770875     10.832273   0.000000   0.000000
   43       10.828110     10.877067   0.000000   0.000000
   44       10.877950     10.908161   0.000000   0.000000
   45       10.908669     10.909878   0.000000   0.000000
   46       10.964306     11.232703   0.000000   0.000000
   47       11.759094     11.770341   0.000000   0.000000
   48       12.009067     12.032693   0.000000   0.000000

  0.1428571E+00  0.1428571E+00  0.1236569E-14  0.1020408E-01
    1      -57.636178    -55.460465   1.000000   1.000000
    2      -57.542326    -55.338796   1.000000   1.000000
    3      -57.542113    -55.337996   1.000000   1.000000
    4      -24.330478    -24.332143   1.000000   1.000000
    5      -24.186410    -24.188408   1.000000   1.000000
    6      -11.454506    -11.311403   1.000000   1.000000
    7      -10.324789    -10.268570   1.000000   1.000000
    8      -10.242998     -9.947188   1.000000   1.000000
    9       -9.903621     -9.836885   1.000000   1.000000
   10       -7.933719     -7.935276   1.000000   1.000000
   11       -7.810816     -7.813731   1.000000   1.000000
   12       -7.706409     -7.681610   1.000000   1.000000
   13       -7.614994     -7.609045   1.000000   1.000000
   14       -7.030113     -7.015348   1.000000   1.000000
   15       -6.820168     -6.746874   1.000000   1.000000
   16        1.016311      2.344997   1.000000   1.000000
   17        1.020492      2.746803   1.000000   1.000000
   18        1.949843      3.060135   1.000000   1.000000
   19        2.077947      3.152584   1.000000   1.000000
   20        2.206936      3.191098   1.000000   1.000000
   21        2.532960      3.831677   1.000000   1.000000
   22        3.461204      4.217523   1.000000   1.000000
   23        3.628488      4.506405   1.000000   1.000000
   24        4.308443      4.673882   1.000000   1.000000
   25        4.550775      4.784340   1.000000   1.000000
   26        4.705637      5.046466   1.000000   1.000000
   27        4.728690      5.182454   1.000000   1.000000
   28        5.011850      5.230646   1.000000   1.000000
   29        5.199946      5.701376   1.000000   1.000000
   30        5.272279      5.977836   1.000000   1.000000
   31        5.853808      9.605523   1.000000  -0.035246
   32        5.954809     10.093570   1.000000   0.000000
   33        9.602424     10.396408  -0.034201   0.000000
   34       10.094321     10.482155   0.000000   0.000000
   35       10.487640     10.572680   0.000000   0.000000
   36       10.546969     10.660333   0.000000   0.000000
   37       10.656569     10.665297   0.000000   0.000000
   38       10.661093     10.693597   0.000000   0.000000
   39       10.685951     10.790727   0.000000   0.000000
   40       10.787578     10.803125   0.000000   0.000000
   41       10.804269     10.839948   0.000000   0.000000
   42       10.840862     10.860077   0.000000   0.000000
   43       10.858818     10.883417   0.000000   0.000000
   44       10.875481     11.008836   0.000000   0.000000
   45       11.002876     11.010327   0.000000   0.000000
   46       11.009310     11.261272   0.000000   0.000000
   47       11.257212     11.335722   0.000000   0.000000
   48       11.295320     11.766352   0.000000   0.000000

  0.2857143E+00  0.1428571E+00  0.1237313E-14  0.2040816E-01
    1      -57.636116    -55.460411   1.000000   1.000000
    2      -57.542325    -55.338814   1.000000   1.000000
    3      -57.542188    -55.338075   1.000000   1.000000
    4      -24.296199    -24.297977   1.000000   1.000000
    5      -24.185546    -24.187511   1.000000   1.000000
    6      -11.327666    -11.194499   1.000000   1.000000
    7      -10.627429    -10.509165   1.000000   1.000000
    8      -10.184083    -10.020279   1.000000   1.000000
    9       -9.946946     -9.866335   1.000000   1.000000
   10       -7.970738     -7.970205   1.000000   1.000000
   11       -7.890262     -7.890910   1.000000   1.000000
   12       -7.670700     -7.660038   1.000000   1.000000
   13       -7.552052     -7.515079   1.000000   1.000000
   14       -6.911577     -6.867899   1.000000   1.000000
   15       -6.886511     -6.859442   1.000000   1.000000
   16        0.282866      2.105339   1.000000   1.000000
   17        1.021888      2.480672   1.000000   1.000000
   18        1.768233      2.718538   1.000000   1.000000
   19        1.845969      3.013599   1.000000   1.000000
   20        2.167866      3.457560   1.000000   1.000000
   21        2.416564      3.912439   1.000000   1.000000
   22        3.638694      4.362087   1.000000   1.000000
   23        4.051219      4.481150   1.000000   1.000000
   24        4.386120      4.707987   1.000000   1.000000
   25        4.531645      4.821652   1.000000   1.000000
   26        4.622095      4.922583   1.000000   1.000000
   27        4.671656      5.184482   1.000000   1.000000
   28        5.015285      5.252565   1.000000   1.000000
   29        5.231704      5.573170   1.000000   1.000000
   30        5.486516      5.886152   1.000000   1.000000
   31        5.743533      9.974259   1.000000   0.000000
   32        6.185902     10.146598   1.000000   0.000000
   33        9.978579     10.415148   0.000000   0.000000
   34       10.146602     10.506435   0.000000   0.000000
   35       10.509655     10.590057   0.000000   0.000000
   36       10.571358     10.659093   0.000000   0.000000
   37       10.657114     10.687923   0.000000   0.000000
   38       10.680323     10.717394   0.000000   0.000000
   39       10.704687     10.753575   0.000000   0.000000
   40       10.748818     10.797721   0.000000   0.000000
   41       10.799677     10.831616   0.000000   0.000000
   42       10.825459     10.842591   0.000000   0.000000
   43       10.842416     10.869272   0.000000   0.000000
   44       10.867892     10.936308   0.000000   0.000000
   45       10.928919     11.032121   0.000000   0.000000
   46       11.011534     11.568564   0.000000   0.000000
   47       11.550201     11.780694   0.000000   0.000000
   48       11.759368     12.035129   0.000000   0.000000

  0.4285714E+00  0.1428571E+00  0.1261685E-14  0.2040816E-01
    1      -57.636265    -55.460530   1.000000   1.000000
    2      -57.542318    -55.338831   1.000000   1.000000
    3      -57.542203    -55.338041   1.000000   1.000000
    4      -24.270081    -24.271950   1.000000   1.000000
    5      -24.183095    -24.185030   1.000000   1.000000
    6      -11.236744    -11.103102   1.000000   1.000000
    7      -10.832010    -10.724630   1.000000   1.000000
    8      -10.147707    -10.048249   1.000000   1.000000
    9       -9.957205     -9.846304   1.000000   1.000000
   10       -8.074396     -8.074299   1.000000   1.000000
   11       -7.825984     -7.826739   1.000000   1.000000
   12       -7.753892     -7.748315   1.000000   1.000000
   13       -7.501253     -7.457442   1.000000   1.000000
   14       -6.946053     -6.914377   1.000000   1.000000
   15       -6.784043     -6.754718   1.000000   1.000000
   16       -0.221904      2.046651   1.000000   1.000000
   17        1.024908      2.296295   1.000000   1.000000
   18        1.673184      2.327026   1.000000   1.000000
   19        1.689265      3.017739   1.000000   1.000000
   20        2.159777      3.621260   1.000000   1.000000
   21        2.360382      3.824054   1.000000   1.000000
   22        3.636439      4.289593   1.000000   1.000000
   23        4.228215      4.590902   1.000000   1.000000
   24        4.310872      4.634185   1.000000   1.000000
   25        4.565793      4.859044   1.000000   1.000000
   26        4.663733      4.954424   1.000000   1.000000
   27        4.787755      5.077718   1.000000   1.000000
   28        5.010712      5.382012   1.000000   1.000000
   29        5.326442      5.633406   1.000000   1.000000
   30        5.502632      5.772886   1.000000   1.000000
   31        5.567736     10.198844   1.000000   0.000000
   32        6.422636     10.310598   1.000000   0.000000
   33       10.205901     10.413509   0.000000   0.000000
   34       10.331790     10.456718   0.000000   0.000000
   35       10.463123     10.612681   0.000000   0.000000
   36       10.608865     10.652490   0.000000   0.000000
   37       10.649476     10.683944   0.000000   0.000000
   38       10.675149     10.689392   0.000000   0.000000
   39       10.681502     10.778760   0.000000   0.000000
   40       10.747585     10.792218   0.000000   0.000000
   41       10.791142     10.817716   0.000000   0.000000
   42       10.817244     10.829849   0.000000   0.000000
   43       10.823792     10.842671   0.000000   0.000000
   44       10.839843     10.916081   0.000000   0.000000
   45       10.913662     11.020469   0.000000   0.000000
   46       10.991668     11.780974   0.000000   0.000000
   47       11.778909     12.089203   0.000000   0.000000
   48       12.078393     12.356360   0.000000   0.000000

 -0.4285714E+00  0.1428571E+00  0.1272736E-14  0.2040816E-01
    1      -57.636174    -55.460464   1.000000   1.000000
    2      -57.542306    -55.338805   1.000000   1.000000
    3      -57.542189    -55.338031   1.000000   1.000000
    4      -24.276399    -24.278252   1.000000   1.000000
    5      -24.176577    -24.178530   1.000000   1.000000
    6      -11.150460    -10.996286   1.000000   1.000000
    7      -10.906437    -10.812644   1.000000   1.000000
    8      -10.167400    -10.099918   1.000000   1.000000
    9      -10.005943     -9.874776   1.000000   1.000000
   10       -8.029057     -8.028879   1.000000   1.000000
   11       -7.848634     -7.847987   1.000000   1.000000
   12       -7.722982     -7.718497   1.000000   1.000000
   13       -7.414189     -7.365941   1.000000   1.000000
   14       -6.980959     -6.946050   1.000000   1.000000
   15       -6.821533     -6.794204   1.000000   1.000000
   16       -0.222408      1.949614   1.000000   1.000000
   17        1.024310      2.278280   1.000000   1.000000
   18        1.654498      2.401575   1.000000   1.000000
   19        1.673486      3.020244   1.000000   1.000000
   20        2.161548      3.600394   1.000000   1.000000
   21        2.336305      3.855806   1.000000   1.000000
   22        3.662867      4.299173   1.000000   1.000000
   23        4.246925      4.463887   1.000000   1.000000
   24        4.282377      4.720685   1.000000   1.000000
   25        4.606503      4.844080   1.000000   1.000000
   26        4.637736      5.047841   1.000000   1.000000
   27        4.806026      5.091751   1.000000   1.000000
   28        5.042956      5.315847   1.000000   1.000000
   29        5.295941      5.560834   1.000000   1.000000
   30        5.396337      5.866336   1.000000   1.000000
   31        5.721958     10.210468   1.000000   0.000000
   32        6.352825     10.323120   1.000000   0.000000
   33       10.217495     10.397612   0.000000   0.000000
   34       10.331396     10.434913   0.000000   0.000000
   35       10.452625     10.625333   0.000000   0.000000
   36       10.617738     10.661562   0.000000   0.000000
   37       10.652414     10.685828   0.000000   0.000000
   38       10.680159     10.700538   0.000000   0.000000
   39       10.685908     10.769060   0.000000   0.000000
   40       10.741472     10.784463   0.000000   0.000000
   41       10.780060     10.815731   0.000000   0.000000
   42       10.808657     10.827428   0.000000   0.000000
   43       10.823712     10.867841   0.000000   0.000000
   44       10.868945     10.905299   0.000000   0.000000
   45       10.903544     11.047675   0.000000   0.000000
   46       11.023168     11.729318   0.000000   0.000000
   47       11.739000     12.032065   0.000000   0.000000
   48       12.025768     12.370616   0.000000   0.000000

 -0.2857143E+00  0.1428571E+00  0.1258350E-14  0.2040816E-01
    1      -57.636137    -55.460430   1.000000   1.000000
    2      -57.542251    -55.338768   1.000000   1.000000
    3      -57.542182    -55.337989   1.000000   1.000000
    4      -24.307310    -24.309062   1.000000   1.000000
    5      -24.173974    -24.175968   1.000000   1.000000
    6      -11.253770    -11.107648   1.000000   1.000000
    7      -10.680569    -10.561836   1.000000   1.000000
    8      -10.142487    -10.059001   1.000000   1.000000
    9      -10.105620     -9.966024   1.000000   1.000000
   10       -7.995094     -7.998470   1.000000   1.000000
   11       -7.777459     -7.777643   1.000000   1.000000
   12       -7.681380     -7.668705   1.000000   1.000000
   13       -7.386303     -7.347497   1.000000   1.000000
   14       -6.976013     -6.931570   1.000000   1.000000
   15       -6.945647     -6.908778   1.000000   1.000000
   16        0.284344      2.002753   1.000000   1.000000
   17        1.021628      2.442642   1.000000   1.000000
   18        1.718210      2.769614   1.000000   1.000000
   19        1.826232      3.021106   1.000000   1.000000
   20        2.172008      3.451293   1.000000   1.000000
   21        2.376762      3.940710   1.000000   1.000000
   22        3.627733      4.285082   1.000000   1.000000
   23        4.099455      4.596774   1.000000   1.000000
   24        4.446745      4.718615   1.000000   1.000000
   25        4.550205      4.826963   1.000000   1.000000
   26        4.686020      4.982606   1.000000   1.000000
   27        4.737324      5.007221   1.000000   1.000000
   28        4.926163      5.249834   1.000000   1.000000
   29        5.094166      5.533780   1.000000   1.000000
   30        5.478448      6.024029   1.000000   1.000000
   31        5.888845     10.005211   1.000000   0.000000
   32        6.071169     10.152153   1.000000   0.000000
   33       10.000458     10.385932   0.000000   0.000000
   34       10.165231     10.494449   0.000000   0.000000
   35       10.508991     10.622075   0.000000   0.000000
   36       10.582600     10.659846   0.000000   0.000000
   37       10.648455     10.682339   0.000000   0.000000
   38       10.676288     10.698871   0.000000   0.000000
   39       10.694526     10.754230   0.000000   0.000000
   40       10.751436     10.806942   0.000000   0.000000
   41       10.806111     10.827011   0.000000   0.000000
   42       10.823276     10.857338   0.000000   0.000000
   43       10.853562     10.867809   0.000000   0.000000
   44       10.862799     10.967549   0.000000   0.000000
   45       10.965149     11.084327   0.000000   0.000000
   46       11.074060     11.556303   0.000000   0.000000
   47       11.551450     11.688020   0.000000   0.000000
   48       11.677659     12.046059   0.000000   0.000000

 -0.1428571E+00  0.1428571E+00  0.1248089E-14  0.1020408E-01
    1      -57.636119    -55.460413   1.000000   1.000000
    2      -57.542347    -55.338795   1.000000   1.000000
    3      -57.542073    -55.337973   1.000000   1.000000
    4      -24.337840    -24.339491   1.000000   1.000000
    5      -24.178651    -24.180671   1.000000   1.000000
    6      -11.439052    -11.291982   1.000000   1.000000
    7      -10.302945    -10.240059   1.000000   1.000000
    8      -10.241491     -9.945040   1.000000   1.000000
    9       -9.993398     -9.942970   1.000000   1.000000
   10       -7.944556     -7.949672   1.000000   1.000000
   11       -7.743543     -7.747379   1.000000   1.000000
   12       -7.698232     -7.670431   1.000000   1.000000
   13       -7.601252     -7.594944   1.000000   1.000000
   14       -7.042148     -7.031092   1.000000   1.000000
   15       -6.818804     -6.733026   1.000000   1.000000
   16        1.016422      2.305144   1.000000   1.000000
   17        1.021781      2.715024   1.000000   1.000000
   18        1.929718      3.076344   1.000000   1.000000
   19        2.065704      3.150028   1.000000   1.000000
   20        2.211516      3.198944   1.000000   1.000000
   21        2.505323      3.832499   1.000000   1.000000
   22        3.428116      4.131819   1.000000   1.000000
   23        3.648907      4.505476   1.000000   1.000000
   24        4.305465      4.874670   1.000000   1.000000
   25        4.669466      4.939287   1.000000   1.000000
   26        4.808725      4.951944   1.000000   1.000000
   27        4.832827      5.028853   1.000000   1.000000
   28        4.833080      5.123868   1.000000   1.000000
   29        5.055690      5.700501   1.000000   1.000000
   30        5.255587      6.094042   1.000000   1.000000
   31        5.857649      9.673732   1.000000   0.000000
   32        5.990051     10.102296   1.000000   0.000000
   33        9.666304     10.368429   0.000000   0.000000
   34       10.114092     10.455711   0.000000   0.000000
   35       10.465225     10.574086   0.000000   0.000000
   36       10.549138     10.662594   0.000000   0.000000
   37       10.655514     10.666555   0.000000   0.000000
   38       10.658149     10.691124   0.000000   0.000000
   39       10.684023     10.792796   0.000000   0.000000
   40       10.791164     10.806182   0.000000   0.000000
   41       10.805681     10.845340   0.000000   0.000000
   42       10.846815     10.861669   0.000000   0.000000
   43       10.860576     10.910420   0.000000   0.000000
   44       10.900756     11.014784   0.000000   0.000000
   45       11.015189     11.124595   0.000000   0.000000
   46       11.122049     11.206143   0.000000   0.000000
   47       11.197373     11.317400   0.000000   0.000000
   48       11.313847     11.654072   0.000000   0.000000

  0.2857143E+00  0.2857143E+00  0.1194046E-14  0.1020408E-01
    1      -57.636181    -55.460465   1.000000   1.000000
    2      -57.542341    -55.338828   1.000000   1.000000
    3      -57.542219    -55.338062   1.000000   1.000000
    4      -24.267567    -24.269438   1.000000   1.000000
    5      -24.180269    -24.182204   1.000000   1.000000
    6      -11.239040    -11.123146   1.000000   1.000000
    7      -10.568442    -10.379815   1.000000   1.000000
    8      -10.333554    -10.286813   1.000000   1.000000
    9       -9.864487     -9.769736   1.000000   1.000000
   10       -8.062273     -8.063788   1.000000   1.000000
   11       -8.056389     -8.058333   1.000000   1.000000
   12       -7.745491     -7.734380   1.000000   1.000000
   13       -7.577867     -7.533475   1.000000   1.000000
   14       -6.969527     -6.936296   1.000000   1.000000
   15       -6.843242     -6.818282   1.000000   1.000000
   16        0.153069      1.763205   1.000000   1.000000
   17        0.492959      2.327090   1.000000   1.000000
   18        1.635955      2.613174   1.000000   1.000000
   19        1.884154      2.785622   1.000000   1.000000
   20        2.005521      3.707355   1.000000   1.000000
   21        2.051360      4.088040   1.000000   1.000000
   22        3.828048      4.367382   1.000000   1.000000