Automatically generated mesh
      60
Reciprocal lattice
    0.00000000000000    0.00000000000000    0.00000000000000             1
    0.14285714285715    0.00000000000000    0.00000000000000             4
    0.28571428571429    0.00000000000000    0.00000000000000             4
    0.42857142857143    0.00000000000000    0.00000000000000             4
    0.14285714285715    0.14285714285715    0.00000000000000             2
    0.28571428571429    0.14285714285715    0.00000000000000             4
    0.42857142857143    0.14285714285715    0.00000000000000             4
   -0.42857142857143    0.14285714285715    0.00000000000000             4
   -0.28571428571428    0.14285714285715    0.00000000000000             4
   -0.14285714285714    0.14285714285715    0.00000000000000             2
    0.28571428571429    0.28571428571429    0.00000000000000             2
    0.42857142857143    0.28571428571429    0.00000000000000             4
   -0.42857142857143    0.28571428571429    0.00000000000000             4
   -0.28571428571428    0.28571428571429    0.00000000000000             2
    0.42857142857143    0.42857142857143    0.00000000000000             2
   -0.42857142857143    0.42857142857143    0.00000000000000             2
    0.00000000000000    0.00000000000000    0.25000000000000             2
    0.14285714285715    0.00000000000000    0.25000000000000             4
    0.28571428571429    0.00000000000000    0.25000000000000             4
    0.42857142857143    0.00000000000000    0.25000000000000             4
   -0.42857142857143    0.00000000000000    0.25000000000000             4
   -0.28571428571428    0.00000000000000    0.25000000000000             4
   -0.14285714285714    0.00000000000000    0.25000000000000             4
    0.14285714285715    0.14285714285715    0.25000000000000             2
    0.28571428571429    0.14285714285715    0.25000000000000             4
    0.42857142857143    0.14285714285715    0.25000000000000             4
   -0.42857142857143    0.14285714285715    0.25000000000000             4
   -0.28571428571428    0.14285714285715    0.25000000000000             4
   -0.14285714285714    0.14285714285715    0.25000000000000             4
    0.28571428571429    0.28571428571429    0.25000000000000             2
    0.42857142857143    0.28571428571429    0.25000000000000             4
   -0.42857142857143    0.28571428571429    0.25000000000000             4
   -0.28571428571428    0.28571428571429    0.25000000000000             4
   -0.14285714285714    0.28571428571429    0.25000000000000             4
    0.42857142857143    0.42857142857143    0.25000000000000             2
   -0.42857142857143    0.42857142857143    0.25000000000000             4
   -0.28571428571428    0.42857142857143    0.25000000000000             4
   -0.14285714285714    0.42857142857143    0.25000000000000             4
   -0.42857142857143   -0.42857142857143    0.25000000000000             2
   -0.28571428571428   -0.42857142857143    0.25000000000000             4
   -0.14285714285714   -0.42857142857143    0.25000000000000             4
   -0.28571428571428   -0.28571428571428    0.25000000000000             2
   -0.14285714285714   -0.28571428571428    0.25000000000000             4
   -0.14285714285714   -0.14285714285714    0.25000000000000             2
    0.00000000000000    0.00000000000000    0.50000000000000             1
    0.14285714285715    0.00000000000000    0.50000000000000             4
    0.28571428571429    0.00000000000000    0.50000000000000             4
    0.42857142857143    0.00000000000000    0.50000000000000             4
    0.14285714285715    0.14285714285715    0.50000000000000             2
    0.28571428571429    0.14285714285715    0.50000000000000             4
    0.42857142857143    0.14285714285715    0.50000000000000             4
   -0.42857142857143    0.14285714285715    0.50000000000000             4
   -0.28571428571428    0.14285714285715    0.50000000000000             4
   -0.14285714285714    0.14285714285715    0.50000000000000             2
    0.28571428571429    0.28571428571429    0.50000000000000             2
    0.42857142857143    0.28571428571429    0.50000000000000             4
   -0.42857142857143    0.28571428571429    0.50000000000000             4
   -0.28571428571428    0.28571428571429    0.50000000000000             2
    0.42857142857143    0.42857142857143    0.50000000000000             2
   -0.42857142857143    0.42857142857143    0.50000000000000             2
Tetrahedra
       294    0.00085034013605
         4         1         2         5        17
         4         2         5        17        18
         4         5        17        18        24
         4         2         3         6        18
         4         2         5         6        18
         4         5         6        18        24
         4         3         6        18        19
         4         6        18        19        25
         4         6        18        24        25
         4         3         4         7        19
         4         3         6         7        19
         4         6         7        19        25
         4         4         7        19        20
         4         7        19        20        26
         4         7        19        25        26
         4         4         4         8        20
         4         4         7         8        20
         4         7         8        20        26
         4         4         8        20        21
         4         8        20        21        27
         4         8        20        26        27
         4         3         4         9        21
         4         4         8         9        21
         4         8         9        21        27
         4         3         9        21        22
         4         9        21        22        28
         4         9        21        27        28
         4         2         3        10        22
         4         3         9        10        22
         4         9        10        22        28
         4         2        10        22        23
         4        10        22        23        29
         4        10        22        28        29
         4         1         2         2        23
         4         2         2        10        23
         4         2        10        23        29
         4         1         2        17        23
         4         2        17        18        23
         4         2        18        23        29
         4         5         6        11        24
         4         6        11        24        25
         4        11        24        25        30
         4         6         7        12        25
         4         6        11        12        25
         4        11        12        25        30
         4         7        12        25        26
         4        12        25        26        31
         4        12        25        30        31
         4         7         8        13        26
         4         7        12        13        26
         4        12        13        26        31
         4         8        13        26        27
         4        13        26        27        32
         4        13        26        31        32
         4         8         9        14        27
         4         8        13        14        27
         4        13        14        27        32
         4         9        14        27        28
         4        14        27        28        33
         4        14        27        32        33
         4         9         9        10        28
         4         9         9        14        28
         4         9        14        28        33
         4         9        10        28        29
         4         9        28        29        34
         4         9        28        33        34
         4         2         3        10        29
         4         3         9        10        29
         4         3         9        29        34
         4         2         3        18        29
         4         3        18        19        29
         4         3        19        29        34
         4        11        12        15        30
         4        12        15        30        31
         4        15        30        31        35
         4        12        13        16        31
         4        12        15        16        31
         4        15        16        31        35
         4        13        16        31        32
         4        16        31        32        36
         4        16        31        35        36
         4        13        13        14        32
         4        13        13        16        32
         4        13        16        32        36
         4        13        14        32        33
         4        13        32        33        37
         4        13        32        36        37
         4         8         9        14        33
         4         8        13        14        33
         4         8        13        33        37
         4         8         9        33        34
         4         8        33        34        38
         4         8        33        37        38
         4         3         4         9        34
         4         4         8         9        34
         4         4         8        34        38
         4         3         4        19        34
         4         4        19        20        34
         4         4        20        34        38
         4        15        15        16        35
         4        15        16        35        36
         4        15        35        36        39
         4        12        13        16        36
         4        12        15        16        36
         4        12        15        36        39
         4        12        13        36        37
         4        12        36        37        40
         4        12        36        39        40
         4         7         8        13        37
         4         7        12        13        37
         4         7        12        37        40
         4         7         8        37        38
         4         7        37        38        41
         4         7        37        40        41
         4         4         4         8        38
         4         4         7         8        38
         4         4         7        38        41
         4         4         4        20        38
         4         4        20        21        38
         4         4        21        38        41
         4        11        12        15        39
         4        11        12        39        40
         4        11        39        40        42
         4         6         7        12        40
         4         6        11        12        40
         4         6        11        40        42
         4         6         7        40        41
         4         6        40        41        43
         4         6        40        42        43
         4         3         4         7        41
         4         3         6         7        41
         4         3         6        41        43
         4         3         4        21        41
         4         3        21        22        41
         4         3        22        41        43
         4         5         6        11        42
         4         5         6        42        43
         4         5        42        43        44
         4         2         3         6        43
         4         2         5         6        43
         4         2         5        43        44
         4         2         3        22        43
         4         2        22        23        43
         4         2        23        43        44
         4         1         2         5        44
         4         1         2        23        44
         4         1        17        23        44
         4        17        18        24        45
         4        18        24        45        46
         4        24        45        46        49
         4        18        19        25        46
         4        18        24        25        46
         4        24        25        46        49
         4        19        25        46        47
         4        25        46        47        50
         4        25        46        49        50
         4        19        20        26        47
         4        19        25        26        47
         4        25        26        47        50
         4        20        26        47        48
         4        26        47        48        51
         4        26        47        50        51
         4        20        21        27        48
         4        20        26        27        48
         4        26        27        48        51
         4        21        27        48        48
         4        27        48        48        52
         4        27        48        51        52
         4        21        22        28        48
         4        21        27        28        48
         4        27        28        48        52
         4        22        28        47        48
         4        28        47        48        53
         4        28        48        52        53
         4        22        23        29        47
         4        22        28        29        47
         4        28        29        47        53
         4        23        29        46        47
         4        29        46        47        54
         4        29        47        53        54
         4        17        18        23        46
         4        18        23        29        46
         4        18        29        46        54
         4        17        18        45        46
         4        18        45        46        46
         4        18        46        46        54
         4        24        25        30        49
         4        25        30        49        50
         4        30        49        50        55
         4        25        26        31        50
         4        25        30        31        50
         4        30        31        50        55
         4        26        31        50        51
         4        31        50        51        56
         4        31        50        55        56
         4        26        27        32        51
         4        26        31        32        51
         4        31        32        51        56
         4        27        32        51        52
         4        32        51        52        57
         4        32        51        56        57
         4        27        28        33        52
         4        27        32        33        52
         4        32        33        52        57
         4        28        33        52        53
         4        33        52        53        58
         4        33        52        57        58
         4        28        29        34        53
         4        28        33        34        53
         4        33        34        53        58
         4        29        34        53        54
         4        34        53        53        54
         4        34        53        53        58
         4        18        19        29        54
         4        19        29        34        54
         4        19        34        53        54
         4        18        19        46        54
         4        19        46        47        54
         4        19        47        53        54
         4        30        31        35        55
         4        31        35        55        56
         4        35        55        56        59
         4        31        32        36        56
         4        31        35        36        56
         4        35        36        56        59
         4        32        36        56        57
         4        36        56        57        60
         4        36        56        59        60
         4        32        33        37        57
         4        32        36        37        57
         4        36        37        57        60
         4        33        37        57        58
         4        37        57        57        58
         4        37        57        57        60
         4        33        34        38        58
         4        33        37        38        58
         4        37        38        57        58
         4        34        38        53        58
         4        38        52        53        58
         4        38        52        57        58
         4        19        20        34        53
         4        20        34        38        53
         4        20        38        52        53
         4        19        20        47        53
         4        20        47        48        53
         4        20        48        52        53
         4        35        36        39        59
         4        36        39        59        60
         4        39        59        59        60
         4        36        37        40        60
         4        36        39        40        60
         4        39        40        59        60
         4        37        40        57        60
         4        40        56        57        60
         4        40        56        59        60
         4        37        38        41        57
         4        37        40        41        57
         4        40        41        56        57
         4        38        41        52        57
         4        41        51        52        57
         4        41        51        56        57
         4        20        21        38        52
         4        21        38        41        52
         4        21        41        51        52
         4        20        21        48        52
         4        21        48        48        52
         4        21        48        51        52
         4        39        40        42        59
         4        40        42        56        59
         4        42        55        56        59
         4        40        41        43        56
         4        40        42        43        56
         4        42        43        55        56
         4        41        43        51        56
         4        43        50        51        56
         4        43        50        55        56
         4        21        22        41        51
         4        22        41        43        51
         4        22        43        50        51
         4        21        22        48        51
         4        22        47        48        51
         4        22        47        50        51
         4        42        43        44        55
         4        43        44        50        55
         4        44        49        50        55
         4        22        23        43        50
         4        23        43        44        50
         4        23        44        49        50
         4        22        23        47        50
         4        23        46        47        50
         4        23        46        49        50
         4        17        23        44        49
         4        17        23        46        49
         4        17        45        46        49
