       N       E                     dE             d eps       ncg     rms          rms(c)
DAV:   1     0.364184653190E+03    0.36418E+03   -0.33704E+04 11520   0.207E+03
DAV:   2    -0.487643972432E+02   -0.41295E+03   -0.41265E+03 17424   0.230E+02
DAV:   3    -0.570846553581E+02   -0.83203E+01   -0.83148E+01 11568   0.510E+01
DAV:   4    -0.573830949087E+02   -0.29844E+00   -0.29690E+00 22896   0.885E+00
DAV:   5    -0.573846160222E+02   -0.15211E-02   -0.15336E-02 11616   0.385E-01    0.355E+01
RMM:   6    -0.605631231525E+02   -0.31785E+01   -0.25305E+02 18192   0.985E+01    0.123E+02
RMM:   7    -0.605353681177E+02    0.27755E-01   -0.47154E+01 20086   0.301E+01    0.686E+01
RMM:   8    -0.510174883180E+02    0.95179E+01   -0.28784E+01 16145   0.302E+01    0.273E+01
RMM:   9    -0.498823978464E+02    0.11351E+01   -0.88882E+00 18244   0.133E+01    0.109E+01
RMM:  10    -0.501174267015E+02   -0.23503E+00   -0.66204E+00 18052   0.110E+01    0.439E+00
RMM:  11    -0.504275525353E+02   -0.31013E+00   -0.14331E+00 20127   0.423E+00    0.371E+00
RMM:  12    -0.505717548050E+02   -0.14420E+00   -0.38048E-01 20357   0.284E+00    0.237E+00
RMM:  13    -0.506163097429E+02   -0.44555E-01   -0.16783E-01 20131   0.187E+00    0.152E+00
RMM:  14    -0.506232869049E+02   -0.69772E-02   -0.75335E-02 19556   0.936E-01    0.100E+00
RMM:  15    -0.506256167703E+02   -0.23299E-02   -0.34231E-02 18891   0.799E-01    0.659E-01
RMM:  16    -0.506279622560E+02   -0.23455E-02   -0.23137E-02 16428   0.487E-01    0.438E-01
RMM:  17    -0.506292512100E+02   -0.12890E-02   -0.11633E-02 15549   0.397E-01    0.287E-01
RMM:  18    -0.506300719874E+02   -0.82078E-03   -0.97880E-03 15502   0.391E-01    0.123E-01
RMM:  19    -0.506307443843E+02   -0.67240E-03   -0.79998E-03 14171   0.309E-01    0.104E-01
RMM:  20    -0.506312456999E+02   -0.50132E-03   -0.55250E-03 13991   0.251E-01    0.977E-02
RMM:  21    -0.506317261894E+02   -0.48049E-03   -0.52279E-03 13572   0.212E-01    0.851E-02
RMM:  22    -0.506320179099E+02   -0.29172E-03   -0.34900E-03 13112   0.194E-01
   1 F= -.50632018E+02 E0= -.50632018E+02  d E =0.000000E+00  mag=     2.0472
