 vasp.6.2.1 16May21 (build Aug 15 2022 14:47:30) complex                         
 executed on             LinuxGNU date 2025.12.04  19:34:44
 running on   48 total cores
 distrk:  each k-point on   48 cores,    1 groups
 distr:  one band on NCORE=   1 cores,   48 groups


--------------------------------------------------------------------------------------------------------


 INCAR:
   ALGO = Fast
   EDIFF = 0.00035
   ENCUT = 520.0
   ISMEAR = -5
   ISPIN = 2
   LASPH = True
   LCHARG = True
   LDAU = True
   LDAUJ = 0 0 0
   LDAUL = 0 2 0
   LDAUPRINT = 1
   LDAUTYPE = 2
   LDAUU = 0 6.2 0
   LMAXMIX = 6
   LORBIT = 11
   LREAL = False
   LWAVE = False
   MAGMOM = 2*0.6 1*5.0 4*0.6
   NELM = 100
   NSW = 0
   PREC = Accurate
   SIGMA = 0.05

 POTCAR:    PAW_PBE La 06Sep2000                  
 POTCAR:    PAW_PBE Ni_pv 06Sep2000               
 POTCAR:    PAW_PBE O 08Apr2002                   
 -----------------------------------------------------------------------------
|                                                                             |
|           W    W    AA    RRRRR   N    N  II  N    N   GGGG   !!!           |
|           W    W   A  A   R    R  NN   N  II  NN   N  G    G  !!!           |
|           W    W  A    A  R    R  N N  N  II  N N  N  G       !!!           |
|           W WW W  AAAAAA  RRRRR   N  N N  II  N  N N  G  GGG   !            |
|           WW  WW  A    A  R   R   N   NN  II  N   NN  G    G                |
|           W    W  A    A  R    R  N    N  II  N    N   GGGG   !!!           |
|                                                                             |
|     For optimal performance we recommend to set                             |
|       NCORE = 2 up to number-of-cores-per-socket                            |
|     NCORE specifies how many cores store one orbital (NPAR=cpu/NCORE).      |
|     This setting can greatly improve the performance of VASP for DFT.       |
|     The default, NCORE=1 might be grossly inefficient on modern             |
|     multi-core architectures or massively parallel machines. Do your        |
|     own testing! More info at https://www.vasp.at/wiki/index.php/NCORE      |
|     Unfortunately you need to use the default for GW and RPA                |
|     calculations (for HF NCORE is supported but not extensively tested      |
|     yet).                                                                   |
|                                                                             |
 -----------------------------------------------------------------------------

 POTCAR:    PAW_PBE La 06Sep2000                  
   VRHFIN =La : [core=Kr4d]                                                                         
   LEXCH  = PE                                                                                      
   EATOM  =   865.9763 eV,   63.6475 Ry                                                             
                                                                                                    
   TITEL  = PAW_PBE La 06Sep2000                                                                    
   LULTRA =        F    use ultrasoft PP ?                                                          
   IUNSCR =        1    unscreen: 0-lin 1-nonlin 2-no                                               
   RPACOR =    2.300    partial core radius                                                         
   POMASS =  138.900; ZVAL   =   11.000    mass and valenz                                          
   RCORE  =    2.800    outmost cutoff radius                                                       
   RWIGS  =    2.900; RWIGS  =    1.535    wigner-seitz radius (au A)                               
   ENMAX  =  219.292; ENMIN  =  164.469 eV                                                          
   RCLOC  =    1.601    cutoff for local pot                                                        
   LCOR   =        T    correct aug charges                                                         
   LPAW   =        T    paw PP                                                                      
   EAUG   =  583.575                                                                                
   DEXC   =    0.000                                                                                
   RMAX   =    2.853    core radius for proj-oper                                                   
   RAUG   =    1.300    factor for augmentation sphere                                              
   RDEP   =    2.802    radius for radial grids                                                     
   RDEPT  =    2.156    core radius for aug-charge                                                  
                                                                                                    
   Atomic configuration                                                                             
   14 entries                                                                                       
     n  l   j            E        occ.                                                              
     1  0  0.50    -38741.0879   2.0000                                                             
     2  0  0.50     -6166.6801   2.0000                                                             
     2  1  1.50     -5526.1593   6.0000                                                             
     3  0  0.50     -1319.0200   2.0000                                                             
     3  1  1.50     -1114.5963   6.0000                                                             
     3  2  2.50      -821.1793  10.0000                                                             
     4  0  0.50      -266.3851   2.0000                                                             
     4  1  1.50      -199.9276   6.0000                                                             
     4  2  2.50      -103.8239  10.0000                                                             
     5  0  0.50       -38.9172   2.0000                                                             
     6  0  0.50        -3.6792   2.0000                                                             
     5  1  1.50       -22.3948   6.0000                                                             
     5  2  2.50        -3.0911   0.9999                                                             
     4  3  2.50        -4.3603   0.0001                                                             
   Description                                                                                      
     l       E           TYP  RCUT    TYP  RCUT                                                     
     0    -38.9171645     23  2.800                                                                 
     0     -3.6792381     23  2.800                                                                 
     1    -22.3948300     23  2.500                                                                 
     1     27.2116520     23  2.500                                                                 
     2     -3.0910934     23  2.500                                                                 
     2      1.0119135     23  2.500                                                                 
     3     -4.3602911     23  2.800                                                                 
     3     -5.7208737     23  2.800                                                                 
  local pseudopotential read in
  partial core-charges read in
  partial kinetic energy density read in
  atomic valenz-charges read in
  non local Contribution for L=           0  read in
    real space projection operators read in
  non local Contribution for L=           0  read in
    real space projection operators read in
  non local Contribution for L=           1  read in
    real space projection operators read in
  non local Contribution for L=           1  read in
    real space projection operators read in
  non local Contribution for L=           2  read in
    real space projection operators read in
  non local Contribution for L=           2  read in
    real space projection operators read in
  non local Contribution for L=           3  read in
    real space projection operators read in
  non local Contribution for L=           3  read in
    real space projection operators read in
    PAW grid and wavefunctions read in

   number of l-projection  operators is LMAX  =           8
   number of lm-projection operators is LMMAX =          32

 POTCAR:    PAW_PBE Ni_pv 06Sep2000               
   VRHFIN =Ni:                                                                                      
   LEXCH  = PE                                                                                      
   EATOM  =  3501.1230 eV,  257.3253 Ry                                                             
                                                                                                    
   TITEL  = PAW_PBE Ni_pv 06Sep2000                                                                 
   LULTRA =        F    use ultrasoft PP ?                                                          
   IUNSCR =        1    unscreen: 0-lin 1-nonlin 2-no                                               
   RPACOR =    1.500    partial core radius                                                         
   POMASS =   58.690; ZVAL   =   16.000    mass and valenz                                          
   RCORE  =    2.000    outmost cutoff radius                                                       
   RWIGS  =    2.000; RWIGS  =    1.058    wigner-seitz radius (au A)                               
   ENMAX  =  367.986; ENMIN  =  275.989 eV                                                          
   RCLOC  =    1.301    cutoff for local pot                                                        
   LCOR   =        T    correct aug charges                                                         
   LPAW   =        T    paw PP                                                                      
   EAUG   =  703.443                                                                                
   DEXC   =    0.000                                                                                
   RMAX   =    2.041    core radius for proj-oper                                                   
   RAUG   =    1.300    factor for augmentation sphere                                              
   RDEP   =    2.103    radius for radial grids                                                     
   RDEPT  =    1.618    core radius for aug-charge                                                  
                                                                                                    
   Atomic configuration                                                                             
    8 entries                                                                                       
     n  l   j            E        occ.                                                              
     1  0  0.50     -8206.4253   2.0000                                                             
     2  0  0.50      -976.1748   2.0000                                                             
     2  1  1.50      -839.0571   6.0000                                                             
     3  0  0.50      -105.9991   2.0000                                                             
     3  1  1.50       -66.4603   6.0000                                                             
     3  2  2.50        -4.6458   9.0000                                                             
     4  0  0.50        -4.4926   1.0000                                                             
     4  3  2.50        -1.3606   0.0000                                                             
   Description                                                                                      
     l       E           TYP  RCUT    TYP  RCUT                                                     
     1    -66.4602962     23  1.700                                                                 
     1     -1.3605826     23  1.700                                                                 
     2     -4.6457867     23  2.000                                                                 
     2     -6.0063693     23  2.000                                                                 
     0     -4.4925576     23  1.900                                                                 
     0     16.3626226     23  1.900                                                                 
  local pseudopotential read in
  partial core-charges read in
  partial kinetic energy density read in
  atomic valenz-charges read in
  non local Contribution for L=           1  read in
    real space projection operators read in
  non local Contribution for L=           1  read in
    real space projection operators read in
  non local Contribution for L=           2  read in
    real space projection operators read in
  non local Contribution for L=           2  read in
    real space projection operators read in
  non local Contribution for L=           0  read in
    real space projection operators read in
  non local Contribution for L=           0  read in
    real space projection operators read in
    PAW grid and wavefunctions read in

   number of l-projection  operators is LMAX  =           6
   number of lm-projection operators is LMMAX =          18

 POTCAR:    PAW_PBE O 08Apr2002                   
   VRHFIN =O: s2p4                                                                                  
   LEXCH  = PE                                                                                      
   EATOM  =   432.3788 eV,   31.7789 Ry                                                             
                                                                                                    
   TITEL  = PAW_PBE O 08Apr2002                                                                     
   LULTRA =        F    use ultrasoft PP ?                                                          
   IUNSCR =        1    unscreen: 0-lin 1-nonlin 2-no                                               
   RPACOR =    1.200    partial core radius                                                         
   POMASS =   16.000; ZVAL   =    6.000    mass and valenz                                          
   RCORE  =    1.520    outmost cutoff radius                                                       
   RWIGS  =    1.550; RWIGS  =    0.820    wigner-seitz radius (au A)                               
   ENMAX  =  400.000; ENMIN  =  300.000 eV                                                          
   ICORE  =        2    local potential                                                             
   LCOR   =        T    correct aug charges                                                         
   LPAW   =        T    paw PP                                                                      
   EAUG   =  605.392                                                                                
   DEXC   =    0.000                                                                                
   RMAX   =    1.553    core radius for proj-oper                                                   
   RAUG   =    1.300    factor for augmentation sphere                                              
   RDEP   =    1.550    radius for radial grids                                                     
   RDEPT  =    1.329    core radius for aug-charge                                                  
                                                                                                    
   Atomic configuration                                                                             
    4 entries                                                                                       
     n  l   j            E        occ.                                                              
     1  0  0.50      -514.6923   2.0000                                                             
     2  0  0.50       -23.9615   2.0000                                                             
     2  1  0.50        -9.0305   4.0000                                                             
     3  2  1.50        -9.5241   0.0000                                                             
   Description                                                                                      
     l       E           TYP  RCUT    TYP  RCUT                                                     
     0    -23.9615318     23  1.200                                                                 
     0     -9.5240782     23  1.200                                                                 
     1     -9.0304911     23  1.520                                                                 
     1      8.1634956     23  1.520                                                                 
     2     -9.5240782      7  1.500                                                                 
  local pseudopotential read in
  partial core-charges read in
  partial kinetic energy density read in
  kinetic energy density of atom read in
  atomic valenz-charges read in
  non local Contribution for L=           0  read in
    real space projection operators read in
  non local Contribution for L=           0  read in
    real space projection operators read in
  non local Contribution for L=           1  read in
    real space projection operators read in
  non local Contribution for L=           1  read in
    real space projection operators read in
    PAW grid and wavefunctions read in

   number of l-projection  operators is LMAX  =           4
   number of lm-projection operators is LMMAX =           8

  PAW_PBE La 06Sep2000                  :
 energy of atom  1       EATOM= -865.9763
 kinetic energy error for atom=    0.0009 (will be added to EATOM!!)
  PAW_PBE Ni_pv 06Sep2000               :
 energy of atom  2       EATOM=-3501.1230
 kinetic energy error for atom=    0.0575 (will be added to EATOM!!)
  PAW_PBE O 08Apr2002                   :
 energy of atom  3       EATOM= -432.3788
 kinetic energy error for atom=    0.0208 (will be added to EATOM!!)


 POSCAR: # Generated by Masgent for EOS calculati
  positions in direct lattice
  No initial velocities read in
 exchange correlation table for  LEXCH =        8
   RHO(1)=    0.500       N(1)  =     2000
   RHO(2)=  100.500       N(2)  =     4000

 VTST: version 4.2, (08/11/21)

 CHAIN: initializing optimizer
 
 OPT: Using VASP Dynamics algorithm
 CHAIN: Read ICHAIN            0

 POSCAR: # Generated by Masgent for EOS calculati
  positions in direct lattice
  No initial velocities read in



--------------------------------------------------------------------------------------------------------


 ion  position               nearest neighbor table
   1  0.363  0.363  0.727-   4 2.34   6 2.64   7 2.64   6 2.64   7 2.64   2 3.46
   2  0.637  0.637  0.273-   5 2.34   6 2.64   7 2.64   6 2.64   7 2.64   1 3.46
   3  0.000  0.000  0.000-   6 1.99   7 1.99   7 1.99   6 1.99
   4  0.179  0.179  0.358-   1 2.34
   5  0.821  0.821  0.642-   2 2.34
   6  0.500  0.000  0.000-   3 1.99   3 1.99   1 2.64   2 2.64   1 2.64   2 2.64
   7  0.000  0.500  0.000-   3 1.99   3 1.99   1 2.64   2 2.64   2 2.64   1 2.64

  LATTYP: Found a body centered tetragonal cell.
 ALAT       =     3.9757286849
 C/A-ratio  =     3.1906429261
  
  Lattice vectors:
  
 A1 = (   1.9878643425,  -1.9878643425,  -6.3425653024)
 A2 = (  -1.9878643425,   1.9878643425,  -6.3425653024)
 A3 = (   1.9878643425,   1.9878643425,   6.3425653024)


Analysis of symmetry for initial positions (statically):
=====================================================================
 Subroutine PRICEL returns:
 Original cell was already a primitive cell.
 

 Routine SETGRP: Setting up the symmetry group for a 
 body centered tetragonal supercell.


 Subroutine GETGRP returns: Found 16 space group operations
 (whereof 16 operations were pure point group operations)
 out of a pool of 16 trial point group operations.


The static configuration has the point symmetry D_4h.


Analysis of symmetry for dynamics (positions and initial velocities):
=====================================================================
 Subroutine PRICEL returns:
 Original cell was already a primitive cell.
 

 Routine SETGRP: Setting up the symmetry group for a 
 body centered tetragonal supercell.


 Subroutine GETGRP returns: Found 16 space group operations
 (whereof 16 operations were pure point group operations)
 out of a pool of 16 trial point group operations.


The dynamic configuration has the point symmetry D_4h.


Analysis of structural, dynamic, and magnetic symmetry:
=====================================================================
 Subroutine PRICEL returns:
 Original cell was already a primitive cell.
 

 Routine SETGRP: Setting up the symmetry group for a 
 body centered tetragonal supercell.


 Subroutine GETGRP returns: Found 16 space group operations
 (whereof 16 operations were pure point group operations)
 out of a pool of 16 trial point group operations.


The overall configuration has the point symmetry D_4h.


 Subroutine INISYM returns: Found 16 space group operations
 (whereof 16 operations are pure point group operations),
 and found     1 'primitive' translations


----------------------------------------------------------------------------------------

                                     Primitive cell                                     

  volume of cell :     100.2532

  direct lattice vectors                    reciprocal lattice vectors
     3.975728685  0.000000000  0.000000000     0.251526218 -0.000000000  0.078832456
     0.000000000  3.975728685  0.000000000    -0.000000000  0.251526218  0.078832456
    -1.987864342 -1.987864342  6.342565302     0.000000000  0.000000000  0.157664912

  length of vectors
     3.975728685  3.975728685  6.937675685     0.263590581  0.263590581  0.157664912

  position of ions in fractional coordinates (direct lattice)
     0.363473000  0.363473000  0.726946000
     0.636527000  0.636527000  0.273054000
     0.000000000  0.000000000  0.000000000
     0.178993000  0.178993000  0.357986000
     0.821007000  0.821007000  0.642014000
     0.500000000  0.000000000  0.000000000
     0.000000000  0.500000000  0.000000000

  ion indices of the primitive-cell ions
   primitive index   ion index
                 1           1
                 2           2
                 3           3
                 4           4
                 5           5
                 6           6
                 7           7

----------------------------------------------------------------------------------------



 KPOINTS: # Generated by Masgent for EOS calculati

Automatic generation of k-mesh.
 Grid dimensions read from file:
 generate k-points for:    7    7    4

 Generating k-lattice:

  Cartesian coordinates                     Fractional coordinates (reciprocal lattice)
     0.035932317 -0.000000000  0.011261779     0.142857143  0.000000000  0.000000000
    -0.000000000  0.035932317  0.011261779     0.000000000  0.142857143  0.000000000
     0.000000000  0.000000000  0.039416228     0.000000000  0.000000000  0.250000000

  Length of vectors
     0.037655797  0.037655797  0.039416228

  Shift w.r.t. Gamma in fractional coordinates (k-lattice)
     0.000000000  0.000000000  0.000000000

 -----------------------------------------------------------------------------
|                                                                             |
|           W    W    AA    RRRRR   N    N  II  N    N   GGGG   !!!           |
|           W    W   A  A   R    R  NN   N  II  NN   N  G    G  !!!           |
|           W    W  A    A  R    R  N N  N  II  N N  N  G       !!!           |
|           W WW W  AAAAAA  RRRRR   N  N N  II  N  N N  G  GGG   !            |
|           WW  WW  A    A  R   R   N   NN  II  N   NN  G    G                |
|           W    W  A    A  R    R  N    N  II  N    N   GGGG   !!!           |
|                                                                             |
|     Your reciprocal lattice and k-lattice belong to different lattice       |
|     classes:                                                                |
|                                                                             |
|        The reciprocal lattice is body-centered tetragonal,                  |
|        whereas your k-lattice is base-centered monoclinic.                  |
|                                                                             |
|     Results are often still useful ...                                      |
|                                                                             |
 -----------------------------------------------------------------------------

 WARNING: IBZKPT: internal override: KBLOWUP is changed to .FALSE.
      ... skipping the blow-up phase ...

 TETIRR: Found    294 inequivalent tetrahedra from     1176
 
 Subroutine IBZKPT returns following result:
 ===========================================
 
 Found     60 irreducible k-points:
 
 Following reciprocal coordinates:
            Coordinates               Weight
  0.000000  0.000000  0.000000      1.000000
  0.142857  0.000000  0.000000      4.000000
  0.285714  0.000000  0.000000      4.000000
  0.428571  0.000000  0.000000      4.000000
  0.142857  0.142857  0.000000      2.000000
  0.285714  0.142857  0.000000      4.000000
  0.428571  0.142857  0.000000      4.000000
 -0.428571  0.142857  0.000000      4.000000
 -0.285714  0.142857  0.000000      4.000000
 -0.142857  0.142857  0.000000      2.000000
  0.285714  0.285714  0.000000      2.000000
  0.428571  0.285714  0.000000      4.000000
 -0.428571  0.285714  0.000000      4.000000
 -0.285714  0.285714  0.000000      2.000000
  0.428571  0.428571  0.000000      2.000000
 -0.428571  0.428571  0.000000      2.000000
  0.000000  0.000000  0.250000      2.000000
  0.142857  0.000000  0.250000      4.000000
  0.285714  0.000000  0.250000      4.000000
  0.428571  0.000000  0.250000      4.000000
 -0.428571  0.000000  0.250000      4.000000
 -0.285714  0.000000  0.250000      4.000000
 -0.142857  0.000000  0.250000      4.000000
  0.142857  0.142857  0.250000      2.000000
  0.285714  0.142857  0.250000      4.000000
  0.428571  0.142857  0.250000      4.000000
 -0.428571  0.142857  0.250000      4.000000
 -0.285714  0.142857  0.250000      4.000000
 -0.142857  0.142857  0.250000      4.000000
  0.285714  0.285714  0.250000      2.000000
  0.428571  0.285714  0.250000      4.000000
 -0.428571  0.285714  0.250000      4.000000
 -0.285714  0.285714  0.250000      4.000000
 -0.142857  0.285714  0.250000      4.000000
  0.428571  0.428571  0.250000      2.000000
 -0.428571  0.428571  0.250000      4.000000
 -0.285714  0.428571  0.250000      4.000000
 -0.142857  0.428571  0.250000      4.000000
 -0.428571 -0.428571  0.250000      2.000000
 -0.285714 -0.428571  0.250000      4.000000
 -0.142857 -0.428571  0.250000      4.000000
 -0.285714 -0.285714  0.250000      2.000000
 -0.142857 -0.285714  0.250000      4.000000
 -0.142857 -0.142857  0.250000      2.000000
  0.000000  0.000000  0.500000      1.000000
  0.142857  0.000000  0.500000      4.000000
  0.285714  0.000000  0.500000      4.000000
  0.428571  0.000000  0.500000      4.000000
  0.142857  0.142857  0.500000      2.000000
  0.285714  0.142857  0.500000      4.000000
  0.428571  0.142857  0.500000      4.000000
 -0.428571  0.142857  0.500000      4.000000
 -0.285714  0.142857  0.500000      4.000000
 -0.142857  0.142857  0.500000      2.000000
  0.285714  0.285714  0.500000      2.000000
  0.428571  0.285714  0.500000      4.000000
 -0.428571  0.285714  0.500000      4.000000
 -0.285714  0.285714  0.500000      2.000000
  0.428571  0.428571  0.500000      2.000000
 -0.428571  0.428571  0.500000      2.000000
 
 Following cartesian coordinates:
            Coordinates               Weight
  0.000000  0.000000  0.000000      1.000000
  0.035932  0.000000  0.011262      4.000000
  0.071865  0.000000  0.022524      4.000000
  0.107797  0.000000  0.033785      4.000000
  0.035932  0.035932  0.022524      2.000000
  0.071865  0.035932  0.033785      4.000000
  0.107797  0.035932  0.045047      4.000000
 -0.107797  0.035932 -0.022524      4.000000
 -0.071865  0.035932 -0.011262      4.000000
 -0.035932  0.035932  0.000000      2.000000
  0.071865  0.071865  0.045047      2.000000
  0.107797  0.071865  0.056309      4.000000
 -0.107797  0.071865 -0.011262      4.000000
 -0.071865  0.071865  0.000000      2.000000
  0.107797  0.107797  0.067571      2.000000
 -0.107797  0.107797  0.000000      2.000000
  0.000000  0.000000  0.039416      2.000000
  0.035932  0.000000  0.050678      4.000000
  0.071865  0.000000  0.061940      4.000000
  0.107797  0.000000  0.073202      4.000000
 -0.107797  0.000000  0.005631      4.000000
 -0.071865  0.000000  0.016893      4.000000
 -0.035932  0.000000  0.028154      4.000000
  0.035932  0.035932  0.061940      2.000000
  0.071865  0.035932  0.073202      4.000000
  0.107797  0.035932  0.084463      4.000000
 -0.107797  0.035932  0.016893      4.000000
 -0.071865  0.035932  0.028154      4.000000
 -0.035932  0.035932  0.039416      4.000000
  0.071865  0.071865  0.084463      2.000000
  0.107797  0.071865  0.095725      4.000000
 -0.107797  0.071865  0.028154      4.000000
 -0.071865  0.071865  0.039416      4.000000
 -0.035932  0.071865  0.050678      4.000000
  0.107797  0.107797  0.106987      2.000000
 -0.107797  0.107797  0.039416      4.000000
 -0.071865  0.107797  0.050678      4.000000
 -0.035932  0.107797  0.061940      4.000000
 -0.107797 -0.107797 -0.028154      2.000000
 -0.071865 -0.107797 -0.016893      4.000000
 -0.035932 -0.107797 -0.005631      4.000000
 -0.071865 -0.071865 -0.005631      2.000000
 -0.035932 -0.071865  0.005631      4.000000
 -0.035932 -0.035932  0.016893      2.000000
  0.000000  0.000000  0.078832      1.000000
  0.035932  0.000000  0.090094      4.000000
  0.071865  0.000000  0.101356      4.000000
  0.107797  0.000000  0.112618      4.000000
  0.035932  0.035932  0.101356      2.000000
  0.071865  0.035932  0.112618      4.000000
  0.107797  0.035932  0.123880      4.000000
 -0.107797  0.035932  0.056309      4.000000
 -0.071865  0.035932  0.067571      4.000000
 -0.035932  0.035932  0.078832      2.000000
  0.071865  0.071865  0.123880      2.000000
  0.107797  0.071865  0.135141      4.000000
 -0.107797  0.071865  0.067571      4.000000
 -0.071865  0.071865  0.078832      2.000000
  0.107797  0.107797  0.146403      2.000000
 -0.107797  0.107797  0.078832      2.000000
 


--------------------------------------------------------------------------------------------------------




 Dimension of arrays:
   k-points           NKPTS =     60   k-points in BZ     NKDIM =     60   number of bands    NBANDS=     48
   number of dos      NEDOS =    301   number of ions     NIONS =      7
   non local maximal  LDIM  =      8   non local SUM 2l+1 LMDIM =     32
   total plane-waves  NPLWV =  48600
   max r-space proj   IRMAX =      1   max aug-charges    IRDMAX=  25527
   dimension x,y,z NGX =    30 NGY =   30 NGZ =   54
   dimension x,y,z NGXF=    60 NGYF=   60 NGZF=  108
   support grid    NGXF=    60 NGYF=   60 NGZF=  108
   ions per type =               2   1   4
   NGX,Y,Z   is equivalent  to a cutoff of  12.54, 12.54, 12.94 a.u.
   NGXF,Y,Z  is equivalent  to a cutoff of  25.09, 25.09, 25.88 a.u.

 SYSTEM =  unknown system                          
 POSCAR =  # Generated by Masgent for EOS calculati

 Startparameter for this run:
   NWRITE =      2    write-flag & timer
   PREC   = accura    normal or accurate (medium, high low for compatibility)
   ISTART =      0    job   : 0-new  1-cont  2-samecut
   ICHARG =      2    charge: 1-file 2-atom 10-const
   ISPIN  =      2    spin polarized calculation?
   LNONCOLLINEAR =      F non collinear calculations
   LSORBIT =      F    spin-orbit coupling
   INIWAV =      1    electr: 0-lowe 1-rand  2-diag
   LASPH  =      T    aspherical Exc in radial PAW
 Electronic Relaxation 1
   ENCUT  =  520.0 eV  38.22 Ry    6.18 a.u.   7.39  7.39 12.90*2*pi/ulx,y,z
   ENINI  =  520.0     initial cutoff
   ENAUG  =  703.4 eV  augmentation charge cutoff
   NELM   =    100;   NELMIN=  2; NELMDL= -5     # of ELM steps 
   EDIFF  = 0.3E-03   stopping-criterion for ELM
   LREAL  =      F    real-space projection
   NLSPLINE    = F    spline interpolate recip. space projectors
   LCOMPAT=      F    compatible to vasp.4.4
   GGA_COMPAT  = T    GGA compatible to vasp.4.4-vasp.4.6
   LMAXPAW     = -100 max onsite density
   LMAXMIX     =    6 max onsite mixed and CHGCAR
   VOSKOWN=      0    Vosko Wilk Nusair interpolation
   ROPT   =    0.00000   0.00000   0.00000
 Ionic relaxation
   EDIFFG = 0.4E-02   stopping-criterion for IOM
   NSW    =      0    number of steps for IOM
   NBLOCK =      1;   KBLOCK =      1    inner block; outer block 
   IBRION =     -1    ionic relax: 0-MD 1-quasi-New 2-CG
   NFREE  =      0    steps in history (QN), initial steepest desc. (CG)
   ISIF   =      2    stress and relaxation
   IWAVPR =     10    prediction:  0-non 1-charg 2-wave 3-comb
   ISYM   =      2    0-nonsym 1-usesym 2-fastsym
   LCORR  =      T    Harris-Foulkes like correction to forces

   POTIM  = 0.5000    time-step for ionic-motion
   TEIN   =    0.0    initial temperature
   TEBEG  =    0.0;   TEEND  =   0.0 temperature during run
   SMASS  =  -3.00    Nose mass-parameter (am)
   estimated Nose-frequenzy (Omega)   =  0.10E-29 period in steps = 0.13E+47 mass=  -0.361E-27a.u.
   SCALEE = 1.0000    scale energy and forces
   NPACO  =    256;   APACO  = 16.0  distance and # of slots for P.C.
   PSTRESS=    0.0 pullay stress

  Mass of Ions in am
   POMASS = 138.90 58.69 16.00
  Ionic Valenz
   ZVAL   =  11.00 16.00  6.00
  Atomic Wigner-Seitz radii
   RWIGS  =  -1.00 -1.00 -1.00
  virtual crystal weights 
   VCA    =   1.00  1.00  1.00
   NELECT =      62.0000    total number of electrons
   NUPDOWN=      -1.0000    fix difference up-down

 DOS related values:
   EMIN   =  10.00;   EMAX   =-10.00  energy-range for DOS
   EFERMI =   0.00
   ISMEAR =    -5;   SIGMA  =   0.05  broadening in eV -4-tet -1-fermi 0-gaus

 Electronic relaxation 2 (details)
   IALGO  =     68    algorithm
   LDIAG  =      T    sub-space diagonalisation (order eigenvalues)
   LSUBROT=      F    optimize rotation matrix (better conditioning)
   TURBO    =      0    0=normal 1=particle mesh
   IRESTART =      0    0=no restart 2=restart with 2 vectors
   NREBOOT  =      0    no. of reboots
   NMIN     =      0    reboot dimension
   EREF     =   0.00    reference energy to select bands
   IMIX   =      4    mixing-type and parameters
     AMIX     =   0.40;   BMIX     =  1.00
     AMIX_MAG =   1.60;   BMIX_MAG =  1.00
     AMIN     =   0.10
     WC   =   100.;   INIMIX=   1;  MIXPRE=   1;  MAXMIX= -45

 Intra band minimization:
   WEIMIN = 0.0000     energy-eigenvalue tresh-hold
   EBREAK =  0.18E-05  absolut break condition
   DEPER  =   0.30     relativ break condition  

   TIME   =   0.40     timestep for ELM

  volume/ion in A,a.u.               =      14.32        96.65
  Fermi-wavevector in a.u.,A,eV,Ry     =   1.394781  2.635753 26.468952  1.945413
  Thomas-Fermi vector in A             =   2.518296

 Write flags
   LWAVE        =      F    write WAVECAR
   LDOWNSAMPLE  =      F    k-point downsampling of WAVECAR
   LCHARG       =      T    write CHGCAR
   LVTOT        =      F    write LOCPOT, total local potential
   LVHAR        =      F    write LOCPOT, Hartree potential only
   LELF         =      F    write electronic localiz. function (ELF)
   LORBIT       =     11    0 simple, 1 ext, 2 COOP (PROOUT), +10 PAW based schemes


 Dipole corrections
   LMONO  =      F    monopole corrections only (constant potential shift)
   LDIPOL =      F    correct potential (dipole corrections)
   IDIPOL =      0    1-x, 2-y, 3-z, 4-all directions 
   EPSILON=  1.0000000 bulk dielectric constant

 LDA+U is selected, type is set to LDAUTYPE =  2
   angular momentum for each species LDAUL =     0    2    0
   U (eV)           for each species LDAUU =   0.0  6.2  0.0
   J (eV)           for each species LDAUJ =   0.0  0.0  0.0
 Exchange correlation treatment:
   GGA     =    --    GGA type
   LEXCH   =     8    internal setting for exchange type
   VOSKOWN=      0    Vosko Wilk Nusair interpolation
   LHFCALC =     F    Hartree Fock is set to
   LHFONE  =     F    Hartree Fock one center treatment
   AEXX    =    0.0000 exact exchange contribution

 Linear response parameters
   LEPSILON=     F    determine dielectric tensor
   LRPA    =     F    only Hartree local field effects (RPA)
   LNABLA  =     F    use nabla operator in PAW spheres
   LVEL    =     F    velocity operator in full k-point grid
   LINTERFAST=   F  fast interpolation
   KINTER  =     0    interpolate to denser k-point grid
   CSHIFT  =0.1000    complex shift for real part using Kramers Kronig
   OMEGAMAX=  -1.0    maximum frequency
   DEG_THRESHOLD= 0.2000000E-02 threshold for treating states as degnerate
   RTIME   =   -0.100 relaxation time in fs
  (WPLASMAI=    0.000 imaginary part of plasma frequency in eV, 0.658/RTIME)
   DFIELD  = 0.0000000 0.0000000 0.0000000 field for delta impulse in time

 Orbital magnetization related:
   ORBITALMAG=     F  switch on orbital magnetization
   LCHIMAG   =     F  perturbation theory with respect to B field
   DQ        =  0.001000  dq finite difference perturbation B field
   LLRAUG    =     F  two centre corrections for induced B field



--------------------------------------------------------------------------------------------------------


 Static calculation
 charge density and potential will be updated during run
 spin polarized calculation
 RMM-DIIS sequential band-by-band and
  variant of blocked Davidson during initial phase
 perform sub-space diagonalisation
    before iterative eigenvector-optimisation
 modified Broyden-mixing scheme, WC =      100.0
 initial mixing is a Kerker type mixing with AMIX =  0.4000 and BMIX =      1.0000
 Hartree-type preconditioning will be used
 using additional bands           17
 reciprocal scheme for non local part
 use partial core corrections
 calculate Harris-corrections to forces   (improved forces if not selfconsistent)
 use gradient corrections 
 use of overlap-Matrix (Vanderbilt PP)
 Fermi weights with tetrahedron method with Bloechl corrections


--------------------------------------------------------------------------------------------------------


  energy-cutoff  :      520.00
  volume of cell :      100.25
      direct lattice vectors                 reciprocal lattice vectors
     3.975728685  0.000000000  0.000000000     0.251526218 -0.000000000  0.078832456
     0.000000000  3.975728685  0.000000000    -0.000000000  0.251526218  0.078832456
    -1.987864342 -1.987864342  6.342565302     0.000000000  0.000000000  0.157664912

  length of vectors
     3.975728685  3.975728685  6.937675685     0.263590581  0.263590581  0.157664912



 k-points in units of 2pi/SCALE and weight: # Generated by Masgent for EOS calculati
   0.00000000  0.00000000  0.00000000       0.005
   0.03593232  0.00000000  0.01126178       0.020
   0.07186463  0.00000000  0.02252356       0.020
   0.10779695  0.00000000  0.03378534       0.020
   0.03593232  0.03593232  0.02252356       0.010
   0.07186463  0.03593232  0.03378534       0.020
   0.10779695  0.03593232  0.04504712       0.020
  -0.10779695  0.03593232 -0.02252356       0.020
  -0.07186463  0.03593232 -0.01126178       0.020
  -0.03593232  0.03593232  0.00000000       0.010
   0.07186463  0.07186463  0.04504712       0.010
   0.10779695  0.07186463  0.05630890       0.020
  -0.10779695  0.07186463 -0.01126178       0.020
  -0.07186463  0.07186463  0.00000000       0.010
   0.10779695  0.10779695  0.06757068       0.010
  -0.10779695  0.10779695  0.00000000       0.010
   0.00000000  0.00000000  0.03941623       0.010
   0.03593232  0.00000000  0.05067801       0.020
   0.07186463  0.00000000  0.06193979       0.020
   0.10779695  0.00000000  0.07320157       0.020
  -0.10779695  0.00000000  0.00563089       0.020
  -0.07186463  0.00000000  0.01689267       0.020
  -0.03593232  0.00000000  0.02815445       0.020
   0.03593232  0.03593232  0.06193979       0.010
   0.07186463  0.03593232  0.07320157       0.020
   0.10779695  0.03593232  0.08446335       0.020
  -0.10779695  0.03593232  0.01689267       0.020
  -0.07186463  0.03593232  0.02815445       0.020
  -0.03593232  0.03593232  0.03941623       0.020
   0.07186463  0.07186463  0.08446335       0.010
   0.10779695  0.07186463  0.09572513       0.020
  -0.10779695  0.07186463  0.02815445       0.020
  -0.07186463  0.07186463  0.03941623       0.020
  -0.03593232  0.07186463  0.05067801       0.020
   0.10779695  0.10779695  0.10698690       0.010
  -0.10779695  0.10779695  0.03941623       0.020
  -0.07186463  0.10779695  0.05067801       0.020
  -0.03593232  0.10779695  0.06193979       0.020
  -0.10779695 -0.10779695 -0.02815445       0.010
  -0.07186463 -0.10779695 -0.01689267       0.020
  -0.03593232 -0.10779695 -0.00563089       0.020
  -0.07186463 -0.07186463 -0.00563089       0.010
  -0.03593232 -0.07186463  0.00563089       0.020
  -0.03593232 -0.03593232  0.01689267       0.010
   0.00000000  0.00000000  0.07883246       0.005
   0.03593232  0.00000000  0.09009424       0.020
   0.07186463  0.00000000  0.10135601       0.020
   0.10779695  0.00000000  0.11261779       0.020
   0.03593232  0.03593232  0.10135601       0.010
   0.07186463  0.03593232  0.11261779       0.020
   0.10779695  0.03593232  0.12387957       0.020
  -0.10779695  0.03593232  0.05630890       0.020
  -0.07186463  0.03593232  0.06757068       0.020
  -0.03593232  0.03593232  0.07883246       0.010
   0.07186463  0.07186463  0.12387957       0.010
   0.10779695  0.07186463  0.13514135       0.020
  -0.10779695  0.07186463  0.06757068       0.020
  -0.07186463  0.07186463  0.07883246       0.010
   0.10779695  0.10779695  0.14640313       0.010
  -0.10779695  0.10779695  0.07883246       0.010

 k-points in reciprocal lattice and weights: # Generated by Masgent for EOS calculati
   0.00000000  0.00000000  0.00000000       0.005
   0.14285714  0.00000000  0.00000000       0.020
   0.28571429  0.00000000  0.00000000       0.020
   0.42857143  0.00000000  0.00000000       0.020
   0.14285714  0.14285714  0.00000000       0.010
   0.28571429  0.14285714  0.00000000       0.020
   0.42857143  0.14285714  0.00000000       0.020
  -0.42857143  0.14285714  0.00000000       0.020
  -0.28571429  0.14285714  0.00000000       0.020
  -0.14285714  0.14285714  0.00000000       0.010
   0.28571429  0.28571429  0.00000000       0.010
   0.42857143  0.28571429  0.00000000       0.020
  -0.42857143  0.28571429  0.00000000       0.020
  -0.28571429  0.28571429  0.00000000       0.010
   0.42857143  0.42857143  0.00000000       0.010
  -0.42857143  0.42857143  0.00000000       0.010
   0.00000000  0.00000000  0.25000000       0.010
   0.14285714  0.00000000  0.25000000       0.020
   0.28571429  0.00000000  0.25000000       0.020
   0.42857143  0.00000000  0.25000000       0.020
  -0.42857143  0.00000000  0.25000000       0.020
  -0.28571429  0.00000000  0.25000000       0.020
  -0.14285714  0.00000000  0.25000000       0.020
   0.14285714  0.14285714  0.25000000       0.010
   0.28571429  0.14285714  0.25000000       0.020
   0.42857143  0.14285714  0.25000000       0.020
  -0.42857143  0.14285714  0.25000000       0.020
  -0.28571429  0.14285714  0.25000000       0.020
  -0.14285714  0.14285714  0.25000000       0.020
   0.28571429  0.28571429  0.25000000       0.010
   0.42857143  0.28571429  0.25000000       0.020
  -0.42857143  0.28571429  0.25000000       0.020
  -0.28571429  0.28571429  0.25000000       0.020
  -0.14285714  0.28571429  0.25000000       0.020
   0.42857143  0.42857143  0.25000000       0.010
  -0.42857143  0.42857143  0.25000000       0.020
  -0.28571429  0.42857143  0.25000000       0.020
  -0.14285714  0.42857143  0.25000000       0.020
  -0.42857143 -0.42857143  0.25000000       0.010
  -0.28571429 -0.42857143  0.25000000       0.020
  -0.14285714 -0.42857143  0.25000000       0.020
  -0.28571429 -0.28571429  0.25000000       0.010
  -0.14285714 -0.28571429  0.25000000       0.020
  -0.14285714 -0.14285714  0.25000000       0.010
   0.00000000  0.00000000  0.50000000       0.005
   0.14285714  0.00000000  0.50000000       0.020
   0.28571429  0.00000000  0.50000000       0.020
   0.42857143  0.00000000  0.50000000       0.020
   0.14285714  0.14285714  0.50000000       0.010
   0.28571429  0.14285714  0.50000000       0.020
   0.42857143  0.14285714  0.50000000       0.020
  -0.42857143  0.14285714  0.50000000       0.020
  -0.28571429  0.14285714  0.50000000       0.020
  -0.14285714  0.14285714  0.50000000       0.010
   0.28571429  0.28571429  0.50000000       0.010
   0.42857143  0.28571429  0.50000000       0.020
  -0.42857143  0.28571429  0.50000000       0.020
  -0.28571429  0.28571429  0.50000000       0.010
   0.42857143  0.42857143  0.50000000       0.010
  -0.42857143  0.42857143  0.50000000       0.010

 position of ions in fractional coordinates (direct lattice) 
   0.36347300  0.36347300  0.72694600
   0.63652700  0.63652700  0.27305400
   0.00000000  0.00000000  0.00000000
   0.17899300  0.17899300  0.35798600
   0.82100700  0.82100700  0.64201400
   0.50000000  0.00000000  0.00000000
   0.00000000  0.50000000  0.00000000

 position of ions in cartesian coordinates  (Angst):
   0.00000000  0.00000000  4.61070248
   1.98786434  1.98786434  1.73186283
   0.00000000  0.00000000  0.00000000
   0.00000000  0.00000000  2.27054958
   1.98786434  1.98786434  4.07201572
   1.98786434  0.00000000  0.00000000
   0.00000000  1.98786434  0.00000000



--------------------------------------------------------------------------------------------------------


 k-point   1 :   0.0000 0.0000 0.0000  plane waves:    2735
 k-point   2 :   0.1429 0.0000 0.0000  plane waves:    2711
 k-point   3 :   0.2857 0.0000 0.0000  plane waves:    2705
 k-point   4 :   0.4286 0.0000 0.0000  plane waves:    2688
 k-point   5 :   0.1429 0.1429 0.0000  plane waves:    2703
 k-point   6 :   0.2857 0.1429 0.0000  plane waves:    2697
 k-point   7 :   0.4286 0.1429 0.0000  plane waves:    2700
 k-point   8 :  -0.4286 0.1429 0.0000  plane waves:    2694
 k-point   9 :  -0.2857 0.1429 0.0000  plane waves:    2694
 k-point  10 :  -0.1429 0.1429 0.0000  plane waves:    2699
 k-point  11 :   0.2857 0.2857 0.0000  plane waves:    2696
 k-point  12 :   0.4286 0.2857 0.0000  plane waves:    2701
 k-point  13 :  -0.4286 0.2857 0.0000  plane waves:    2691
 k-point  14 :  -0.2857 0.2857 0.0000  plane waves:    2690
 k-point  15 :   0.4286 0.4286 0.0000  plane waves:    2681
 k-point  16 :  -0.4286 0.4286 0.0000  plane waves:    2690
 k-point  17 :   0.0000 0.0000 0.2500  plane waves:    2716
 k-point  18 :   0.1429 0.0000 0.2500  plane waves:    2717
 k-point  19 :   0.2857 0.0000 0.2500  plane waves:    2708
 k-point  20 :   0.4286 0.0000 0.2500  plane waves:    2695
 k-point  21 :  -0.4286 0.0000 0.2500  plane waves:    2681
 k-point  22 :  -0.2857 0.0000 0.2500  plane waves:    2698
 k-point  23 :  -0.1429 0.0000 0.2500  plane waves:    2716
 k-point  24 :   0.1429 0.1429 0.2500  plane waves:    2712
 k-point  25 :   0.2857 0.1429 0.2500  plane waves:    2710
 k-point  26 :   0.4286 0.1429 0.2500  plane waves:    2696
 k-point  27 :  -0.4286 0.1429 0.2500  plane waves:    2696
 k-point  28 :  -0.2857 0.1429 0.2500  plane waves:    2696
 k-point  29 :  -0.1429 0.1429 0.2500  plane waves:    2710
 k-point  30 :   0.2857 0.2857 0.2500  plane waves:    2704
 k-point  31 :   0.4286 0.2857 0.2500  plane waves:    2700
 k-point  32 :  -0.4286 0.2857 0.2500  plane waves:    2696
 k-point  33 :  -0.2857 0.2857 0.2500  plane waves:    2694
 k-point  34 :  -0.1429 0.2857 0.2500  plane waves:    2707
 k-point  35 :   0.4286 0.4286 0.2500  plane waves:    2681
 k-point  36 :  -0.4286 0.4286 0.2500  plane waves:    2697
 k-point  37 :  -0.2857 0.4286 0.2500  plane waves:    2700
 k-point  38 :  -0.1429 0.4286 0.2500  plane waves:    2701
 k-point  39 :  -0.4286-0.4286 0.2500  plane waves:    2703
 k-point  40 :  -0.2857-0.4286 0.2500  plane waves:    2692
 k-point  41 :  -0.1429-0.4286 0.2500  plane waves:    2695
 k-point  42 :  -0.2857-0.2857 0.2500  plane waves:    2688
 k-point  43 :  -0.1429-0.2857 0.2500  plane waves:    2694
 k-point  44 :  -0.1429-0.1429 0.2500  plane waves:    2701
 k-point  45 :   0.0000 0.0000 0.5000  plane waves:    2720
 k-point  46 :   0.1429 0.0000 0.5000  plane waves:    2714
 k-point  47 :   0.2857 0.0000 0.5000  plane waves:    2701
 k-point  48 :   0.4286 0.0000 0.5000  plane waves:    2690
 k-point  49 :   0.1429 0.1429 0.5000  plane waves:    2710
 k-point  50 :   0.2857 0.1429 0.5000  plane waves:    2703
 k-point  51 :   0.4286 0.1429 0.5000  plane waves:    2691
 k-point  52 :  -0.4286 0.1429 0.5000  plane waves:    2700
 k-point  53 :  -0.2857 0.1429 0.5000  plane waves:    2712
 k-point  54 :  -0.1429 0.1429 0.5000  plane waves:    2710
 k-point  55 :   0.2857 0.2857 0.5000  plane waves:    2696
 k-point  56 :   0.4286 0.2857 0.5000  plane waves:    2697
 k-point  57 :  -0.4286 0.2857 0.5000  plane waves:    2702
 k-point  58 :  -0.2857 0.2857 0.5000  plane waves:    2704
 k-point  59 :   0.4286 0.4286 0.5000  plane waves:    2692
 k-point  60 :  -0.4286 0.4286 0.5000  plane waves:    2688

 maximum and minimum number of plane-waves per node :      2735     2681

 maximum number of plane-waves:      2735
 maximum index in each direction: 
   IXMAX=    7   IYMAX=    7   IZMAX=   12
   IXMIN=   -7   IYMIN=   -7   IZMIN=  -13


 serial   3D FFT for wavefunctions
 parallel 3D FFT for charge:
    minimum data exchange during FFTs selected (reduces bandwidth)


 total amount of memory used by VASP MPI-rank0   168280. kBytes
=======================================================================

   base      :      30000. kBytes
   nonl-proj :     126381. kBytes
   fftplans  :        608. kBytes
   grid      :       5074. kBytes
   one-center:        688. kBytes
   wavefun   :       5529. kBytes

     INWAV:  cpu time    0.0000: real time    0.0003
 Broyden mixing: mesh for mixing (old mesh)
   NGX = 15   NGY = 15   NGZ = 25
  (NGX  = 60   NGY  = 60   NGZ  =108)
  gives a total of   5625 points

 initial charge density was supplied:
 charge density of overlapping atoms calculated
 number of electron      62.0000000 magnetization       8.6000000
 keeping initial charge density in first step


--------------------------------------------------------------------------------------------------------


 Maximum index for augmentation-charges          719 (set IRDMAX)


--------------------------------------------------------------------------------------------------------


 First call to EWALD:  gamma=   0.382
 Maximum number of real-space cells 3x 3x 2
 Maximum number of reciprocal cells 2x 2x 4

    FEWALD:  cpu time    0.0007: real time    0.0007


--------------------------------------- Iteration      1(   1)  ---------------------------------------


    POTLOK:  cpu time    0.0317: real time    0.0319
    SETDIJ:  cpu time    0.6326: real time    0.6327
atom =   1  type =  1  l = 0

 onsite density matrix

spin component  1

  1.1588

spin component  2

  1.0390

 occupancies and eigenvectors

  o =  1.0390  v =  0.0000  1.0000      0.0000  0.0000
  o =  1.1588  v =  1.0000  0.0000      0.0000  0.0000

atom =   2  type =  1  l = 0

 onsite density matrix

spin component  1

  1.1588

spin component  2

  1.0390

 occupancies and eigenvectors

  o =  1.0390  v =  0.0000  1.0000      0.0000  0.0000
  o =  1.1588  v =  1.0000  0.0000      0.0000  0.0000

atom =   3  type =  2  l = 2

 onsite density matrix

spin component  1

  1.0776  0.0000  0.0000  0.0000  0.0000
  0.0000  1.0776  0.0000  0.0000  0.0000
  0.0000  0.0000  1.0776  0.0000  0.0000
  0.0000  0.0000  0.0000  1.0776  0.0000
  0.0000  0.0000  0.0000  0.0000  1.0776

spin component  2

  0.5645  0.0000  0.0000  0.0000  0.0000
  0.0000  0.5645  0.0000  0.0000  0.0000
  0.0000  0.0000  0.5645  0.0000  0.0000
  0.0000  0.0000  0.0000  0.5645  0.0000
  0.0000  0.0000  0.0000  0.0000  0.5645

 occupancies and eigenvectors

  o =  0.5645  v =  0.0000  0.0000  0.0000  0.0000  0.0000  0.0000  0.0000  1.0000  0.0000  0.0000      0.0000  0.0000  0.0000  0.0000  0.0000  0.0000  0.0000  0.0000  0.0000  0.0000
  o =  0.5645  v =  0.0000  0.0000  0.0000  0.0000  0.0000  1.0000  0.0000  0.0000  0.0000  0.0000      0.0000  0.0000  0.0000  0.0000  0.0000  0.0000  0.0000  0.0000  0.0000  0.0000
  o =  0.5645  v =  0.0000  0.0000  0.0000  0.0000  0.0000  0.0000  0.0000  0.0000  0.0000  1.0000      0.0000  0.0000  0.0000  0.0000  0.0000  0.0000  0.0000  0.0000  0.0000  0.0000
  o =  0.5645  v =  0.0000  0.0000  0.0000  0.0000  0.0000  0.0000  1.0000  0.0000  0.0000  0.0000      0.0000  0.0000  0.0000  0.0000  0.0000  0.0000  0.0000  0.0000  0.0000  0.0000
  o =  0.5645  v =  0.0000  0.0000  0.0000  0.0000  0.0000  0.0000  0.0000  0.0000  1.0000  0.0000      0.0000  0.0000  0.0000  0.0000  0.0000  0.0000  0.0000  0.0000  0.0000  0.0000
  o =  1.0776  v =  0.0000  0.0000  1.0000  0.0000  0.0000  0.0000  0.0000  0.0000  0.0000  0.0000      0.0000  0.0000  0.0000  0.0000  0.0000  0.0000  0.0000  0.0000  0.0000  0.0000
  o =  1.0776  v =  0.0000  0.0000  0.0000  1.0000  0.0000  0.0000  0.0000  0.0000  0.0000  0.0000      0.0000  0.0000  0.0000  0.0000  0.0000  0.0000  0.0000  0.0000  0.0000  0.0000
  o =  1.0776  v =  1.0000  0.0000  0.0000  0.0000  0.0000  0.0000  0.0000  0.0000  0.0000  0.0000      0.0000  0.0000  0.0000  0.0000  0.0000  0.0000  0.0000  0.0000  0.0000  0.0000
  o =  1.0776  v =  0.0000  0.0000  0.0000  0.0000  1.0000  0.0000  0.0000  0.0000  0.0000  0.0000      0.0000  0.0000  0.0000  0.0000  0.0000  0.0000  0.0000  0.0000  0.0000  0.0000
  o =  1.0776  v =  0.0000  1.0000  0.0000  0.0000  0.0000  0.0000  0.0000  0.0000  0.0000  0.0000      0.0000  0.0000  0.0000  0.0000  0.0000  0.0000  0.0000  0.0000  0.0000  0.0000

atom =   4  type =  3  l = 0

 onsite density matrix

spin component  1

  0.9009

spin component  2

  0.7371

 occupancies and eigenvectors

  o =  0.7371  v =  0.0000  1.0000      0.0000  0.0000
  o =  0.9009  v =  1.0000  0.0000      0.0000  0.0000

atom =   5  type =  3  l = 0

 onsite density matrix

spin component  1

  0.9009

spin component  2

  0.7371

 occupancies and eigenvectors

  o =  0.7371  v =  0.0000  1.0000      0.0000  0.0000
  o =  0.9009  v =  1.0000  0.0000      0.0000  0.0000

atom =   6  type =  3  l = 0

 onsite density matrix

spin component  1

  0.9009

spin component  2

  0.7371

 occupancies and eigenvectors

  o =  0.7371  v =  0.0000  1.0000      0.0000  0.0000
  o =  0.9009  v =  1.0000  0.0000      0.0000  0.0000

atom =   7  type =  3  l = 0

 onsite density matrix

spin component  1

  0.9009

spin component  2

  0.7371

 occupancies and eigenvectors

  o =  0.7371  v =  0.0000  1.0000      0.0000  0.0000
  o =  0.9009  v =  1.0000  0.0000      0.0000  0.0000

     EDDAV:  cpu time    5.1651: real time    5.1659
 BZINTS: Fermi energy:   12.785850;   62.000000 electrons
         Band energy:-0.763811E+02;  BLOECHL correction:   -0.029608
       DOS:  cpu time    0.0566: real time    0.0569
    --------------------------------------------
      LOOP:  cpu time    5.8860: real time    5.8873

 eigenvalue-minimisations  : 11520
 total energy-change (2. order) : 0.3641847E+03  (-0.3370352E+04)
 number of electron      62.0000000 magnetization       8.6000000
 augmentation part       62.0000000 magnetization       8.6000000

 Free energy of the ion-electron system (eV)
  ---------------------------------------------------
  alpha Z        PSCENC =       272.56028212
  Ewald energy   TEWEN  =     -4631.44717150
  -Hartree energ DENC   =     -2304.58864642
  -exchange      EXHF   =         0.00000000
  -V(xc)+E(xc)   XCENC  =       263.94282817
  PAW double counting   =      5585.27909985    -5707.62878593
  entropy T*S    EENTRO =         0.00000000
  eigenvalues    EBANDS =       -76.38112408
  atomic energy  EATOM  =      6962.44817098
  Solvation  Ediel_sol  =         0.00000000
  ---------------------------------------------------
  free energy    TOTEN  =       364.18465319 eV

  energy without entropy =      364.18465319  energy(sigma->0) =      364.18465319


--------------------------------------------------------------------------------------------------------




--------------------------------------- Iteration      1(   2)  ---------------------------------------


     EDDAV:  cpu time    9.9388: real time    9.9610
 BZINTS: Fermi energy:   10.396508;   62.000000 electrons
         Band energy:-0.489330E+03;  BLOECHL correction:   -0.035373
       DOS:  cpu time    0.0562: real time    0.0563
    --------------------------------------------
      LOOP:  cpu time    9.9950: real time   10.0173

 eigenvalue-minimisations  : 17424
 total energy-change (2. order) :-0.4129491E+03  (-0.4126487E+03)
 number of electron      62.0000000 magnetization       8.6000000
 augmentation part       62.0000000 magnetization       8.6000000

 Free energy of the ion-electron system (eV)
  ---------------------------------------------------
  alpha Z        PSCENC =       272.56028212
  Ewald energy   TEWEN  =     -4631.44717150
  -Hartree energ DENC   =     -2304.58864642
  -exchange      EXHF   =         0.00000000
  -V(xc)+E(xc)   XCENC  =       263.94282817
  PAW double counting   =      5585.27909985    -5707.62878593
  entropy T*S    EENTRO =         0.00000000
  eigenvalues    EBANDS =      -489.33017451
  atomic energy  EATOM  =      6962.44817098
  Solvation  Ediel_sol  =         0.00000000
  ---------------------------------------------------
  free energy    TOTEN  =       -48.76439724 eV

  energy without entropy =      -48.76439724  energy(sigma->0) =      -48.76439724


--------------------------------------------------------------------------------------------------------




--------------------------------------- Iteration      1(   3)  ---------------------------------------


     EDDAV:  cpu time    5.1513: real time    5.1515
 BZINTS: Fermi energy:   10.295918;   62.000000 electrons
         Band energy:-0.497650E+03;  BLOECHL correction:   -0.031453
       DOS:  cpu time    0.0571: real time    0.0572
    --------------------------------------------
      LOOP:  cpu time    5.2083: real time    5.2087

 eigenvalue-minimisations  : 11568
 total energy-change (2. order) :-0.8320258E+01  (-0.8314756E+01)
 number of electron      62.0000000 magnetization       8.6000000
 augmentation part       62.0000000 magnetization       8.6000000

 Free energy of the ion-electron system (eV)
  ---------------------------------------------------
  alpha Z        PSCENC =       272.56028212
  Ewald energy   TEWEN  =     -4631.44717150
  -Hartree energ DENC   =     -2304.58864642
  -exchange      EXHF   =         0.00000000
  -V(xc)+E(xc)   XCENC  =       263.94282817
  PAW double counting   =      5585.27909985    -5707.62878593
  entropy T*S    EENTRO =         0.00000000
  eigenvalues    EBANDS =      -497.65043263
  atomic energy  EATOM  =      6962.44817098
  Solvation  Ediel_sol  =         0.00000000
  ---------------------------------------------------
  free energy    TOTEN  =       -57.08465536 eV

  energy without entropy =      -57.08465536  energy(sigma->0) =      -57.08465536


--------------------------------------------------------------------------------------------------------




--------------------------------------- Iteration      1(   4)  ---------------------------------------


     EDDAV:  cpu time   16.5894: real time   16.5902
 BZINTS: Fermi energy:   10.281656;   62.000000 electrons
         Band energy:-0.497949E+03;  BLOECHL correction:   -0.029603
       DOS:  cpu time    0.0592: real time    0.0593
    --------------------------------------------
      LOOP:  cpu time   16.6486: real time   16.6495

 eigenvalue-minimisations  : 22896
 total energy-change (2. order) :-0.2984396E+00  (-0.2969011E+00)
 number of electron      62.0000000 magnetization       8.6000000
 augmentation part       62.0000000 magnetization       8.6000000

 Free energy of the ion-electron system (eV)
  ---------------------------------------------------
  alpha Z        PSCENC =       272.56028212
  Ewald energy   TEWEN  =     -4631.44717150
  -Hartree energ DENC   =     -2304.58864642
  -exchange      EXHF   =         0.00000000
  -V(xc)+E(xc)   XCENC  =       263.94282817
  PAW double counting   =      5585.27909985    -5707.62878593
  entropy T*S    EENTRO =         0.00000000
  eigenvalues    EBANDS =      -497.94887218
  atomic energy  EATOM  =      6962.44817098
  Solvation  Ediel_sol  =         0.00000000
  ---------------------------------------------------
  free energy    TOTEN  =       -57.38309491 eV

  energy without entropy =      -57.38309491  energy(sigma->0) =      -57.38309491


--------------------------------------------------------------------------------------------------------




--------------------------------------- Iteration      1(   5)  ---------------------------------------


     EDDAV:  cpu time    5.2140: real time    5.2143
 BZINTS: Fermi energy:   10.281552;   62.000000 electrons
         Band energy:-0.497950E+03;  BLOECHL correction:   -0.029575
       DOS:  cpu time    0.0583: real time    0.0584
    CHARGE:  cpu time    0.0874: real time    0.0877
    MIXING:  cpu time    0.0011: real time    0.0012
    --------------------------------------------
      LOOP:  cpu time    5.3608: real time    5.3618

 eigenvalue-minimisations  : 11616
 total energy-change (2. order) :-0.1521114E-02  (-0.1533597E-02)
 number of electron      61.9999982 magnetization       6.2176832
 augmentation part        8.0068567 magnetization       4.1520279

 Broyden mixing:
  rms(total) = 0.35475E+01    rms(broyden)= 0.35471E+01
  rms(prec ) = 0.61641E+01
  weight for this iteration     100.00

 Free energy of the ion-electron system (eV)
  ---------------------------------------------------
  alpha Z        PSCENC =       272.56028212
  Ewald energy   TEWEN  =     -4631.44717150
  -Hartree energ DENC   =     -2304.58864642
  -exchange      EXHF   =         0.00000000
  -V(xc)+E(xc)   XCENC  =       263.94282817
  PAW double counting   =      5585.27909985    -5707.62878593
  entropy T*S    EENTRO =         0.00000000
  eigenvalues    EBANDS =      -497.95039329
  atomic energy  EATOM  =      6962.44817098
  Solvation  Ediel_sol  =         0.00000000
  ---------------------------------------------------
  free energy    TOTEN  =       -57.38461602 eV

  energy without entropy =      -57.38461602  energy(sigma->0) =      -57.38461602


--------------------------------------------------------------------------------------------------------




--------------------------------------- Iteration      1(   6)  ---------------------------------------


    POTLOK:  cpu time    0.0224: real time    0.0226
    SETDIJ:  cpu time    0.6372: real time    0.6373
atom =   1  type =  1  l = 0

 onsite density matrix

spin component  1

  1.0282

spin component  2

  1.0963

 occupancies and eigenvectors

  o =  1.0282  v =  1.0000  0.0000      0.0000  0.0000
  o =  1.0963  v =  0.0000  1.0000      0.0000  0.0000

atom =   2  type =  1  l = 0

 onsite density matrix

spin component  1

  1.0282

spin component  2

  1.0963

 occupancies and eigenvectors

  o =  1.0282  v =  1.0000  0.0000      0.0000  0.0000
  o =  1.0963  v =  0.0000  1.0000      0.0000  0.0000

atom =   3  type =  2  l = 2

 onsite density matrix

spin component  1

  1.2208  0.0000  0.0000  0.0000 -0.0000
  0.0000  1.2470  0.0000  0.0000 -0.0000
  0.0000  0.0000  1.2783  0.0000  0.0000
  0.0000  0.0000  0.0000  1.2470  0.0000
 -0.0000 -0.0000  0.0000  0.0000  1.2850

spin component  2

  0.1859 -0.0000  0.0000 -0.0000  0.0000
 -0.0000  0.1383 -0.0000  0.0000  0.0000
  0.0000 -0.0000  0.1162 -0.0000 -0.0000
 -0.0000  0.0000 -0.0000  0.1383 -0.0000
  0.0000  0.0000 -0.0000 -0.0000  0.1318

 occupancies and eigenvectors

  o =  0.1162  v = -0.0000 -0.0000 -0.0000 -0.0000 -0.0000  0.0000  0.0000  1.0000  0.0000  0.0000      0.0000  0.0000  0.0000  0.0000  0.0000  0.0000 -0.0000 -0.0000 -0.0000 -0.0000
  o =  0.1318  v =  0.0000  0.0000  0.0000  0.0000  0.0000  0.0000  0.0000  0.0000 -0.0000 -1.0000      0.0000  0.0000  0.0000  0.0000  0.0000  0.0000  0.0000  0.0000  0.0000  0.0000
  o =  0.1383  v =  0.0000  0.0000  0.0000  0.0000  0.0000 -0.0000 -0.7395  0.0000 -0.6732 -0.0000      0.0000  0.0000  0.0000  0.0000  0.0000  0.0000  0.0000  0.0000  0.0000  0.0000
  o =  0.1383  v =  0.0000  0.0000  0.0000  0.0000  0.0000 -0.0000  0.6732 -0.0000 -0.7395  0.0000      0.0000  0.0000  0.0000  0.0000  0.0000  0.0000  0.0000  0.0000  0.0000  0.0000
  o =  0.1859  v =  0.0000  0.0000  0.0000  0.0000  0.0000  1.0000 -0.0000  0.0000 -0.0000  0.0000      0.0000  0.0000  0.0000  0.0000  0.0000  0.0000  0.0000  0.0000  0.0000  0.0000
  o =  1.2208  v =  1.0000 -0.0000  0.0000 -0.0000  0.0000  0.0000  0.0000  0.0000  0.0000  0.0000      0.0000  0.0000  0.0000  0.0000  0.0000  0.0000  0.0000  0.0000  0.0000  0.0000
  o =  1.2470  v = -0.0000 -0.8592  0.0000 -0.5117 -0.0000 -0.0000 -0.0000 -0.0000 -0.0000 -0.0000      0.0000  0.0000  0.0000  0.0000  0.0000  0.0000  0.0000  0.0000  0.0000  0.0000
  o =  1.2470  v = -0.0000  0.5117  0.0000 -0.8592  0.0000  0.0000  0.0000  0.0000  0.0000  0.0000      0.0000  0.0000  0.0000  0.0000  0.0000  0.0000  0.0000  0.0000  0.0000  0.0000
  o =  1.2783  v = -0.0000 -0.0000 -1.0000 -0.0000 -0.0000 -0.0000 -0.0000 -0.0000 -0.0000 -0.0000      0.0000  0.0000  0.0000  0.0000  0.0000  0.0000  0.0000  0.0000  0.0000  0.0000
  o =  1.2850  v = -0.0000 -0.0000 -0.0000  0.0000  1.0000  0.0000  0.0000  0.0000  0.0000  0.0000      0.0000  0.0000  0.0000  0.0000  0.0000  0.0000  0.0000  0.0000  0.0000  0.0000

atom =   4  type =  3  l = 0

 onsite density matrix

spin component  1

  0.7746

spin component  2

  0.8582

 occupancies and eigenvectors

  o =  0.7746  v =  1.0000  0.0000      0.0000  0.0000
  o =  0.8582  v =  0.0000  1.0000      0.0000  0.0000

atom =   5  type =  3  l = 0

 onsite density matrix

spin component  1

  0.7746

spin component  2

  0.8582

 occupancies and eigenvectors

  o =  0.7746  v =  1.0000  0.0000      0.0000  0.0000
  o =  0.8582  v =  0.0000  1.0000      0.0000  0.0000

atom =   6  type =  3  l = 0

 onsite density matrix

spin component  1

  0.7740

spin component  2

  0.8551

 occupancies and eigenvectors

  o =  0.7740  v =  1.0000  0.0000      0.0000  0.0000
  o =  0.8551  v =  0.0000  1.0000      0.0000  0.0000

atom =   7  type =  3  l = 0

 onsite density matrix

spin component  1

  0.7740

spin component  2

  0.8551

 occupancies and eigenvectors

  o =  0.7740  v =  1.0000  0.0000      0.0000  0.0000
  o =  0.8551  v =  0.0000  1.0000      0.0000  0.0000

    EDDIAG:  cpu time    0.5975: real time    0.6001
  RMM-DIIS:  cpu time    0.8794: real time    0.8795
    ORTHCH:  cpu time    0.0712: real time    0.0712
 BZINTS: Fermi energy:    6.626309;   62.000000 electrons
         Band energy:-0.687232E+03;  BLOECHL correction:   -0.096965
       DOS:  cpu time    0.0590: real time    0.0591
    CHARGE:  cpu time    0.0853: real time    0.0853
    MIXING:  cpu time    0.0005: real time    0.0006
    --------------------------------------------
      LOOP:  cpu time    2.3526: real time    2.3557

 eigenvalue-minimisations  : 18192
 total energy-change (2. order) :-0.3178507E+01  (-0.2530526E+02)
 number of electron      61.9999971 magnetization       5.4740392
 augmentation part       10.2445045 magnetization       4.6764568

 Broyden mixing:
  rms(total) = 0.12274E+02    rms(broyden)= 0.12273E+02
  rms(prec ) = 0.12750E+02
  weight for this iteration     100.00

 eigenvalues of (default mixing * dielectric matrix)
  average eigenvalue GAMMA=   0.0245
  0.0245

 Free energy of the ion-electron system (eV)
  ---------------------------------------------------
  alpha Z        PSCENC =       272.56028212
  Ewald energy   TEWEN  =     -4631.44717150
  -Hartree energ DENC   =     -2133.19018344
  -exchange      EXHF   =         0.00000000
  -V(xc)+E(xc)   XCENC  =       262.51237449
  PAW double counting   =      5620.89639138    -5727.11049043
  entropy T*S    EENTRO =         0.00000000
  eigenvalues    EBANDS =      -687.23249675
  atomic energy  EATOM  =      6962.44817098
  Solvation  Ediel_sol  =         0.00000000
  ---------------------------------------------------
  free energy    TOTEN  =       -60.56312315 eV

  energy without entropy =      -60.56312315  energy(sigma->0) =      -60.56312315


--------------------------------------------------------------------------------------------------------




--------------------------------------- Iteration      1(   7)  ---------------------------------------


    POTLOK:  cpu time    0.0225: real time    0.0227
    SETDIJ:  cpu time    0.6429: real time    0.6430
atom =   1  type =  1  l = 0

 onsite density matrix

spin component  1

  1.0355

spin component  2

  1.0787

 occupancies and eigenvectors

  o =  1.0355  v =  1.0000  0.0000      0.0000  0.0000
  o =  1.0787  v =  0.0000  1.0000      0.0000  0.0000

atom =   2  type =  1  l = 0

 onsite density matrix

spin component  1

  1.0355

spin component  2

  1.0787

 occupancies and eigenvectors

  o =  1.0355  v =  1.0000  0.0000      0.0000  0.0000
  o =  1.0787  v =  0.0000  1.0000      0.0000  0.0000

atom =   3  type =  2  l = 2

 onsite density matrix

spin component  1

  1.0742  0.0000  0.0000  0.0000  0.0000
  0.0000  1.0877  0.0000 -0.0000 -0.0000
  0.0000  0.0000  1.1547  0.0000  0.0000
  0.0000 -0.0000  0.0000  1.0877  0.0000
  0.0000 -0.0000  0.0000  0.0000  1.2288

spin component  2

  0.3761 -0.0000  0.0000 -0.0000  0.0000
 -0.0000  0.3429 -0.0000 -0.0000  0.0000
  0.0000 -0.0000  0.2610 -0.0000 -0.0000
 -0.0000 -0.0000 -0.0000  0.3429 -0.0000
  0.0000  0.0000 -0.0000 -0.0000  0.1696

 occupancies and eigenvectors

  o =  0.1696  v = -0.0000 -0.0000 -0.0000 -0.0000 -0.0000  0.0000  0.0000 -0.0000 -0.0000 -1.0000      0.0000  0.0000  0.0000  0.0000  0.0000  0.0000  0.0000 -0.0000  0.0000  0.0000
  o =  0.2610  v =  0.0000  0.0000  0.0000  0.0000  0.0000 -0.0000 -0.0000 -1.0000 -0.0000 -0.0000      0.0000  0.0000  0.0000  0.0000  0.0000  0.0000  0.0000  0.0000  0.0000  0.0000
  o =  0.3429  v =  0.0000  0.0000  0.0000  0.0000  0.0000 -0.0000  0.4711  0.0000 -0.8821  0.0000      0.0000  0.0000  0.0000  0.0000  0.0000  0.0000  0.0000  0.0000  0.0000  0.0000
  o =  0.3429  v =  0.0000  0.0000  0.0000  0.0000  0.0000  0.0000  0.8821 -0.0000  0.4711  0.0000      0.0000  0.0000  0.0000  0.0000  0.0000  0.0000  0.0000  0.0000  0.0000  0.0000
  o =  0.3761  v =  0.0000  0.0000  0.0000  0.0000  0.0000  1.0000 -0.0000  0.0000 -0.0000  0.0000      0.0000  0.0000  0.0000  0.0000  0.0000  0.0000  0.0000  0.0000  0.0000  0.0000
  o =  1.0742  v =  1.0000 -0.0000  0.0000 -0.0000 -0.0000  0.0000  0.0000  0.0000  0.0000  0.0000      0.0000  0.0000  0.0000  0.0000  0.0000  0.0000  0.0000  0.0000  0.0000  0.0000
  o =  1.0877  v = -0.0000  0.5592  0.0000 -0.8290  0.0000  0.0000  0.0000  0.0000  0.0000  0.0000      0.0000  0.0000  0.0000  0.0000  0.0000  0.0000  0.0000  0.0000  0.0000  0.0000
  o =  1.0877  v = -0.0000 -0.8290  0.0000 -0.5592 -0.0000 -0.0000 -0.0000 -0.0000 -0.0000 -0.0000      0.0000  0.0000  0.0000  0.0000  0.0000  0.0000  0.0000  0.0000  0.0000  0.0000
  o =  1.1547  v =  0.0000  0.0000  1.0000  0.0000  0.0000  0.0000  0.0000  0.0000  0.0000  0.0000      0.0000  0.0000 -0.0000 -0.0000  0.0000  0.0000  0.0000  0.0000  0.0000  0.0000
  o =  1.2288  v = -0.0000  0.0000  0.0000 -0.0000 -1.0000 -0.0000 -0.0000 -0.0000 -0.0000 -0.0000      0.0000 -0.0000  0.0000  0.0000  0.0000  0.0000  0.0000  0.0000  0.0000  0.0000

atom =   4  type =  3  l = 0

 onsite density matrix

spin component  1

  0.7847

spin component  2

  0.8432

 occupancies and eigenvectors

  o =  0.7847  v =  1.0000  0.0000      0.0000  0.0000
  o =  0.8432  v =  0.0000  1.0000      0.0000  0.0000

atom =   5  type =  3  l = 0

 onsite density matrix

spin component  1

  0.7847

spin component  2

  0.8432

 occupancies and eigenvectors

  o =  0.7847  v =  1.0000  0.0000      0.0000  0.0000
  o =  0.8432  v =  0.0000  1.0000      0.0000  0.0000

atom =   6  type =  3  l = 0

 onsite density matrix

spin component  1

  0.7849

spin component  2

  0.8376

 occupancies and eigenvectors

  o =  0.7849  v =  1.0000  0.0000      0.0000  0.0000
  o =  0.8376  v =  0.0000  1.0000      0.0000  0.0000

atom =   7  type =  3  l = 0

 onsite density matrix

spin component  1

  0.7849

spin component  2

  0.8376

 occupancies and eigenvectors

  o =  0.7849  v =  1.0000  0.0000      0.0000  0.0000
  o =  0.8376  v =  0.0000  1.0000      0.0000  0.0000

    EDDIAG:  cpu time    0.5818: real time    0.5818
  RMM-DIIS:  cpu time    0.9084: real time    0.9084
    ORTHCH:  cpu time    0.0716: real time    0.0716
 BZINTS: Fermi energy:    6.423365;   62.000000 electrons
         Band energy:-0.639014E+03;  BLOECHL correction:   -0.080998
       DOS:  cpu time    0.0599: real time    0.0601
    CHARGE:  cpu time    0.0876: real time    0.0876
    MIXING:  cpu time    0.0003: real time    0.0003
    --------------------------------------------
      LOOP:  cpu time    2.3751: real time    2.3756

 eigenvalue-minimisations  : 20086
 total energy-change (2. order) : 0.2775503E-01  (-0.4715380E+01)
 number of electron      61.9999971 magnetization       4.0784540
 augmentation part        9.9026671 magnetization       3.1359793

 Broyden mixing:
  rms(total) = 0.68634E+01    rms(broyden)= 0.68633E+01
  rms(prec ) = 0.75278E+01
  weight for this iteration     100.00

 eigenvalues of (default mixing * dielectric matrix)
  average eigenvalue GAMMA=   0.3719
  0.3719  0.3719

 Free energy of the ion-electron system (eV)
  ---------------------------------------------------
  alpha Z        PSCENC =       272.56028212
  Ewald energy   TEWEN  =     -4631.44717150
  -Hartree energ DENC   =     -2170.48273287
  -exchange      EXHF   =         0.00000000
  -V(xc)+E(xc)   XCENC  =       262.75033636
  PAW double counting   =      5882.88985934    -6000.24014733
  entropy T*S    EENTRO =         0.00000000
  eigenvalues    EBANDS =      -639.01396522
  atomic energy  EATOM  =      6962.44817098
  Solvation  Ediel_sol  =         0.00000000
  ---------------------------------------------------
  free energy    TOTEN  =       -60.53536812 eV

  energy without entropy =      -60.53536812  energy(sigma->0) =      -60.53536812


--------------------------------------------------------------------------------------------------------




--------------------------------------- Iteration      1(   8)  ---------------------------------------


    POTLOK:  cpu time    0.0225: real time    0.0227
    SETDIJ:  cpu time    0.6441: real time    0.6441
atom =   1  type =  1  l = 0

 onsite density matrix

spin component  1

  1.0391

spin component  2

  1.0512

 occupancies and eigenvectors

  o =  1.0391  v =  1.0000  0.0000      0.0000  0.0000
  o =  1.0512  v =  0.0000  1.0000      0.0000  0.0000

atom =   2  type =  1  l = 0

 onsite density matrix

spin component  1

  1.0391

spin component  2

  1.0512

 occupancies and eigenvectors

  o =  1.0391  v =  1.0000  0.0000      0.0000  0.0000
  o =  1.0512  v =  0.0000  1.0000      0.0000  0.0000

atom =   3  type =  2  l = 2

 onsite density matrix

spin component  1

  0.9401  0.0000 -0.0000  0.0000 -0.0000
  0.0000  0.9451  0.0000  0.0000 -0.0000
 -0.0000  0.0000  0.9887  0.0000 -0.0000
  0.0000  0.0000  0.0000  0.9451  0.0000
 -0.0000 -0.0000 -0.0000  0.0000  1.1337

spin component  2

  0.6229  0.0000 -0.0000  0.0000 -0.0000
  0.0000  0.6006  0.0000  0.0000 -0.0000
 -0.0000  0.0000  0.5060  0.0000  0.0000
  0.0000  0.0000  0.0000  0.6006  0.0000
 -0.0000 -0.0000  0.0000  0.0000  0.2199

 occupancies and eigenvectors

  o =  0.2199  v =  0.0000  0.0000  0.0000  0.0000  0.0000  0.0000  0.0000 -0.0000 -0.0000  1.0000      0.0000  0.0000  0.0000  0.0000  0.0000  0.0000  0.0000  0.0000  0.0000  0.0000
  o =  0.5060  v =  0.0000  0.0000  0.0000  0.0000  0.0000  0.0000  0.0000 -1.0000  0.0000 -0.0000      0.0000  0.0000  0.0000  0.0000  0.0000  0.0000  0.0000  0.0000  0.0000  0.0000
  o =  0.6006  v =  0.0000  0.0000  0.0000  0.0000  0.0000  0.0000  0.4195 -0.0000 -0.9078 -0.0000      0.0000  0.0000  0.0000  0.0000  0.0000  0.0000  0.0000  0.0000  0.0000  0.0000
  o =  0.6006  v =  0.0000  0.0000  0.0000  0.0000  0.0000  0.0000  0.9078  0.0000  0.4195 -0.0000      0.0000  0.0000  0.0000  0.0000  0.0000  0.0000  0.0000  0.0000  0.0000  0.0000
  o =  0.6229  v =  0.0000  0.0000  0.0000  0.0000  0.0000  1.0000  0.0000  0.0000  0.0000  0.0000      0.0000  0.0000  0.0000  0.0000  0.0000  0.0000  0.0000  0.0000  0.0000  0.0000
  o =  0.9401  v =  1.0000 -0.0000  0.0000 -0.0000  0.0000  0.0000  0.0000  0.0000  0.0000  0.0000      0.0000  0.0000  0.0000  0.0000  0.0000  0.0000  0.0000  0.0000  0.0000  0.0000
  o =  0.9451  v = -0.0000 -0.1161  0.0000 -0.9932  0.0000  0.0000  0.0000  0.0000  0.0000  0.0000      0.0000  0.0000  0.0000  0.0000  0.0000  0.0000  0.0000  0.0000  0.0000  0.0000
  o =  0.9451  v = -0.0000 -0.9932  0.0000  0.1161 -0.0000  0.0000  0.0000  0.0000  0.0000  0.0000      0.0000  0.0000  0.0000  0.0000  0.0000  0.0000  0.0000  0.0000  0.0000  0.0000
  o =  0.9887  v = -0.0000 -0.0000 -1.0000 -0.0000  0.0000  0.0000  0.0000  0.0000  0.0000  0.0000      0.0000  0.0000  0.0000  0.0000  0.0000  0.0000  0.0000  0.0000  0.0000  0.0000
  o =  1.1337  v =  0.0000  0.0000 -0.0000 -0.0000 -1.0000 -0.0000 -0.0000 -0.0000 -0.0000 -0.0000      0.0000  0.0000  0.0000  0.0000  0.0000  0.0000  0.0000  0.0000  0.0000  0.0000

atom =   4  type =  3  l = 0

 onsite density matrix

spin component  1

  0.8002

spin component  2

  0.8153

 occupancies and eigenvectors

  o =  0.8002  v =  1.0000  0.0000      0.0000  0.0000
  o =  0.8153  v =  0.0000  1.0000      0.0000  0.0000

atom =   5  type =  3  l = 0

 onsite density matrix

spin component  1

  0.8002

spin component  2

  0.8153

 occupancies and eigenvectors

  o =  0.8002  v =  1.0000  0.0000      0.0000  0.0000
  o =  0.8153  v =  0.0000  1.0000      0.0000  0.0000

atom =   6  type =  3  l = 0

 onsite density matrix

spin component  1

  0.7953

spin component  2

  0.8123

 occupancies and eigenvectors

  o =  0.7953  v =  1.0000  0.0000      0.0000  0.0000
  o =  0.8123  v =  0.0000  1.0000      0.0000  0.0000

atom =   7  type =  3  l = 0

 onsite density matrix

spin component  1

  0.7953

spin component  2

  0.8123

 occupancies and eigenvectors

  o =  0.7953  v =  1.0000  0.0000      0.0000  0.0000
  o =  0.8123  v =  0.0000  1.0000      0.0000  0.0000

    EDDIAG:  cpu time    0.5849: real time    0.5849
  RMM-DIIS:  cpu time    0.7343: real time    0.7343
    ORTHCH:  cpu time    0.0682: real time    0.0682
[...]
 -0.000   0.000   0.000   0.000  -0.000   0.000   0.000  -0.000
  0.000  -0.000   0.000  -0.000   0.000   0.000  -0.000   0.000
  0.000  -0.000   0.005   0.000  -0.000  -0.004   0.000  -0.000
  0.005   0.004   0.000   0.012   0.000   0.000  -0.001   0.000
  0.000  -0.000  -0.000   0.000   0.005  -0.000   0.000  -0.004
 -0.000   0.000   0.000   0.000  -0.000   0.000   0.000  -0.000
 -0.000   0.000   0.002   0.000   0.000  -0.001  -0.000   0.000
  0.000  -0.000  -0.000  -0.000  -0.000   0.000   0.000   0.000
 -0.000   0.000   0.009  -0.000  -0.000  -0.005   0.000   0.000
 -0.007  -0.002   0.000   0.013   0.000  -0.000  -0.009  -0.000
 -0.000   0.000  -0.000  -0.000   0.009   0.000   0.000  -0.005
 -0.000  -0.000   0.000   0.000  -0.000  -0.000  -0.000   0.000
  0.000  -0.000  -0.000  -0.000  -0.002  -0.000   0.000   0.001
 -0.000   0.000   0.002   0.000   0.000  -0.001  -0.000   0.000
  0.000  -0.000  -0.000  -0.000  -0.000   0.000   0.000   0.000
 -0.000   0.000   0.008  -0.000  -0.000  -0.005   0.000   0.000
 -0.006  -0.002   0.000   0.012   0.000  -0.000  -0.009  -0.000
 -0.000   0.000  -0.000  -0.000   0.008   0.000   0.000  -0.005
 -0.000   0.000   0.000   0.000  -0.000  -0.000  -0.000   0.000
  0.000  -0.000  -0.000  -0.000  -0.002  -0.000   0.000   0.001
 total augmentation occupancy for first ion, spin component:           1
  1.992   0.027   0.000   0.001   0.000   0.000   0.001   0.000   0.000   0.000   0.007   0.000  -0.000   0.000  -0.000  -0.013
  0.027   0.509   0.000   0.008   0.000  -0.000  -0.003  -0.000  -0.000   0.000   0.313   0.000   0.000   0.000  -0.000  -0.148
  0.000   0.000   2.025   0.000  -0.000  -0.002  -0.000  -0.000  -0.000  -0.059   0.000   0.000   0.000   0.000   0.025  -0.000
  0.001   0.008   0.000   2.033   0.000  -0.000  -0.013  -0.000   0.000   0.000   0.142   0.000   0.000   0.000  -0.000  -0.054
  0.000   0.000  -0.000   0.000   2.025   0.000  -0.000  -0.002  -0.000  -0.000   0.000  -0.059  -0.000   0.000   0.000  -0.000
  0.000  -0.000  -0.002  -0.000   0.000   0.010   0.000   0.000   0.000   0.027  -0.000  -0.000  -0.000  -0.000  -0.013   0.000
  0.001  -0.003  -0.000  -0.013  -0.000   0.000   0.017   0.000   0.000  -0.000  -0.072  -0.000  -0.000   0.000   0.000   0.033
  0.000  -0.000  -0.000  -0.000  -0.002   0.000   0.000   0.010   0.000  -0.000  -0.000   0.027   0.000  -0.000  -0.000   0.000
  0.000  -0.000  -0.000   0.000  -0.000   0.000   0.000   0.000   0.990   0.000  -0.000   0.000   0.000  -0.453  -0.000   0.000
  0.000   0.000  -0.059   0.000   0.000   0.027  -0.000   0.000   0.000   1.322   0.000  -0.000  -0.000  -0.000  -0.609  -0.000
  0.007   0.313   0.000   0.142   0.000  -0.000  -0.072  -0.000  -0.000   0.000   1.967   0.000   0.000  -0.000  -0.000  -0.917
  0.000   0.000   0.000   0.000  -0.059  -0.000  -0.000   0.027   0.000  -0.000   0.000   1.322   0.000  -0.000   0.000  -0.000
  0.000   0.000   0.000   0.000  -0.000  -0.000   0.000   0.000   0.000  -0.000   0.000   0.000   0.929  -0.000   0.000   0.000
  0.000  -0.000   0.000   0.000   0.000  -0.000   0.000  -0.000  -0.453  -0.000  -0.000  -0.000  -0.000   0.209   0.000   0.000
 -0.000  -0.000   0.025  -0.000  -0.000  -0.013   0.000   0.000  -0.000  -0.609  -0.000   0.000   0.000   0.000   0.283   0.000
 -0.013  -0.148  -0.000  -0.054  -0.000   0.000   0.033   0.000   0.000  -0.000  -0.917  -0.000   0.000   0.000   0.000   0.434
 -0.000  -0.000   0.000  -0.000   0.025  -0.000   0.000  -0.013  -0.000   0.000  -0.000  -0.609  -0.000   0.000  -0.000   0.000
  0.000  -0.000  -0.000  -0.000   0.000   0.000   0.000  -0.000   0.000   0.000   0.000  -0.000  -0.414   0.000  -0.000   0.000
  0.000   0.000   0.017   0.000  -0.000  -0.003   0.000   0.000   0.000   0.135  -0.000   0.000  -0.000  -0.000  -0.061   0.000
  0.000   0.000   0.000   0.000   0.000  -0.000  -0.000  -0.000   0.021  -0.000  -0.000  -0.000  -0.000  -0.005   0.000   0.000
 -0.000   0.000   0.030   0.000   0.000  -0.012  -0.000  -0.000  -0.000  -0.102   0.000  -0.000  -0.000   0.000   0.051  -0.000
 -0.027   0.189   0.000   0.036   0.000  -0.000  -0.034  -0.000  -0.000   0.000   0.606   0.000   0.000  -0.000  -0.000  -0.285
 -0.000   0.000   0.000   0.000   0.030   0.000  -0.000  -0.012  -0.000   0.000   0.000  -0.102   0.000   0.000   0.000  -0.000
  0.000   0.000  -0.000   0.000   0.000   0.000   0.000  -0.000  -0.000   0.000   0.000  -0.000  -0.334  -0.000  -0.000   0.000
 -0.000   0.000   0.000  -0.000  -0.017  -0.000  -0.000   0.003  -0.000   0.000   0.000  -0.135  -0.000   0.000  -0.000  -0.000
  0.000   0.000  -0.022  -0.000   0.000   0.004   0.000   0.000  -0.000  -0.186   0.000   0.000   0.000   0.000   0.083  -0.000
 -0.000   0.000  -0.000   0.000  -0.000   0.000   0.000   0.000  -0.042   0.000   0.000   0.000  -0.000   0.012  -0.000  -0.000
  0.000  -0.000  -0.043  -0.000   0.000   0.017   0.000  -0.000   0.000   0.132  -0.000   0.000   0.000  -0.000  -0.065   0.000
  0.033  -0.247  -0.000  -0.063  -0.000   0.000   0.046   0.000  -0.000  -0.000  -0.810  -0.000   0.000  -0.000   0.000   0.378
  0.000  -0.000  -0.000  -0.000  -0.043  -0.000   0.000   0.017   0.000  -0.000  -0.000   0.132  -0.000  -0.000   0.000   0.000
  0.000   0.000   0.000   0.000  -0.000  -0.000   0.000   0.000  -0.000  -0.000   0.000   0.000   0.445  -0.000   0.000   0.000
  0.000   0.000  -0.000   0.000   0.022   0.000   0.000  -0.004   0.000   0.000  -0.000   0.186   0.000  -0.000   0.000   0.000
 total augmentation occupancy for first ion, spin component:           2
 -0.000  -0.001   0.000   0.000   0.000   0.000   0.000   0.000  -0.000   0.000   0.001   0.000   0.000  -0.000  -0.000  -0.001
 -0.001   0.008   0.000   0.002   0.000  -0.000  -0.001  -0.000  -0.000   0.000   0.009   0.000   0.000  -0.000  -0.000  -0.004
  0.000   0.000  -0.000   0.000   0.000   0.000  -0.000  -0.000   0.000   0.001   0.000   0.000  -0.000  -0.000  -0.001  -0.000
  0.000   0.002   0.000   0.000   0.000  -0.000  -0.000  -0.000  -0.000   0.000   0.004   0.000   0.000   0.000  -0.000  -0.001
  0.000   0.000   0.000   0.000  -0.000  -0.000  -0.000   0.000   0.000   0.000   0.000   0.001   0.000  -0.000   0.000  -0.000
  0.000  -0.000   0.000  -0.000   0.000  -0.000   0.000  -0.000  -0.000  -0.000  -0.000   0.000   0.000   0.000   0.000   0.000
  0.000  -0.001  -0.000  -0.000  -0.000   0.000   0.000   0.000   0.000  -0.000  -0.003  -0.000   0.000   0.000   0.000   0.001
  0.000  -0.000  -0.000  -0.000   0.000  -0.000   0.000  -0.000  -0.000  -0.000  -0.000  -0.000  -0.000   0.000  -0.000   0.000
  0.000   0.000   0.000  -0.000   0.000  -0.000   0.000  -0.000  -0.009  -0.000  -0.000  -0.000  -0.000   0.004   0.000   0.000
  0.000   0.000   0.001   0.000   0.000  -0.000  -0.000  -0.000  -0.000  -0.006   0.000   0.000   0.000   0.000   0.002  -0.000
  0.001   0.009   0.000   0.004   0.000  -0.000  -0.003  -0.000  -0.000   0.000   0.028   0.000   0.000   0.000  -0.000  -0.010
  0.000   0.000   0.000   0.000   0.001   0.000  -0.000  -0.000  -0.000  -0.000   0.000  -0.006  -0.000   0.000   0.000  -0.000
  0.000   0.000  -0.000   0.000   0.000   0.000   0.000  -0.000   0.000   0.000   0.000  -0.000  -0.006   0.000  -0.000   0.000
  0.000  -0.000  -0.000   0.000  -0.000   0.000   0.000   0.000   0.004   0.000   0.000   0.000   0.000  -0.002  -0.000  -0.000
 -0.000  -0.000  -0.001  -0.000   0.000   0.000   0.000  -0.000   0.000   0.002  -0.000   0.000  -0.000  -0.000  -0.001   0.000
 -0.001  -0.004  -0.000  -0.001  -0.000   0.000   0.001   0.000  -0.000  -0.000  -0.010  -0.000   0.000  -0.000   0.000   0.003
 -0.000  -0.000   0.000  -0.000  -0.001  -0.000   0.000   0.000   0.000   0.000  -0.000   0.002   0.000  -0.000  -0.000   0.000
  0.000   0.000   0.000   0.000  -0.000  -0.000   0.000   0.000   0.000  -0.000   0.000   0.000   0.002   0.000   0.000   0.000
  0.000  -0.000  -0.000  -0.000   0.000   0.000  -0.000   0.000   0.000  -0.000   0.000   0.000   0.000  -0.000   0.000  -0.000
 -0.000   0.000  -0.000   0.000  -0.000   0.000   0.000   0.000   0.003   0.000   0.000   0.000   0.000  -0.001  -0.000  -0.000
  0.000   0.000  -0.000  -0.000  -0.000   0.000  -0.000  -0.000  -0.000   0.000   0.000  -0.000   0.000   0.000  -0.000  -0.000
  0.000   0.003  -0.000  -0.000  -0.000  -0.000  -0.001  -0.000   0.000   0.000   0.009   0.000  -0.000   0.000  -0.000  -0.003
  0.000   0.000  -0.000  -0.000  -0.000   0.000  -0.000   0.000  -0.000  -0.000   0.000   0.000  -0.000   0.000  -0.000  -0.000
  0.000  -0.000   0.000   0.000  -0.000  -0.000  -0.000   0.000   0.000  -0.000   0.000   0.000   0.001   0.000   0.000   0.000
  0.000   0.000  -0.000   0.000   0.000  -0.000   0.000  -0.000  -0.000  -0.000  -0.000   0.000   0.000   0.000  -0.000   0.000
  0.000  -0.000   0.000  -0.000   0.000   0.000   0.000  -0.000  -0.000   0.001  -0.000   0.000  -0.000   0.000  -0.000   0.000
 -0.000   0.000  -0.000   0.000  -0.000   0.000   0.000   0.000  -0.004  -0.000   0.000  -0.000  -0.000   0.001   0.000   0.000
  0.000  -0.000  -0.000  -0.000  -0.000   0.000   0.000   0.000   0.000  -0.000  -0.000   0.000  -0.000  -0.000   0.000   0.000
  0.000  -0.006  -0.000  -0.001  -0.000   0.000   0.001   0.000   0.000  -0.000  -0.019  -0.000   0.000  -0.000   0.000   0.007
  0.000  -0.000   0.000  -0.000  -0.000  -0.000   0.000   0.000   0.000   0.000  -0.000  -0.000   0.000  -0.000   0.000   0.000
  0.000   0.000   0.000   0.000  -0.000  -0.000   0.000   0.000   0.000   0.000   0.000  -0.000  -0.002  -0.000  -0.000   0.000
  0.000  -0.000  -0.000   0.000  -0.000  -0.000  -0.000  -0.000   0.000   0.000   0.000  -0.001  -0.000  -0.000  -0.000  -0.000


------------------------ aborting loop because EDIFF is reached ----------------------------------------





 total charge

# of ion       s       p       d       f       tot
--------------------------------------------------
    1        2.004   5.690   0.560   0.213   8.466
    2        2.004   5.690   0.560   0.213   8.466
    3        0.233   6.218   7.898   0.000  14.349
    4        1.559   3.382   0.000   0.000   4.941
    5        1.559   3.382   0.000   0.000   4.941
    6        1.554   3.471   0.000   0.000   5.025
    7        1.554   3.471   0.000   0.000   5.025
--------------------------------------------------
tot         10.468  31.304   9.017   0.425  51.215



 magnetization (x)

# of ion       s       p       d       f       tot
--------------------------------------------------
    1        0.001   0.000   0.001  -0.011  -0.009
    2        0.001   0.000   0.001  -0.011  -0.009
    3        0.014   0.011   1.775   0.000   1.800
    4        0.003   0.033   0.000   0.000   0.036
    5        0.003   0.033   0.000   0.000   0.036
    6        0.008   0.074   0.000   0.000   0.083
    7        0.008   0.074   0.000   0.000   0.083
--------------------------------------------------
tot          0.039   0.227   1.777  -0.023   2.020

    CHARGE:  cpu time    0.0861: real time    0.0861
    FORLOC:  cpu time    0.0006: real time    0.0006
    FORNL :  cpu time    0.2454: real time    0.2455
    STRESS:  cpu time    1.6192: real time    1.6193
    FORCOR:  cpu time    0.0123: real time    0.0123
    FORHAR:  cpu time    0.0018: real time    0.0018
    MIXING:  cpu time    0.0010: real time    0.0010
    OFIELD:  cpu time    0.0000: real time    0.0000

  FORCE on cell =-STRESS in cart. coord.  units (eV):
  Direction    XX          YY          ZZ          XY          YZ          ZX
  --------------------------------------------------------------------------------------
  Alpha Z   272.56028   272.56028   272.56028
  Ewald   -1231.99034 -1231.99034 -2167.47171    -0.00000     0.00000     0.00000
  Hartree  1064.91864  1064.91864   175.86757    -0.00000     0.00001     0.00001
  E(xc)    -317.42400  -317.42400  -316.95237    -0.00000     0.00000     0.00000
  Local   -1129.72023 -1129.72023   690.49510     0.00006    -0.00019    -0.00019
  n-local   127.42247   124.59610   114.29250     0.00030    -0.02638     0.03030
  augment   121.34915   121.34915   120.98695    -0.00043     0.00054     0.00055
  Kinetic  1083.97576  1098.81156  1106.69419     0.00022     0.07200    -0.07923
  Fock        0.00000     0.00000     0.00000     0.00000     0.00000     0.00000
  -------------------------------------------------------------------------------------
  Total      -2.90354    -2.90354    -3.52749    -0.00000    -0.00000    -0.00000
  in kB     -46.40237   -46.40237   -56.37390    -0.00000    -0.00000    -0.00000
  external pressure =      -49.73 kB  Pullay stress =        0.00 kB


 VOLUME and BASIS-vectors are now :
 -----------------------------------------------------------------------------
  energy-cutoff  :      520.00
  volume of cell :      100.25
      direct lattice vectors                 reciprocal lattice vectors
     3.975728685  0.000000000  0.000000000     0.251526218 -0.000000000  0.078832456
     0.000000000  3.975728685  0.000000000    -0.000000000  0.251526218  0.078832456
    -1.987864342 -1.987864342  6.342565302     0.000000000  0.000000000  0.157664912

  length of vectors
     3.975728685  3.975728685  6.937675685     0.263590581  0.263590581  0.157664912


 FORCES acting on ions
    electron-ion (+dipol)            ewald-force                    non-local-force                 convergence-correction
 -----------------------------------------------------------------------------------------------
   0.961E-05 0.961E-05 0.331E+03   0.418E-11 0.417E-11 -.331E+03   0.460E-16 0.416E-16 0.258E+00   -.438E-06 -.438E-06 -.689E-01
   -.961E-05 -.961E-05 -.331E+03   -.417E-11 -.417E-11 0.331E+03   -.451E-16 -.416E-16 -.258E+00   0.438E-06 0.438E-06 0.689E-01
   0.103E-14 0.891E-14 -.493E-13   0.366E-14 0.179E-13 -.114E-12   0.000E+00 0.000E+00 0.000E+00   0.113E-13 0.664E-13 0.451E-13
   0.310E-04 0.310E-04 -.207E+03   0.415E-12 0.426E-12 0.206E+03   0.108E-15 0.108E-15 0.655E+00   -.136E-06 -.136E-06 0.377E-01
   -.310E-04 -.310E-04 0.207E+03   -.424E-12 -.424E-12 -.206E+03   -.108E-15 -.108E-15 -.655E+00   0.136E-06 0.136E-06 -.377E-01
   -.130E-12 -.676E-12 0.329E-11   -.309E-14 -.215E-14 -.144E-16   0.000E+00 -.847E-21 0.000E+00   -.810E-14 0.107E-13 -.375E-13
   -.371E-14 0.850E-13 0.140E-13   -.410E-15 -.195E-13 -.710E-14   -.847E-21 0.000E+00 0.000E+00   -.353E-13 -.160E-13 -.358E-13
 -----------------------------------------------------------------------------------------------
   0.970E-12 0.518E-11 0.504E-11   -.357E-14 -.248E-14 0.213E-13   0.867E-18 -.847E-21 0.111E-15   -.422E-13 0.563E-13 0.589E-13


 POSITION                                       TOTAL-FORCE (eV/Angst)
 -----------------------------------------------------------------------------------
      0.00000      0.00000      4.61070        -0.000000     -0.000000     -0.257026
      1.98786      1.98786      1.73186         0.000000      0.000000      0.257026
      0.00000      0.00000      0.00000         0.000000     -0.000000      0.000000
      0.00000      0.00000      2.27055         0.000000      0.000000      0.036651
      1.98786      1.98786      4.07202        -0.000000     -0.000000     -0.036651
      1.98786      0.00000      0.00000        -0.000000      0.000000      0.000000
      0.00000      1.98786      0.00000        -0.000000      0.000000      0.000000
 -----------------------------------------------------------------------------------
    total drift:                                0.000000      0.000000      0.000000


--------------------------------------------------------------------------------------------------------



  FREE ENERGIE OF THE ION-ELECTRON SYSTEM (eV)
  ---------------------------------------------------
  free  energy   TOTEN  =       -50.63201791 eV

  energy  without entropy=      -50.63201791  energy(sigma->0) =      -50.63201791



--------------------------------------------------------------------------------------------------------


    POTLOK:  cpu time    0.6603: real time    0.6604


--------------------------------------------------------------------------------------------------------


 stress matrix after NEB project (eV)
     -2.90354     -0.00000     -0.00000
     -0.00000     -2.90354     -0.00000
     -0.00000     -0.00000     -3.52749
  FORCES: max atom, RMS     0.257026    0.138776
  FORCE total and by dimension    0.367167    0.257026
  Stress total and by dimension    5.413344    3.527491
     LOOP+:  cpu time   86.2918: real time   86.3346
 -----------------------------------------------------------------------------
|                                                                             |
|           W    W    AA    RRRRR   N    N  II  N    N   GGGG   !!!           |
|           W    W   A  A   R    R  NN   N  II  NN   N  G    G  !!!           |
|           W    W  A    A  R    R  N N  N  II  N N  N  G       !!!           |
|           W WW W  AAAAAA  RRRRR   N  N N  II  N  N N  G  GGG   !            |
|           WW  WW  A    A  R   R   N   NN  II  N   NN  G    G                |
|           W    W  A    A  R    R  N    N  II  N    N   GGGG   !!!           |
|                                                                             |
|     Tetrahedron method does not include variations of the Fermi             |
|     occupations, so forces and stress will be inaccurate. We suggest        |
|     using a different smearing scheme ISMEAR = 1 or 2 for metals in         |
|     relaxations.                                                            |
|                                                                             |
 -----------------------------------------------------------------------------

    4ORBIT:  cpu time    0.0000: real time    0.0000



 total charge

# of ion       s       p       d       f       tot
--------------------------------------------------
    1        2.004   5.690   0.560   0.213   8.466
    2        2.004   5.690   0.560   0.213   8.466
    3        0.233   6.218   7.898   0.000  14.349
    4        1.559   3.382   0.000   0.000   4.941
    5        1.559   3.382   0.000   0.000   4.941
    6        1.554   3.471   0.000   0.000   5.025
    7        1.554   3.471   0.000   0.000   5.025
--------------------------------------------------
tot         10.468  31.304   9.017   0.425  51.215



 magnetization (x)

# of ion       s       p       d       f       tot
--------------------------------------------------
    1        0.001   0.000   0.001  -0.011  -0.009
    2        0.001   0.000   0.001  -0.011  -0.009
    3        0.014   0.011   1.775   0.000   1.800
    4        0.003   0.033   0.000   0.000   0.036
    5        0.003   0.033   0.000   0.000   0.036
    6        0.008   0.074   0.000   0.000   0.083
    7        0.008   0.074   0.000   0.000   0.083
--------------------------------------------------
tot          0.039   0.227   1.777  -0.023   2.020

 BZINTS: Fermi energy:    9.165520;   62.000000 electrons
         Band energy:-0.482466E+03;  BLOECHL correction:   -0.050341

 total amount of memory used by VASP MPI-rank0   168280. kBytes
=======================================================================

   base      :      30000. kBytes
   nonl-proj :     126381. kBytes
   fftplans  :        608. kBytes
   grid      :       5074. kBytes
   one-center:        688. kBytes
   wavefun   :       5529. kBytes

  
  
 General timing and accounting informations for this job:
 ========================================================
  
                  Total CPU time used (sec):       94.473
                            User time (sec):       92.837
                          System time (sec):        1.636
                         Elapsed time (sec):       94.733
  
                   Maximum memory used (kb):      145364.
                   Average memory used (kb):          N/A
  
                          Minor page faults:       264501
                          Major page faults:          416
                 Voluntary context switches:         2019
