<?xml version="1.0" encoding="ISO-8859-1"?>
<modeling>
 <generator>
  <i name="program" type="string">vasp </i>
  <i name="version" type="string">6.2.1  </i>
  <i name="subversion" type="string">16May21 (build Aug 15 2022 14:47:30) complex                          parallel </i>
  <i name="platform" type="string">LinuxGNU </i>
  <i name="date" type="string">2025 12 24 </i>
  <i name="time" type="string">15:19:29 </i>
 </generator>
 <incar>
  <i type="string" name="PREC">Accurate</i>
  <i type="string" name="ALGO">Fast</i>
  <i type="int" name="NELM">   100</i>
  <i name="EDIFF">      0.00000001</i>
  <i type="int" name="NSW">     0</i>
  <i name="ENCUT">    520.00000000</i>
  <i type="logical" name="LREAL"> F  </i>
  <i type="int" name="ISMEAR">     1</i>
  <i type="logical" name="LWAVE"> F  </i>
  <i type="logical" name="LCHARG"> T  </i>
  <i type="int" name="LORBIT">    11</i>
  <i type="logical" name="LASPH"> T  </i>
 </incar>
 <primitive_cell>
  <structure name="primitive_cell" >
   <crystal>
    <varray name="basis" >
     <v>      -0.00000000      -1.80660249       1.78871534 </v>
     <v>      -0.00000000      -1.80660249      -1.78871534 </v>
     <v>       1.78871534       1.80660249       0.00000000 </v>
    </varray>
    <i name="volume">     11.56045855 </i>
    <varray name="rec_basis" >
     <v>       0.27953022      -0.27676260       0.27953022 </v>
     <v>       0.27953022      -0.27676260      -0.27953022 </v>
     <v>       0.55906045      -0.00000000       0.00000000 </v>
    </varray>
   </crystal>
   <varray name="positions" >
    <v>       0.00000000       0.00000000       0.00000000 </v>
   </varray>
  </structure>
  <varray name="primitive_index" >
   <v type="int" >        1 </v>
  </varray>
 </primitive_cell>
 <kpoints>
  <generation param="Gamma">
   <v type="int" name="divisions">      12       12       12 </v>
   <v name="usershift">      0.00000000       0.00000000       0.00000000 </v>
   <v name="genvec1">      0.08333333       0.00000000       0.00000000 </v>
   <v name="genvec2">      0.00000000       0.08333333       0.00000000 </v>
   <v name="genvec3">      0.00000000       0.00000000       0.08333333 </v>
   <v name="shift">      0.00000000       0.00000000       0.00000000 </v>
  </generation>
  <varray name="kpointlist" >
   <v>       0.00000000       0.00000000       0.00000000 </v>
   <v>       0.08333333       0.00000000       0.00000000 </v>
   <v>       0.16666667       0.00000000       0.00000000 </v>
   <v>       0.25000000       0.00000000       0.00000000 </v>
   <v>       0.33333333       0.00000000       0.00000000 </v>
   <v>       0.41666667       0.00000000       0.00000000 </v>
   <v>       0.50000000       0.00000000       0.00000000 </v>
   <v>       0.00000000       0.08333333       0.00000000 </v>
   <v>       0.08333333       0.08333333       0.00000000 </v>
   <v>       0.16666667       0.08333333       0.00000000 </v>
   <v>       0.25000000       0.08333333       0.00000000 </v>
   <v>       0.33333333       0.08333333       0.00000000 </v>
   <v>       0.41666667       0.08333333       0.00000000 </v>
   <v>       0.50000000       0.08333333       0.00000000 </v>
   <v>       0.00000000       0.16666667       0.00000000 </v>
   <v>       0.08333333       0.16666667       0.00000000 </v>
   <v>       0.16666667       0.16666667       0.00000000 </v>
   <v>       0.25000000       0.16666667       0.00000000 </v>
   <v>       0.33333333       0.16666667       0.00000000 </v>
   <v>       0.41666667       0.16666667       0.00000000 </v>
   <v>       0.50000000       0.16666667       0.00000000 </v>
   <v>       0.00000000       0.25000000       0.00000000 </v>
   <v>       0.08333333       0.25000000       0.00000000 </v>
   <v>       0.16666667       0.25000000       0.00000000 </v>
   <v>       0.25000000       0.25000000       0.00000000 </v>
   <v>       0.33333333       0.25000000       0.00000000 </v>
   <v>       0.41666667       0.25000000       0.00000000 </v>
   <v>       0.50000000       0.25000000       0.00000000 </v>
   <v>       0.00000000       0.33333333       0.00000000 </v>
   <v>       0.08333333       0.33333333       0.00000000 </v>
   <v>       0.16666667       0.33333333       0.00000000 </v>
   <v>       0.25000000       0.33333333       0.00000000 </v>
   <v>       0.33333333       0.33333333       0.00000000 </v>
   <v>       0.41666667       0.33333333       0.00000000 </v>
   <v>       0.50000000       0.33333333       0.00000000 </v>
   <v>       0.00000000       0.41666667       0.00000000 </v>
   <v>       0.08333333       0.41666667       0.00000000 </v>
   <v>       0.16666667       0.41666667       0.00000000 </v>
   <v>       0.25000000       0.41666667       0.00000000 </v>
   <v>       0.33333333       0.41666667       0.00000000 </v>
   <v>       0.41666667       0.41666667       0.00000000 </v>
   <v>       0.50000000       0.41666667       0.00000000 </v>
   <v>       0.00000000       0.50000000       0.00000000 </v>
   <v>       0.08333333       0.50000000       0.00000000 </v>
   <v>       0.16666667       0.50000000       0.00000000 </v>
   <v>       0.25000000       0.50000000       0.00000000 </v>
   <v>       0.33333333       0.50000000       0.00000000 </v>
   <v>       0.41666667       0.50000000       0.00000000 </v>
   <v>       0.50000000       0.50000000       0.00000000 </v>
   <v>       0.08333333       0.00000000       0.08333333 </v>
   <v>       0.16666667       0.00000000       0.08333333 </v>
   <v>       0.25000000       0.00000000       0.08333333 </v>
   <v>       0.33333333       0.00000000       0.08333333 </v>
   <v>       0.41666667       0.00000000       0.08333333 </v>
   <v>       0.50000000       0.00000000       0.08333333 </v>
   <v>       0.08333333       0.08333333       0.08333333 </v>
   <v>       0.16666667       0.08333333       0.08333333 </v>
   <v>       0.25000000       0.08333333       0.08333333 </v>
   <v>       0.33333333       0.08333333       0.08333333 </v>
   <v>       0.41666667       0.08333333       0.08333333 </v>
   <v>       0.50000000       0.08333333       0.08333333 </v>
   <v>       0.08333333       0.16666667       0.08333333 </v>
   <v>       0.16666667       0.16666667       0.08333333 </v>
   <v>       0.25000000       0.16666667       0.08333333 </v>
   <v>       0.33333333       0.16666667       0.08333333 </v>
   <v>       0.41666667       0.16666667       0.08333333 </v>
   <v>       0.50000000       0.16666667       0.08333333 </v>
   <v>       0.08333333       0.25000000       0.08333333 </v>
   <v>       0.16666667       0.25000000       0.08333333 </v>
   <v>       0.25000000       0.25000000       0.08333333 </v>
   <v>       0.33333333       0.25000000       0.08333333 </v>
   <v>       0.41666667       0.25000000       0.08333333 </v>
   <v>       0.50000000       0.25000000       0.08333333 </v>
   <v>       0.08333333       0.33333333       0.08333333 </v>
   <v>       0.16666667       0.33333333       0.08333333 </v>
   <v>       0.25000000       0.33333333       0.08333333 </v>
   <v>       0.33333333       0.33333333       0.08333333 </v>
   <v>       0.41666667       0.33333333       0.08333333 </v>
   <v>       0.50000000       0.33333333       0.08333333 </v>
   <v>       0.08333333       0.41666667       0.08333333 </v>
   <v>       0.16666667       0.41666667       0.08333333 </v>
   <v>       0.25000000       0.41666667       0.08333333 </v>
   <v>       0.33333333       0.41666667       0.08333333 </v>
   <v>       0.41666667       0.41666667       0.08333333 </v>
   <v>       0.50000000       0.41666667       0.08333333 </v>
   <v>       0.08333333       0.50000000       0.08333333 </v>
   <v>       0.16666667       0.50000000       0.08333333 </v>
   <v>       0.25000000       0.50000000       0.08333333 </v>
   <v>       0.33333333       0.50000000       0.08333333 </v>
   <v>       0.41666667       0.50000000       0.08333333 </v>
   <v>       0.50000000       0.50000000       0.08333333 </v>
   <v>       0.16666667       0.00000000       0.16666667 </v>
   <v>       0.25000000       0.00000000       0.16666667 </v>
   <v>       0.33333333       0.00000000       0.16666667 </v>
   <v>       0.41666667       0.00000000       0.16666667 </v>
   <v>       0.50000000       0.00000000       0.16666667 </v>
   <v>       0.16666667       0.08333333       0.16666667 </v>
   <v>       0.25000000       0.08333333       0.16666667 </v>
   <v>       0.33333333       0.08333333       0.16666667 </v>
   <v>       0.41666667       0.08333333       0.16666667 </v>
   <v>       0.50000000       0.08333333       0.16666667 </v>
   <v>       0.16666667       0.16666667       0.16666667 </v>
   <v>       0.25000000       0.16666667       0.16666667 </v>
   <v>       0.33333333       0.16666667       0.16666667 </v>
   <v>       0.41666667       0.16666667       0.16666667 </v>
   <v>       0.50000000       0.16666667       0.16666667 </v>
   <v>       0.16666667       0.25000000       0.16666667 </v>
   <v>       0.25000000       0.25000000       0.16666667 </v>
   <v>       0.33333333       0.25000000       0.16666667 </v>
   <v>       0.41666667       0.25000000       0.16666667 </v>
   <v>       0.50000000       0.25000000       0.16666667 </v>
   <v>       0.16666667       0.33333333       0.16666667 </v>
   <v>       0.25000000       0.33333333       0.16666667 </v>
   <v>       0.33333333       0.33333333       0.16666667 </v>
   <v>       0.41666667       0.33333333       0.16666667 </v>
   <v>       0.50000000       0.33333333       0.16666667 </v>
   <v>       0.16666667       0.41666667       0.16666667 </v>
   <v>       0.25000000       0.41666667       0.16666667 </v>
   <v>       0.33333333       0.41666667       0.16666667 </v>
   <v>       0.41666667       0.41666667       0.16666667 </v>
   <v>       0.50000000       0.41666667       0.16666667 </v>
   <v>       0.16666667       0.50000000       0.16666667 </v>
   <v>       0.25000000       0.50000000       0.16666667 </v>
   <v>       0.33333333       0.50000000       0.16666667 </v>
   <v>       0.41666667       0.50000000       0.16666667 </v>
   <v>       0.50000000       0.50000000       0.16666667 </v>
   <v>       0.25000000       0.00000000       0.25000000 </v>
   <v>       0.33333333       0.00000000       0.25000000 </v>
   <v>       0.41666667       0.00000000       0.25000000 </v>
   <v>       0.50000000       0.00000000       0.25000000 </v>
   <v>       0.25000000       0.08333333       0.25000000 </v>
   <v>       0.33333333       0.08333333       0.25000000 </v>
   <v>       0.41666667       0.08333333       0.25000000 </v>
   <v>       0.50000000       0.08333333       0.25000000 </v>
   <v>       0.25000000       0.16666667       0.25000000 </v>
   <v>       0.33333333       0.16666667       0.25000000 </v>
   <v>       0.41666667       0.16666667       0.25000000 </v>
   <v>       0.50000000       0.16666667       0.25000000 </v>
   <v>       0.25000000       0.25000000       0.25000000 </v>
   <v>       0.33333333       0.25000000       0.25000000 </v>
   <v>       0.41666667       0.25000000       0.25000000 </v>
   <v>       0.50000000       0.25000000       0.25000000 </v>
   <v>       0.25000000       0.33333333       0.25000000 </v>
   <v>       0.33333333       0.33333333       0.25000000 </v>
   <v>       0.41666667       0.33333333       0.25000000 </v>
   <v>       0.50000000       0.33333333       0.25000000 </v>
   <v>       0.25000000       0.41666667       0.25000000 </v>
   <v>       0.33333333       0.41666667       0.25000000 </v>
   <v>       0.41666667       0.41666667       0.25000000 </v>
   <v>       0.50000000       0.41666667       0.25000000 </v>
   <v>       0.25000000       0.50000000       0.25000000 </v>
   <v>       0.33333333       0.50000000       0.25000000 </v>
   <v>       0.41666667       0.50000000       0.25000000 </v>
   <v>       0.50000000       0.50000000       0.25000000 </v>
   <v>       0.33333333       0.00000000       0.33333333 </v>
   <v>       0.41666667       0.00000000       0.33333333 </v>
   <v>       0.50000000       0.00000000       0.33333333 </v>
   <v>       0.33333333       0.08333333       0.33333333 </v>
   <v>       0.41666667       0.08333333       0.33333333 </v>
   <v>       0.50000000       0.08333333       0.33333333 </v>
   <v>       0.33333333       0.16666667       0.33333333 </v>
   <v>       0.41666667       0.16666667       0.33333333 </v>
   <v>       0.50000000       0.16666667       0.33333333 </v>
   <v>       0.33333333       0.25000000       0.33333333 </v>
   <v>       0.41666667       0.25000000       0.33333333 </v>
   <v>       0.50000000       0.25000000       0.33333333 </v>
   <v>       0.33333333       0.33333333       0.33333333 </v>
   <v>       0.41666667       0.33333333       0.33333333 </v>
   <v>       0.50000000       0.33333333       0.33333333 </v>
   <v>       0.33333333       0.41666667       0.33333333 </v>
   <v>       0.41666667       0.41666667       0.33333333 </v>
   <v>       0.50000000       0.41666667       0.33333333 </v>
   <v>       0.33333333       0.50000000       0.33333333 </v>
   <v>       0.41666667       0.50000000       0.33333333 </v>
   <v>       0.50000000       0.50000000       0.33333333 </v>
   <v>       0.41666667       0.00000000       0.41666667 </v>
   <v>       0.50000000       0.00000000       0.41666667 </v>
   <v>       0.41666667       0.08333333       0.41666667 </v>
   <v>       0.50000000       0.08333333       0.41666667 </v>
   <v>       0.41666667       0.16666667       0.41666667 </v>
   <v>       0.50000000       0.16666667       0.41666667 </v>
   <v>       0.41666667       0.25000000       0.41666667 </v>
   <v>       0.50000000       0.25000000       0.41666667 </v>
   <v>       0.41666667       0.33333333       0.41666667 </v>
   <v>       0.50000000       0.33333333       0.41666667 </v>
   <v>       0.41666667       0.41666667       0.41666667 </v>
   <v>       0.50000000       0.41666667       0.41666667 </v>
   <v>       0.41666667       0.50000000       0.41666667 </v>
   <v>       0.50000000       0.50000000       0.41666667 </v>
   <v>       0.50000000       0.00000000       0.50000000 </v>
   <v>       0.50000000       0.08333333       0.50000000 </v>
   <v>       0.50000000       0.16666667       0.50000000 </v>
   <v>       0.50000000       0.25000000       0.50000000 </v>
   <v>       0.50000000       0.33333333       0.50000000 </v>
   <v>       0.50000000       0.41666667       0.50000000 </v>
   <v>       0.50000000       0.50000000       0.50000000 </v>
  </varray>
  <varray name="weights" >
   <v>       0.00057870 </v>
   <v>       0.00231481 </v>
   <v>       0.00231481 </v>
   <v>       0.00231481 </v>
   <v>       0.00231481 </v>
   <v>       0.00231481 </v>
   <v>       0.00115741 </v>
   <v>       0.00115741 </v>
   <v>       0.00462963 </v>
   <v>       0.00462963 </v>
   <v>       0.00462963 </v>
   <v>       0.00462963 </v>
   <v>       0.00462963 </v>
   <v>       0.00231481 </v>
   <v>       0.00115741 </v>
   <v>       0.00462963 </v>
   <v>       0.00462963 </v>
   <v>       0.00462963 </v>
   <v>       0.00462963 </v>
   <v>       0.00462963 </v>
   <v>       0.00231481 </v>
   <v>       0.00115741 </v>
   <v>       0.00462963 </v>
   <v>       0.00462963 </v>
   <v>       0.00462963 </v>
   <v>       0.00462963 </v>
   <v>       0.00462963 </v>
   <v>       0.00231481 </v>
   <v>       0.00115741 </v>
   <v>       0.00462963 </v>
   <v>       0.00462963 </v>
   <v>       0.00462963 </v>
   <v>       0.00462963 </v>
   <v>       0.00462963 </v>
   <v>       0.00231481 </v>
   <v>       0.00115741 </v>
   <v>       0.00462963 </v>
   <v>       0.00462963 </v>
   <v>       0.00462963 </v>
   <v>       0.00462963 </v>
   <v>       0.00462963 </v>
   <v>       0.00231481 </v>
   <v>       0.00057870 </v>
   <v>       0.00231481 </v>
   <v>       0.00231481 </v>
   <v>       0.00231481 </v>
   <v>       0.00231481 </v>
   <v>       0.00231481 </v>
   <v>       0.00115741 </v>
   <v>       0.00231481 </v>
   <v>       0.00462963 </v>
   <v>       0.00462963 </v>
   <v>       0.00462963 </v>
   <v>       0.00462963 </v>
   <v>       0.00231481 </v>
   <v>       0.00462963 </v>
   <v>       0.00925926 </v>
   <v>       0.00925926 </v>
   <v>       0.00925926 </v>
   <v>       0.00925926 </v>
   <v>       0.00462963 </v>
   <v>       0.00462963 </v>
   <v>       0.00925926 </v>
   <v>       0.00925926 </v>
   <v>       0.00925926 </v>
   <v>       0.00925926 </v>
   <v>       0.00462963 </v>
   <v>       0.00462963 </v>
   <v>       0.00925926 </v>
   <v>       0.00925926 </v>
   <v>       0.00925926 </v>
   <v>       0.00925926 </v>
   <v>       0.00462963 </v>
   <v>       0.00462963 </v>
   <v>       0.00925926 </v>
   <v>       0.00925926 </v>
   <v>       0.00925926 </v>
   <v>       0.00925926 </v>
   <v>       0.00462963 </v>
   <v>       0.00462963 </v>
   <v>       0.00925926 </v>
   <v>       0.00925926 </v>
   <v>       0.00925926 </v>
   <v>       0.00925926 </v>
   <v>       0.00462963 </v>
   <v>       0.00231481 </v>
   <v>       0.00462963 </v>
   <v>       0.00462963 </v>
   <v>       0.00462963 </v>
   <v>       0.00462963 </v>
   <v>       0.00231481 </v>
   <v>       0.00231481 </v>
   <v>       0.00462963 </v>
   <v>       0.00462963 </v>
   <v>       0.00462963 </v>
   <v>       0.00231481 </v>
   <v>       0.00462963 </v>
   <v>       0.00925926 </v>
   <v>       0.00925926 </v>
   <v>       0.00925926 </v>
   <v>       0.00462963 </v>
   <v>       0.00462963 </v>
   <v>       0.00925926 </v>
   <v>       0.00925926 </v>
   <v>       0.00925926 </v>
   <v>       0.00462963 </v>
   <v>       0.00462963 </v>
   <v>       0.00925926 </v>
   <v>       0.00925926 </v>
   <v>       0.00925926 </v>
   <v>       0.00462963 </v>
   <v>       0.00462963 </v>
   <v>       0.00925926 </v>
   <v>       0.00925926 </v>
   <v>       0.00925926 </v>
   <v>       0.00462963 </v>
   <v>       0.00462963 </v>
   <v>       0.00925926 </v>
   <v>       0.00925926 </v>
   <v>       0.00925926 </v>
   <v>       0.00462963 </v>
   <v>       0.00231481 </v>
   <v>       0.00462963 </v>
   <v>       0.00462963 </v>
   <v>       0.00462963 </v>
   <v>       0.00231481 </v>
   <v>       0.00231481 </v>
   <v>       0.00462963 </v>
   <v>       0.00462963 </v>
   <v>       0.00231481 </v>
   <v>       0.00462963 </v>
   <v>       0.00925926 </v>
   <v>       0.00925926 </v>
   <v>       0.00462963 </v>
   <v>       0.00462963 </v>
   <v>       0.00925926 </v>
   <v>       0.00925926 </v>
   <v>       0.00462963 </v>
   <v>       0.00462963 </v>
   <v>       0.00925926 </v>
   <v>       0.00925926 </v>
   <v>       0.00462963 </v>
   <v>       0.00462963 </v>
   <v>       0.00925926 </v>
   <v>       0.00925926 </v>
   <v>       0.00462963 </v>
   <v>       0.00462963 </v>
   <v>       0.00925926 </v>
   <v>       0.00925926 </v>
   <v>       0.00462963 </v>
   <v>       0.00231481 </v>
   <v>       0.00462963 </v>
   <v>       0.00462963 </v>
   <v>       0.00231481 </v>
   <v>       0.00231481 </v>
   <v>       0.00462963 </v>
   <v>       0.00231481 </v>
   <v>       0.00462963 </v>
   <v>       0.00925926 </v>
   <v>       0.00462963 </v>
   <v>       0.00462963 </v>
   <v>       0.00925926 </v>
   <v>       0.00462963 </v>
   <v>       0.00462963 </v>
   <v>       0.00925926 </v>
   <v>       0.00462963 </v>
   <v>       0.00462963 </v>
   <v>       0.00925926 </v>
   <v>       0.00462963 </v>
   <v>       0.00462963 </v>
   <v>       0.00925926 </v>
   <v>       0.00462963 </v>
   <v>       0.00231481 </v>
   <v>       0.00462963 </v>
   <v>       0.00231481 </v>
   <v>       0.00231481 </v>
   <v>       0.00231481 </v>
   <v>       0.00462963 </v>
   <v>       0.00462963 </v>
   <v>       0.00462963 </v>
   <v>       0.00462963 </v>
   <v>       0.00462963 </v>
   <v>       0.00462963 </v>
   <v>       0.00462963 </v>
   <v>       0.00462963 </v>
   <v>       0.00462963 </v>
   <v>       0.00462963 </v>
   <v>       0.00231481 </v>
   <v>       0.00231481 </v>
   <v>       0.00057870 </v>
   <v>       0.00115741 </v>
   <v>       0.00115741 </v>
   <v>       0.00115741 </v>
   <v>       0.00115741 </v>
   <v>       0.00115741 </v>
   <v>       0.00057870 </v>
  </varray>
 </kpoints>
 <parameters>
  <separator name="general" >
   <i type="string" name="SYSTEM">unknown system</i>
   <i type="logical" name="LCOMPAT"> F  </i>
  </separator>
  <separator name="electronic" >
   <i type="string" name="PREC">accura</i>
   <i name="ENMAX">    520.00000000</i>
   <i name="ENAUG">    758.23300000</i>
   <i name="EDIFF">      0.00000001</i>
   <i type="int" name="IALGO">    68</i>
   <i type="int" name="IWAVPR">    10</i>
   <i type="int" name="NBANDS">    40</i>
   <i type="int" name="NBANDSLOW">    -1</i>
   <i type="int" name="NBANDSHIGH">    -1</i>
   <i name="NELECT">     68.00000000</i>
   <i type="int" name="TURBO">     0</i>
   <i type="int" name="IRESTART">     0</i>
   <i type="int" name="NREBOOT">     0</i>
   <i type="int" name="NMIN">     0</i>
   <i name="EREF">      0.00000000</i>
   <separator name="electronic smearing" >
    <i type="int" name="ISMEAR">     1</i>
    <i name="SIGMA">      0.20000000</i>
    <i name="KSPACING">      0.50000000</i>
    <i type="logical" name="KGAMMA"> T  </i>
    <i type="logical" name="KBLOWUP"> T  </i>
   </separator>
   <separator name="electronic projectors" >
    <i type="logical" name="LREAL"> F  </i>
    <v name="ROPT">      0.00000000</v>
    <i type="int" name="LMAXPAW">  -100</i>
    <i type="int" name="LMAXMIX">     2</i>
    <i type="logical" name="NLSPLINE"> F  </i>
   </separator>
   <separator name="electronic startup" >
    <i type="int" name="ISTART">     0</i>
    <i type="int" name="ICHARG">     2</i>
    <i type="int" name="INIWAV">     1</i>
   </separator>
   <separator name="electronic spin" >
    <i type="int" name="ISPIN">     1</i>
    <i type="logical" name="LNONCOLLINEAR"> F  </i>
    <v name="MAGMOM">      1.00000000      1.00000000      1.00000000      1.00000000</v>
    <i name="NUPDOWN">     -1.00000000</i>
    <i type="logical" name="LSORBIT"> F  </i>
    <v name="SAXIS">      0.00000000      0.00000000      1.00000000</v>
    <i type="logical" name="LSPIRAL"> F  </i>
    <v name="QSPIRAL">      0.00000000      0.00000000      0.00000000</v>
    <i type="logical" name="LZEROZ"> F  </i>
   </separator>
   <separator name="electronic exchange-correlation" >
    <i type="logical" name="LASPH"> T  </i>
    <i type="logical" name="LMETAGGA"> F  </i>
   </separator>
   <separator name="electronic convergence" >
    <i type="int" name="NELM">   100</i>
    <i type="int" name="NELMDL">    -5</i>
    <i type="int" name="NELMIN">     2</i>
    <i name="ENINI">    520.00000000</i>
    <separator name="electronic convergence detail" >
     <i type="logical" name="LDIAG"> T  </i>
     <i type="logical" name="LSUBROT"> F  </i>
     <i name="WEIMIN">      0.00000000</i>
     <i name="EBREAK">      0.00000000</i>
     <i name="DEPER">      0.30000000</i>
     <i type="int" name="NRMM">     4</i>
     <i name="TIME">      0.40000000</i>
    </separator>
   </separator>
   <separator name="electronic mixer" >
    <i name="AMIX">      0.40000000</i>
    <i name="BMIX">      1.00000000</i>
    <i name="AMIN">      0.10000000</i>
    <i name="AMIX_MAG">      1.60000000</i>
    <i name="BMIX_MAG">      1.00000000</i>
    <separator name="electronic mixer details" >
     <i type="int" name="IMIX">     4</i>
     <i type="logical" name="MIXFIRST"> F  </i>
     <i type="int" name="MAXMIX">   -45</i>
     <i name="WC">    100.00000000</i>
     <i type="int" name="INIMIX">     1</i>
     <i type="int" name="MIXPRE">     1</i>
     <i type="int" name="MREMOVE">     5</i>
    </separator>
   </separator>
   <separator name="electronic dipolcorrection" >
    <i type="logical" name="LDIPOL"> F  </i>
    <i type="logical" name="LMONO"> F  </i>
    <i type="int" name="IDIPOL">     0</i>
    <i name="EPSILON">      1.00000000</i>
    <v name="DIPOL">   -100.00000000   -100.00000000   -100.00000000</v>
    <i name="EFIELD">      0.00000000</i>
   </separator>
  </separator>
  <separator name="grids" >
   <i type="int" name="NGX">    28</i>
   <i type="int" name="NGY">    28</i>
   <i type="int" name="NGZ">    28</i>
   <i type="int" name="NGXF">    56</i>
   <i type="int" name="NGYF">    56</i>
   <i type="int" name="NGZF">    56</i>
   <i type="logical" name="ADDGRID"> F  </i>
  </separator>
  <separator name="ionic" >
   <i type="int" name="NSW">     0</i>
   <i type="int" name="IBRION">    -1</i>
   <i type="int" name="MDALGO">     0</i>
   <i type="int" name="ISIF">     2</i>
   <i name="PSTRESS">      0.00000000</i>
   <i name="EDIFFG">      0.00000010</i>
   <i type="int" name="NFREE">     0</i>
   <i name="POTIM">      0.50000000</i>
   <i name="SMASS">     -3.00000000</i>
   <i name="SCALEE">      1.00000000</i>
  </separator>
  <separator name="ionic md" >
   <i name="TEBEG">      0.00010000</i>
   <i name="TEEND">      0.00010000</i>
   <i type="int" name="NBLOCK">     1</i>
   <i type="int" name="KBLOCK">     1</i>
   <i type="int" name="NPACO">   256</i>
   <i name="APACO">     16.00000000</i>
  </separator>
  <separator name="symmetry" >
   <i type="int" name="ISYM">     2</i>
   <i name="SYMPREC">      0.00001000</i>
  </separator>
  <separator name="dos" >
   <i type="int" name="LORBIT">    11</i>
   <v name="RWIGS">     -1.00000000</v>
   <i type="int" name="NEDOS">   301</i>
   <i name="EMIN">     10.00000000</i>
   <i name="EMAX">    -10.00000000</i>
   <i name="EFERMI">      0.00000000</i>
  </separator>
  <separator name="writing" >
   <i type="int" name="NWRITE">     2</i>
   <i type="logical" name="LWAVE"> F  </i>
   <i type="logical" name="LDOWNSAMPLE"> F  </i>
   <i type="logical" name="LCHARG"> T  </i>
   <i type="logical" name="LPARD"> F  </i>
   <i type="logical" name="LVTOT"> F  </i>
   <i type="logical" name="LVHAR"> F  </i>
   <i type="logical" name="LELF"> F  </i>
   <i type="logical" name="LOPTICS"> F  </i>
   <v name="STM">      0.00000000      0.00000000      0.00000000      0.00000000      0.00000000      0.00000000      0.00000000</v>
  </separator>
  <separator name="performance" >
   <i type="int" name="NPAR">     4</i>
   <i type="int" name="NSIM">     4</i>
   <i type="int" name="NBLK">    -1</i>
   <i type="logical" name="LPLANE"> T  </i>
   <i type="logical" name="LSCALAPACK"> T  </i>
   <i type="logical" name="LSCAAWARE"> F  </i>
   <i type="logical" name="LSCALU"> F  </i>
   <i type="logical" name="LASYNC"> F  </i>
   <i type="logical" name="LORBITALREAL"> F  </i>
  </separator>
  <separator name="miscellaneous" >
   <i type="int" name="IDIOT">     3</i>
   <i type="int" name="PHON_NSTRUCT">    -1</i>
   <i type="logical" name="LMUSIC"> F  </i>
   <v name="POMASS">     63.54600000</v>
   <v name="DARWINR">      0.00000000</v>
   <v name="DARWINV">      1.00000000</v>
   <i type="logical" name="LCORR"> T  </i>
  </separator>
  <i type="logical" name="GGA_COMPAT"> T  </i>
  <i type="logical" name="LBERRY"> F  </i>
  <i type="int" name="ICORELEVEL">     0</i>
  <i type="logical" name="LDAU"> F  </i>
  <i type="int" name="I_CONSTRAINED_M">     0</i>
  <separator name="electronic exchange-correlation" >
   <i type="string" name="GGA">--</i>
   <i type="int" name="VOSKOWN">     0</i>
   <i type="logical" name="LHFCALC"> F  </i>
   <i type="string" name="PRECFOCK"></i>
   <i type="logical" name="LSYMGRAD"> F  </i>
   <i type="logical" name="LHFONE"> F  </i>
   <i type="logical" name="LRHFCALC"> F  </i>
   <i type="logical" name="LTHOMAS"> F  </i>
   <i type="logical" name="LMODELHF"> F  </i>
   <i type="logical" name="LFOCKACE"> F  </i>
   <i name="ENCUT4O">     -1.00000000</i>
   <i type="int" name="EXXOEP">     0</i>
   <i type="int" name="FOURORBIT">     0</i>
   <i name="AEXX">      0.00000000</i>
   <i name="HFALPHA">      0.00000000</i>
   <i name="MCALPHA">      0.00000000</i>
   <i name="ALDAX">      1.00000000</i>
   <i name="AGGAX">      1.00000000</i>
   <i name="ALDAC">      1.00000000</i>
   <i name="AGGAC">      1.00000000</i>
   <i type="int" name="NKREDX">     1</i>
   <i type="int" name="NKREDY">     1</i>
   <i type="int" name="NKREDZ">     1</i>
   <i type="logical" name="SHIFTRED"> F  </i>
   <i type="logical" name="ODDONLY"> F  </i>
   <i type="logical" name="EVENONLY"> F  </i>
   <i type="int" name="LMAXFOCK">     0</i>
   <i type="int" name="NMAXFOCKAE">     0</i>
   <i type="logical" name="LFOCKAEDFT"> F  </i>
   <i name="HFSCREEN">      0.00000000</i>
   <i name="HFSCREENC">      0.00000000</i>
   <i type="int" name="NBANDSGWLOW">     0</i>
  </separator>
  <separator name="vdW DFT" >
   <i type="logical" name="LUSE_VDW"> F  </i>
   <i name="Zab_VDW">     -0.84910000</i>
   <i name="PARAM1">      0.12340000</i>
   <i name="PARAM2">      1.00000000</i>
   <i name="PARAM3">      0.00000000</i>
  </separator>
  <separator name="model GW" >
   <i type="int" name="MODEL_GW">     0</i>
   <i name="MODEL_EPS0">      6.93627513</i>
   <i name="MODEL_ALPHA">      1.00000000</i>
  </separator>
  <separator name="linear response parameters" >
   <i type="logical" name="LEPSILON"> F  </i>
   <i type="logical" name="LRPA"> F  </i>
   <i type="logical" name="LNABLA"> F  </i>
   <i type="logical" name="LVEL"> F  </i>
   <i type="int" name="KINTER">     0</i>
   <i name="CSHIFT">      0.10000000</i>
   <i name="OMEGAMAX">     -1.00000000</i>
   <i name="DEG_THRESHOLD">      0.00200000</i>
   <i name="RTIME">     -0.10000000</i>
   <i name="WPLASMAI">      0.00000000</i>
   <v name="DFIELD">      0.00000000      0.00000000      0.00000000</v>
   <v name="WPLASMA">      0.00000000      0.00000000      0.00000000      0.00000000      0.00000000      0.00000000      0.00000000      0.00000000      0.00000000</v>
  </separator>
  <separator name="orbital magnetization" >
   <i type="logical" name="NUCIND"> F  </i>
   <v name="MAGPOS">      0.00000000      0.00000000      0.00000000</v>
   <i type="logical" name="LNICSALL"> T  </i>
   <i type="logical" name="ORBITALMAG"> F  </i>
   <i type="logical" name="LMAGBLOCH"> F  </i>
   <i type="logical" name="LCHIMAG"> F  </i>
   <i type="logical" name="LGAUGE"> T  </i>
   <i type="int" name="MAGATOM">     0</i>
   <v name="MAGDIPOL">      0.00000000      0.00000000      0.00000000</v>
   <v name="AVECCONST">      0.00000000      0.00000000      0.00000000</v>
  </separator>
  <separator name="response functions" >
   <i type="logical" name="LFINITE_TEMPERATURE"> F  </i>
   <i type="logical" name="LADDER"> F  </i>
   <i type="logical" name="LRPAFORCE"> F  </i>
   <i type="logical" name="LFXC"> F  </i>
   <i type="logical" name="LHARTREE"> T  </i>
   <i type="int" name="IBSE">     0</i>
   <v type="int" name="KPOINT">    -1     0     0     0</v>
   <i type="logical" name="LTCTC"> F  </i>
   <i type="logical" name="LTCTE"> F  </i>
   <i type="logical" name="LTETE"> F  </i>
   <i type="logical" name="LTRIPLET"> F  </i>
   <i type="logical" name="LFXCEPS"> F  </i>
   <i type="logical" name="LFXHEG"> F  </i>
   <i type="int" name="NATURALO">     2</i>
   <i type="logical" name="LHOLEGF"> F  </i>
   <i type="logical" name="L2ORDER"> F  </i>
   <i type="logical" name="LDMP1"> F  </i>
   <i type="logical" name="LMP2LT"> F  </i>
   <i type="logical" name="LSMP2LT"> F  </i>
   <i type="logical" name="LGWLF"> F  </i>
   <i name="ENCUTGW">     -2.00000000</i>
   <i name="ENCUTGWSOFT">     -2.00000000</i>
   <i name="ENCUTLF">     -1.00000000</i>
   <i type="logical" name="LESF_SPLINES"> F  </i>
   <i type="int" name="LMAXMP2">    -1</i>
   <i name="SCISSOR">      0.00000000</i>
   <i type="int" name="NOMEGA">     0</i>
   <i type="int" name="NOMEGAR">     0</i>
   <i type="int" name="NBANDSGW">    -1</i>
   <i type="int" name="NBANDSO">    -1</i>
   <i type="int" name="NBANDSV">    -1</i>
   <i type="int" name="NELM">   100</i>
   <i type="int" name="NELMHF">     1</i>
   <i type="int" name="DIM">     3</i>
   <i type="int" name="IESPILON">     4</i>
   <i type="int" name="ANTIRES">     0</i>
   <i name="OMEGAMAX">    -30.00000000</i>
   <i name="OMEGAMIN">    -30.00000000</i>
   <i name="OMEGATL">   -200.00000000</i>
   <i type="int" name="OMEGAGRID">     0</i>
   <i name="CSHIFT">     -0.10000000</i>
   <i type="logical" name="LSELFENERGY"> F  </i>
   <i type="logical" name="LSPECTRAL"> F  </i>
   <i type="logical" name="LSPECTRALGW"> F  </i>
   <i type="logical" name="LSINGLES"> F  </i>
   <i type="logical" name="LFERMIGW"> F  </i>
   <i type="logical" name="ODDONLYGW"> F  </i>
   <i type="logical" name="EVENONLYGW"> F  </i>
   <i type="int" name="NKREDLFX">     1</i>
   <i type="int" name="NKREDLFY">     1</i>
   <i type="int" name="NKREDLFZ">     1</i>
   <i type="int" name="MAXMEM">  2800</i>
   <i type="int" name="TELESCOPE">     0</i>
   <i type="int" name="NTAUPAR">    -1</i>
   <i type="int" name="NOMEGAPAR">    -1</i>
   <i name="DAMP_NEWTON">      0.80000001</i>
   <i name="LAMBDA">      1.00000000</i>
  </separator>
  <separator name="External order field" >
   <i name="OFIELD_KAPPA">      0.00000000</i>
   <v name="OFIELD_K">      0.00000000      0.00000000      0.00000000</v>
   <i name="OFIELD_Q6_NEAR">      0.00000000</i>
   <i name="OFIELD_Q6_FAR">      0.00000000</i>
   <i name="OFIELD_A">      0.00000000</i>
  </separator>
 </parameters>
 <atominfo>
  <atoms>       4 </atoms>
  <types>       1 </types>
  <array name="atoms" >
   <dimension dim="1">ion</dimension>
   <field type="string">element</field>
   <field type="int">atomtype</field>
   <set>
    <rc><c>Cu</c><c>   1</c></rc>
    <rc><c>Cu</c><c>   1</c></rc>
    <rc><c>Cu</c><c>   1</c></rc>
    <rc><c>Cu</c><c>   1</c></rc>
   </set>
  </array>
  <array name="atomtypes" >
   <dimension dim="1">type</dimension>
   <field type="int">atomspertype</field>
   <field type="string">element</field>
   <field>mass</field>
   <field>valence</field>
   <field type="string">pseudopotential</field>
   <set>
    <rc><c>   4</c><c>Cu</c><c>     63.54600000</c><c>     17.00000000</c><c> PAW_PBE Cu_pv 06Sep2000                </c></rc>
   </set>
  </array>
 </atominfo>
 <structure name="initialpos" >
  <crystal>
   <varray name="basis" >
    <v>       3.57743067       0.00000000       0.00000000 </v>
    <v>       0.00000000       3.61320498       0.00000000 </v>
    <v>       0.00000000       0.00000000       3.57743067 </v>
   </varray>
   <i name="volume">     46.24183420 </i>
   <varray name="rec_basis" >
    <v>       0.27953022      -0.00000000       0.00000000 </v>
    <v>       0.00000000       0.27676260       0.00000000 </v>
    <v>      -0.00000000      -0.00000000       0.27953022 </v>
   </varray>
  </crystal>
  <varray name="positions" >
   <v>       0.00000000       0.00000000       0.00000000 </v>
   <v>       0.00000000       0.50000000       0.50000000 </v>
   <v>       0.50000000       0.00000000       0.50000000 </v>
   <v>       0.50000000       0.50000000       0.00000000 </v>
  </varray>
 </structure>
 <calculation>
  <scstep>
   <time name="dav">    4.85    4.85</time>
   <time name="total">    4.95    4.95</time>
   <energy>
    <i name="alphaZ">    625.98352205 </i>
    <i name="ewald"> -10631.57985322 </i>
    <i name="hartreedc">  -5137.51798885 </i>
    <i name="XCdc">    433.40976685 </i>
    <i name="pawpsdc">  12922.79092432 </i>
    <i name="pawaedc"> -13518.70815821 </i>
    <i name="eentropy">      0.00175804 </i>
    <i name="bandstr">   -261.01120520 </i>
    <i name="atom">  16476.54478555 </i>
    <i name="e_fr_energy">    909.91355133 </i>
    <i name="e_wo_entrp">    909.91179329 </i>
    <i name="e_0_energy">    909.91296532 </i>
   </energy>
  </scstep>
  <scstep>
   <time name="dav">    4.61    4.61</time>
   <time name="total">    4.62    4.62</time>
   <energy>
    <i name="e_fr_energy">     39.36156144 </i>
    <i name="e_wo_entrp">     39.36306367 </i>
    <i name="e_0_energy">     39.36206218 </i>
   </energy>
  </scstep>
  <scstep>
   <time name="dav">    4.79    4.79</time>
   <time name="total">    4.79    4.79</time>
   <energy>
    <i name="e_fr_energy">    -18.34546571 </i>
    <i name="e_wo_entrp">    -18.34490760 </i>
    <i name="e_0_energy">    -18.34527967 </i>
   </energy>
  </scstep>
  <scstep>
   <time name="dav">    4.76    4.76</time>
   <time name="total">    4.77    4.77</time>
   <energy>
    <i name="e_fr_energy">    -19.77315547 </i>
    <i name="e_wo_entrp">    -19.77331367 </i>
    <i name="e_0_energy">    -19.77320820 </i>
   </energy>
  </scstep>
  <scstep>
   <time name="dav">    5.23    5.23</time>
   <time name="total">    5.78    5.78</time>
   <energy>
    <i name="e_fr_energy">    -19.81994018 </i>
    <i name="e_wo_entrp">    -19.82009751 </i>
    <i name="e_0_energy">    -19.81999262 </i>
   </energy>
  </scstep>
  <scstep>
   <time name="diag">    1.32    1.32</time>
   <time name="diis">    3.59    3.59</time>
   <time name="orth">    0.07    0.07</time>
   <time name="total">    5.61    5.61</time>
   <energy>
    <i name="e_fr_energy">    -17.87937253 </i>
    <i name="e_wo_entrp">    -17.88374587 </i>
    <i name="e_0_energy">    -17.88083031 </i>
   </energy>
  </scstep>
  <scstep>
   <time name="diag">    1.28    1.28</time>
   <time name="diis">    3.60    3.60</time>
   <time name="orth">    0.09    0.09</time>
   <time name="total">    5.59    5.59</time>
   <energy>
    <i name="e_fr_energy">    -16.40243477 </i>
    <i name="e_wo_entrp">    -16.40555328 </i>
    <i name="e_0_energy">    -16.40347427 </i>
   </energy>
  </scstep>
  <scstep>
   <time name="diag">    1.35    1.35</time>
   <time name="diis">    3.75    3.75</time>
   <time name="orth">    0.07    0.07</time>
   <time name="total">    5.78    5.78</time>
   <energy>
    <i name="e_fr_energy">    -16.36738304 </i>
    <i name="e_wo_entrp">    -16.37059529 </i>
    <i name="e_0_energy">    -16.36845379 </i>
   </energy>
  </scstep>
  <scstep>
   <time name="diag">    1.23    1.23</time>
   <time name="diis">    3.70    3.70</time>
   <time name="orth">    0.07    0.07</time>
   <time name="total">    5.64    5.64</time>
   <energy>
    <i name="e_fr_energy">    -16.36643951 </i>
    <i name="e_wo_entrp">    -16.36983489 </i>
    <i name="e_0_energy">    -16.36757130 </i>
   </energy>
  </scstep>
  <scstep>
   <time name="diag">    1.29    1.29</time>
   <time name="diis">    3.90    3.90</time>
   <time name="orth">    0.07    0.07</time>
   <time name="total">    5.90    5.90</time>
   <energy>
    <i name="e_fr_energy">    -16.36670809 </i>
    <i name="e_wo_entrp">    -16.37004463 </i>
    <i name="e_0_energy">    -16.36782027 </i>
   </energy>
  </scstep>
  <scstep>
   <time name="diag">    1.32    1.32</time>
   <time name="diis">    4.18    4.18</time>
   <time name="orth">    0.07    0.07</time>
   <time name="total">    6.21    6.21</time>
   <energy>
    <i name="e_fr_energy">    -16.36673215 </i>
    <i name="e_wo_entrp">    -16.37009900 </i>
    <i name="e_0_energy">    -16.36785443 </i>
   </energy>
  </scstep>
  <scstep>
   <time name="diag">    1.35    1.35</time>
   <time name="diis">    4.53    4.53</time>
   <time name="orth">    0.08    0.08</time>
   <time name="total">    6.61    6.61</time>
   <energy>
    <i name="e_fr_energy">    -16.36675173 </i>
    <i name="e_wo_entrp">    -16.37010724 </i>
    <i name="e_0_energy">    -16.36787023 </i>
   </energy>
  </scstep>
  <scstep>
   <time name="diag">    1.28    1.28</time>
   <time name="diis">    4.66    4.66</time>
   <time name="orth">    0.07    0.07</time>
   <time name="total">    6.65    6.65</time>
   <energy>
    <i name="e_fr_energy">    -16.36675984 </i>
    <i name="e_wo_entrp">    -16.37011783 </i>
    <i name="e_0_energy">    -16.36787917 </i>
   </energy>
  </scstep>
  <scstep>
   <time name="diag">    1.33    1.33</time>
   <time name="diis">    4.95    4.95</time>
   <time name="orth">    0.08    0.08</time>
   <time name="total">    7.01    7.01</time>
   <energy>
    <i name="e_fr_energy">    -16.36676148 </i>
    <i name="e_wo_entrp">    -16.37011880 </i>
    <i name="e_0_energy">    -16.36788059 </i>
   </energy>
  </scstep>
  <scstep>
   <time name="diag">    1.27    1.27</time>
   <time name="diis">    5.01    5.01</time>
   <time name="orth">    0.08    0.08</time>
   <time name="total">    7.03    7.03</time>
   <energy>
    <i name="e_fr_energy">    -16.36676163 </i>
    <i name="e_wo_entrp">    -16.37011914 </i>
    <i name="e_0_energy">    -16.36788080 </i>
   </energy>
  </scstep>
  <scstep>
   <time name="diag">    1.35    1.35</time>
   <time name="diis">    3.97    3.97</time>
   <time name="orth">    0.07    0.07</time>
   <time name="total">    6.04    6.04</time>
   <energy>
    <i name="e_fr_energy">    -16.36676168 </i>
    <i name="e_wo_entrp">    -16.37011907 </i>
    <i name="e_0_energy">    -16.36788081 </i>
   </energy>
  </scstep>
  <scstep>
   <time name="diag">    1.30    1.30</time>
   <time name="diis">    2.56    2.56</time>
   <time name="orth">    0.08    0.08</time>
   <time name="total">    4.59    4.59</time>
   <energy>
    <i name="e_fr_energy">    -16.36676162 </i>
    <i name="e_wo_entrp">    -16.37011915 </i>
    <i name="e_0_energy">    -16.36788080 </i>
   </energy>
  </scstep>
  <scstep>
   <time name="diag">    1.28    1.28</time>
   <time name="diis">    2.32    2.32</time>
   <time name="orth">    0.07    0.07</time>
   <time name="total">    3.76    3.76</time>
   <energy>
    <i name="alphaZ">    625.98352205 </i>
    <i name="ewald"> -10631.57985322 </i>
    <i name="hartreedc">  -4973.55820065 </i>
    <i name="XCdc">    427.72414745 </i>
    <i name="pawpsdc">  12800.46286171 </i>
    <i name="pawaedc"> -13414.30073281 </i>
    <i name="eentropy">      0.00335751 </i>
    <i name="bandstr">  -1327.64664920 </i>
    <i name="atom">  16476.54478555 </i>
    <i name="e_fr_energy">    -16.36676163 </i>
    <i name="e_wo_entrp">    -16.37011914 </i>
    <i name="e_0_energy">    -16.36788080 </i>
   </energy>
  </scstep>
  <structure>
   <crystal>
    <varray name="basis" >
     <v>       3.57743067       0.00000000       0.00000000 </v>
     <v>       0.00000000       3.61320498       0.00000000 </v>
     <v>       0.00000000       0.00000000       3.57743067 </v>
    </varray>
    <i name="volume">     46.24183420 </i>
    <varray name="rec_basis" >
     <v>       0.27953022      -0.00000000       0.00000000 </v>
     <v>       0.00000000       0.27676260       0.00000000 </v>
     <v>      -0.00000000      -0.00000000       0.27953022 </v>
    </varray>
   </crystal>
   <varray name="positions" >
    <v>       0.00000000       0.00000000       0.00000000 </v>
    <v>       0.00000000       0.50000000       0.50000000 </v>
    <v>       0.50000000       0.00000000       0.50000000 </v>
    <v>       0.50000000       0.50000000       0.00000000 </v>
   </varray>
  </structure>
  <varray name="forces" >
   <v>       0.00000000      -0.00000000      -0.00000000 </v>
   <v>       0.00000000       0.00000000       0.00000000 </v>
   <v>      -0.00000000      -0.00000000      -0.00000000 </v>
   <v>       0.00000000       0.00000000       0.00000000 </v>
  </varray>
  <varray name="stress" >
   <v>      35.31332159       0.00000000       0.00000000 </v>
   <v>       0.00000000      29.27642004       0.00000000 </v>
   <v>       0.00000000       0.00000000      35.31332159 </v>
  </varray>
  <energy>
   <i name="e_fr_energy">    -16.36676163 </i>
   <i name="e_wo_entrp">    -16.37011914 </i>
   <i name="e_0_energy">    -16.36788080 </i>
  </energy>
  <time name="totalsc">  104.58  104.60</time>
  <eigenvalues>
   <array>
    <dimension dim="1">band</dimension>
    <dimension dim="2">kpoint</dimension>
    <dimension dim="3">spin</dimension>
    <field>eigene</field>
    <field>occ</field>
    <set>
     <set comment="spin 1">
      <set comment="kpoint 1">
       <r>  -62.8157    1.0000 </r>
       <r>  -62.8157    1.0000 </r>
       <r>  -62.8150    1.0000 </r>
       <r>  -62.7522    1.0000 </r>
       <r>  -62.7522    1.0000 </r>
       <r>  -62.7495    1.0000 </r>
       <r>  -62.7495    1.0000 </r>
       <r>  -62.7484    1.0000 </r>
       <r>  -62.7484    1.0000 </r>
       <r>  -62.7069    1.0000 </r>
       <r>  -62.7065    1.0000 </r>
       <r>  -62.7065    1.0000 </r>
       <r>   -2.3872    1.0000 </r>
       <r>    2.1272    1.0000 </r>
       <r>    2.1399    1.0000 </r>
       <r>    2.1399    1.0000 </r>
       <r>    2.6124    1.0000 </r>
       <r>    2.6124    1.0000 </r>
       <r>    2.6174    1.0000 </r>
       <r>    4.0333    1.0000 </r>
       <r>    4.0835    1.0000 </r>
       <r>    4.0835    1.0000 </r>
       <r>    4.8981    1.0000 </r>
       <r>    4.9485    1.0000 </r>
       <r>    5.4962    1.0000 </r>
       <r>    5.4962    1.0000 </r>
       <r>    5.4990    1.0000 </r>
       <r>    5.6505    1.0000 </r>
       <r>    5.6505    1.0000 </r>
       <r>    5.6636    1.0000 </r>
       <r>    5.6636    1.0000 </r>
       <r>    5.6840    1.0000 </r>
       <r>    5.6840    1.0000 </r>
       <r>    8.4633   -0.0000 </r>
       <r>    8.6791   -0.0000 </r>
       <r>    8.6791   -0.0000 </r>
       <r>   14.2504    0.0000 </r>
       <r>   14.5141    0.0000 </r>
       <r>   14.5141    0.0000 </r>
       <r>   20.3569    0.0000 </r>
      </set>
      <set comment="kpoint 2">
       <r>  -62.8146    1.0000 </r>
       <r>  -62.8146    1.0000 </r>
       <r>  -62.8146    1.0000 </r>
       <r>  -62.7524    1.0000 </r>
       <r>  -62.7517    1.0000 </r>
       <r>  -62.7506    1.0000 </r>
       <r>  -62.7498    1.0000 </r>
       <r>  -62.7492    1.0000 </r>
       <r>  -62.7490    1.0000 </r>
       <r>  -62.7078    1.0000 </r>
       <r>  -62.7075    1.0000 </r>
       <r>  -62.7067    1.0000 </r>
       <r>   -2.3008    1.0000 </r>
       <r>    2.1396    1.0000 </r>
       <r>    2.1685    1.0000 </r>
       <r>    2.1808    1.0000 </r>
       <r>    2.6359    1.0000 </r>
       <r>    2.6364    1.0000 </r>
       <r>    2.6421    1.0000 </r>
       <r>    4.0550    1.0000 </r>
       <r>    4.0571    1.0000 </r>
       <r>    4.1038    1.0000 </r>
       <r>    4.8949    1.0000 </r>
       <r>    4.9383    1.0000 </r>
       <r>    5.4657    1.0000 </r>
       <r>    5.4681    1.0000 </r>
       <r>    5.4858    1.0000 </r>
       <r>    5.4975    1.0000 </r>
       <r>    5.5254    1.0000 </r>
       <r>    5.6141    1.0000 </r>
       <r>    5.6459    1.0000 </r>
       <r>    5.6508    1.0000 </r>
       <r>    5.6630    1.0000 </r>
       <r>    8.1603   -0.0000 </r>
       <r>    8.7058   -0.0000 </r>
       <r>    8.9143   -0.0000 </r>
       <r>   14.2805    0.0000 </r>
       <r>   14.5444    0.0000 </r>
       <r>   15.2020    0.0000 </r>
       <r>   19.7972    0.0000 </r>
      </set>
      <set comment="kpoint 3">
       <r>  -62.8119    1.0000 </r>
       <r>  -62.8113    1.0000 </r>
       <r>  -62.8102    1.0000 </r>
       <r>  -62.7541    1.0000 </r>
       <r>  -62.7533    1.0000 </r>
       <r>  -62.7526    1.0000 </r>
       <r>  -62.7497    1.0000 </r>
       <r>  -62.7493    1.0000 </r>
       <r>  -62.7471    1.0000 </r>
       <r>  -62.7132    1.0000 </r>
       <r>  -62.7096    1.0000 </r>
       <r>  -62.7089    1.0000 </r>
       <r>   -2.0434    1.0000 </r>
       <r>    2.1218    1.0000 </r>
       <r>    2.2870    1.0000 </r>
       <r>    2.2976    1.0000 </r>
       <r>    2.7055    1.0000 </r>
       <r>    2.7087    1.0000 </r>
       <r>    2.7170    1.0000 </r>
       <r>    3.9795    1.0000 </r>
       <r>    4.1189    1.0000 </r>
       <r>    4.1643    1.0000 </r>
       <r>    4.8407    1.0000 </r>
       <r>    4.9527    1.0000 </r>
       <r>    5.1165    1.0000 </r>
       <r>    5.1531    1.0000 </r>
       <r>    5.3773    1.0000 </r>
       <r>    5.3787    1.0000 </r>
       <r>    5.4557    1.0000 </r>
       <r>    5.5114    1.0000 </r>
       <r>    5.5377    1.0000 </r>
       <r>    5.6511    1.0000 </r>
       <r>    5.6625    1.0000 </r>
       <r>    7.0613    0.8853 </r>
       <r>    9.3174   -0.0000 </r>
       <r>    9.5155   -0.0000 </r>
       <r>   14.3738    0.0000 </r>
       <r>   14.6383    0.0000 </r>
       <r>   16.8212    0.0000 </r>
       <r>   18.7837    0.0000 </r>
      </set>
      <set comment="kpoint 4">
       <r>  -62.8063    1.0000 </r>
       <r>  -62.8063    1.0000 </r>
       <r>  -62.8015    1.0000 </r>
       <r>  -62.7594    1.0000 </r>
       <r>  -62.7587    1.0000 </r>
       <r>  -62.7521    1.0000 </r>
       <r>  -62.7495    1.0000 </r>
       <r>  -62.7460    1.0000 </r>
       <r>  -62.7437    1.0000 </r>
       <r>  -62.7219    1.0000 </r>
       <r>  -62.7124    1.0000 </r>
       <r>  -62.7122    1.0000 </r>
       <r>   -1.6213    1.0000 </r>
       <r>    2.0276    1.0000 </r>
       <r>    2.4638    1.0000 </r>
       <r>    2.4726    1.0000 </r>
       <r>    2.8171    1.0000 </r>
       <r>    2.8309    1.0000 </r>
       <r>    2.8432    1.0000 </r>
       <r>    3.8574    1.0000 </r>
       <r>    4.2237    1.0000 </r>
       <r>    4.2634    1.0000 </r>
       <r>    4.6738    1.0000 </r>
       <r>    4.7142    1.0000 </r>
       <r>    4.7388    1.0000 </r>
       <r>    4.9961    1.0000 </r>
       <r>    5.2412    1.0000 </r>
       <r>    5.2415    1.0000 </r>
       <r>    5.3560    1.0000 </r>
       <r>    5.3742    1.0000 </r>
       <r>    5.4083    1.0000 </r>
       <r>    5.6524    1.0000 </r>
       <r>    5.6616    1.0000 </r>
       <r>    5.9275    1.0000 </r>
       <r>   10.1429   -0.0000 </r>
       <r>   10.3358   -0.0000 </r>
       <r>   14.5393    0.0000 </r>
       <r>   14.8039    0.0000 </r>
       <r>   17.2213    0.0000 </r>
       <r>   17.4325    0.0000 </r>
      </set>
      <set comment="kpoint 5">
       <r>  -62.7997    1.0000 </r>
       <r>  -62.7994    1.0000 </r>
       <r>  -62.7895    1.0000 </r>
       <r>  -62.7662    1.0000 </r>
       <r>  -62.7657    1.0000 </r>
       <r>  -62.7514    1.0000 </r>
       <r>  -62.7495    1.0000 </r>
       <r>  -62.7407    1.0000 </r>
       <r>  -62.7388    1.0000 </r>
       <r>  -62.7335    1.0000 </r>
       <r>  -62.7170    1.0000 </r>
       <r>  -62.7166    1.0000 </r>
       <r>   -1.0476    1.0000 </r>
       <r>    1.7430    1.0000 </r>
       <r>    2.6652    1.0000 </r>
       <r>    2.6709    1.0000 </r>
       <r>    2.9641    1.0000 </r>
       <r>    3.0049    1.0000 </r>
       <r>    3.0222    1.0000 </r>
       <r>    3.6997    1.0000 </r>
       <r>    4.2432    1.0000 </r>
       <r>    4.2820    1.0000 </r>
       <r>    4.3660    1.0000 </r>
       <r>    4.3984    1.0000 </r>
       <r>    4.6159    1.0000 </r>
       <r>    5.0546    1.0000 </r>
       <r>    5.0551    1.0000 </r>
       <r>    5.0803    1.0000 </r>
       <r>    5.0808    1.0000 </r>
       <r>    5.1662    1.0000 </r>
       <r>    5.1747    1.0000 </r>
       <r>    5.3472    1.0000 </r>
       <r>    5.6539    1.0000 </r>
       <r>    5.6605    1.0000 </r>
       <r>   11.1057   -0.0000 </r>
       <r>   11.2976   -0.0000 </r>
       <r>   14.7900    0.0000 </r>
       <r>   15.0516    0.0000 </r>
       <r>   15.8687    0.0000 </r>
       <r>   16.0743    0.0000 </r>
      </set>
      <set comment="kpoint 6">
       <r>  -62.7915    1.0000 </r>
       <r>  -62.7914    1.0000 </r>
       <r>  -62.7761    1.0000 </r>
       <r>  -62.7743    1.0000 </r>
       <r>  -62.7737    1.0000 </r>
       <r>  -62.7513    1.0000 </r>
       <r>  -62.7502    1.0000 </r>
       <r>  -62.7465    1.0000 </r>
       <r>  -62.7350    1.0000 </r>
       <r>  -62.7334    1.0000 </r>
       <r>  -62.7226    1.0000 </r>
       <r>  -62.7218    1.0000 </r>
       <r>   -0.3471    1.0000 </r>
       <r>    1.1809    1.0000 </r>
       <r>    2.8353    1.0000 </r>
       <r>    2.8381    1.0000 </r>
       <r>    3.1375    1.0000 </r>
       <r>    3.2324    1.0000 </r>
       <r>    3.2558    1.0000 </r>
       <r>    3.5184    1.0000 </r>
       <r>    3.8533    1.0000 </r>
       <r>    3.8880    1.0000 </r>
       <r>    4.5042    1.0000 </r>
       <r>    4.5413    1.0000 </r>
       <r>    4.5647    1.0000 </r>
       <r>    4.5889    1.0000 </r>
       <r>    4.9396    1.0000 </r>
       <r>    4.9401    1.0000 </r>
       <r>    4.9579    1.0000 </r>
       <r>    4.9602    1.0000 </r>
       <r>    5.1247    1.0000 </r>
       <r>    5.2760    1.0000 </r>
       <r>    5.6557    1.0000 </r>
       <r>    5.6592    1.0000 </r>
       <r>   12.1734   -0.0000 </r>
       <r>   12.3669   -0.0000 </r>
       <r>   14.5654    0.0000 </r>
       <r>   14.7662    0.0000 </r>
       <r>   15.1352    0.0000 </r>
       <r>   15.3750    0.0000 </r>
      </set>
      <set comment="kpoint 7">
       <r>  -62.7826    1.0000 </r>
       <r>  -62.7826    1.0000 </r>
       <r>  -62.7825    1.0000 </r>
       <r>  -62.7825    1.0000 </r>
       <r>  -62.7617    1.0000 </r>
       <r>  -62.7617    1.0000 </r>
       <r>  -62.7509    1.0000 </r>
       <r>  -62.7509    1.0000 </r>
       <r>  -62.7289    1.0000 </r>
       <r>  -62.7289    1.0000 </r>
       <r>  -62.7277    1.0000 </r>
       <r>  -62.7277    1.0000 </r>
       <r>    0.4299    1.0000 </r>
       <r>    0.4299    1.0000 </r>
       <r>    2.9052    1.0000 </r>
       <r>    2.9052    1.0000 </r>
       <r>    3.3264    1.0000 </r>
       <r>    3.3264    1.0000 </r>
       <r>    3.5154    1.0000 </r>
       <r>    3.5154    1.0000 </r>
       <r>    3.5446    1.0000 </r>
       <r>    3.5446    1.0000 </r>
       <r>    4.4590    1.0000 </r>
       <r>    4.4590    1.0000 </r>
       <r>    4.7420    1.0000 </r>
       <r>    4.7420    1.0000 </r>
       <r>    4.7551    1.0000 </r>
       <r>    4.7551    1.0000 </r>
       <r>    4.8814    1.0000 </r>
       <r>    4.8814    1.0000 </r>
       <r>    5.2001    1.0000 </r>
       <r>    5.2001    1.0000 </r>
       <r>    5.6575    1.0000 </r>
       <r>    5.6575    1.0000 </r>
       <r>   13.3301    0.0000 </r>
       <r>   13.3301    0.0000 </r>
       <r>   13.5267    0.0000 </r>
       <r>   13.5267    0.0000 </r>
       <r>   15.5054    0.0000 </r>
       <r>   15.5055    0.0000 </r>
      </set>
      <set comment="kpoint 8">
       <r>  -62.8150    1.0000 </r>
       <r>  -62.8150    1.0000 </r>
       <r>  -62.8138    1.0000 </r>
       <r>  -62.7534    1.0000 </r>
       <r>  -62.7534    1.0000 </r>
       <r>  -62.7499    1.0000 </r>
       <r>  -62.7499    1.0000 </r>
       <r>  -62.7480    1.0000 </r>
       <r>  -62.7480    1.0000 </r>
       <r>  -62.7082    1.0000 </r>
       <r>  -62.7066    1.0000 </r>
       <r>  -62.7066    1.0000 </r>
       <r>   -2.3025    1.0000 </r>
       <r>    2.1251    1.0000 </r>
       <r>    2.1797    1.0000 </r>
       <r>    2.1797    1.0000 </r>
       <r>    2.6374    1.0000 </r>
       <r>    2.6374    1.0000 </r>
       <r>    2.6400    1.0000 </r>
       <r>    4.0080    1.0000 </r>
       <r>    4.1045    1.0000 </r>
       <r>    4.1045    1.0000 </r>
       <r>    4.8747    1.0000 </r>
       <r>    4.9581    1.0000 </r>
       <r>    5.4649    1.0000 </r>
       <r>    5.4649    1.0000 </r>
       <r>    5.4894    1.0000 </r>
       <r>    5.4962    1.0000 </r>
       <r>    5.4962    1.0000 </r>
       <r>    5.6276    1.0000 </r>
       <r>    5.6276    1.0000 </r>
       <r>    5.6840    1.0000 </r>
       <r>    5.6840    1.0000 </r>
       <r>    7.9613   -0.0000 </r>
       <r>    8.9079   -0.0000 </r>
       <r>    8.9079   -0.0000 </r>
       <r>   14.5436    0.0000 </r>
       <r>   14.5436    0.0000 </r>
       <r>   14.9207    0.0000 </r>
       <r>   19.7938    0.0000 </r>
      </set>
      <set comment="kpoint 9">
       <r>  -62.8139    1.0000 </r>
       <r>  -62.8133    1.0000 </r>
       <r>  -62.8131    1.0000 </r>
       <r>  -62.7549    1.0000 </r>
       <r>  -62.7526    1.0000 </r>
       <r>  -62.7496    1.0000 </r>
       <r>  -62.7491    1.0000 </r>
       <r>  -62.7491    1.0000 </r>
       <r>  -62.7481    1.0000 </r>
       <r>  -62.7109    1.0000 </r>
       <r>  -62.7077    1.0000 </r>
       <r>  -62.7068    1.0000 </r>
       <r>   -2.2164    1.0000 </r>
       <r>    2.1673    1.0000 </r>
       <r>    2.1804    1.0000 </r>
       <r>    2.2197    1.0000 </r>
       <r>    2.6605    1.0000 </r>
       <r>    2.6606    1.0000 </r>
       <r>    2.6644    1.0000 </r>
       <r>    4.0109    1.0000 </r>
       <r>    4.0968    1.0000 </r>
       <r>    4.1225    1.0000 </r>
       <r>    4.8743    1.0000 </r>
       <r>    4.9464    1.0000 </r>
       <r>    5.3953    1.0000 </r>
       <r>    5.4124    1.0000 </r>
       <r>    5.4166    1.0000 </r>
       <r>    5.4357    1.0000 </r>
       <r>    5.4944    1.0000 </r>
       <r>    5.4950    1.0000 </r>
       <r>    5.6272    1.0000 </r>
       <r>    5.6444    1.0000 </r>
       <r>    5.6461    1.0000 </r>
       <r>    8.2022   -0.0000 </r>
       <r>    8.3862   -0.0000 </r>
       <r>    9.1252   -0.0000 </r>
       <r>   14.5739    0.0000 </r>
       <r>   14.9620    0.0000 </r>
       <r>   15.2425    0.0000 </r>
       <r>   18.6467    0.0000 </r>
      </set>
      <set comment="kpoint 10">
       <r>  -62.8107    1.0000 </r>
       <r>  -62.8101    1.0000 </r>
       <r>  -62.8092    1.0000 </r>
       <r>  -62.7581    1.0000 </r>
       <r>  -62.7525    1.0000 </r>
       <r>  -62.7508    1.0000 </r>
       <r>  -62.7496    1.0000 </r>
       <r>  -62.7485    1.0000 </r>
       <r>  -62.7469    1.0000 </r>
       <r>  -62.7164    1.0000 </r>
       <r>  -62.7095    1.0000 </r>
       <r>  -62.7082    1.0000 </r>
       <r>   -1.9601    1.0000 </r>
       <r>    2.1656    1.0000 </r>
       <r>    2.2887    1.0000 </r>
       <r>    2.3340    1.0000 </r>
       <r>    2.7287    1.0000 </r>
       <r>    2.7301    1.0000 </r>
       <r>    2.7380    1.0000 </r>
       <r>    3.9650    1.0000 </r>
       <r>    4.1311    1.0000 </r>
       <r>    4.1763    1.0000 </r>
       <r>    4.8363    1.0000 </r>
       <r>    4.9515    1.0000 </r>
       <r>    5.0471    1.0000 </r>
       <r>    5.0800    1.0000 </r>
       <r>    5.2783    1.0000 </r>
       <r>    5.3510    1.0000 </r>
       <r>    5.3852    1.0000 </r>
       <r>    5.4660    1.0000 </r>
       <r>    5.5375    1.0000 </r>
       <r>    5.6206    1.0000 </r>
       <r>    5.6265    1.0000 </r>
       <r>    7.3050    0.0436 </r>
       <r>    8.7881   -0.0000 </r>
       <r>    9.6948   -0.0000 </r>
       <r>   14.6659    0.0000 </r>
       <r>   15.0895    0.0000 </r>
       <r>   16.8743    0.0000 </r>
       <r>   17.2793    0.0000 </r>
      </set>
      <set comment="kpoint 11">
       <r>  -62.8052    1.0000 </r>
       <r>  -62.8051    1.0000 </r>
       <r>  -62.8012    1.0000 </r>
       <r>  -62.7627    1.0000 </r>
       <r>  -62.7578    1.0000 </r>
       <r>  -62.7492    1.0000 </r>
       <r>  -62.7485    1.0000 </r>
       <r>  -62.7470    1.0000 </r>
       <r>  -62.7432    1.0000 </r>
       <r>  -62.7253    1.0000 </r>
       <r>  -62.7132    1.0000 </r>
       <r>  -62.7113    1.0000 </r>
       <r>   -1.5401    1.0000 </r>
       <r>    2.0762    1.0000 </r>
       <r>    2.4708    1.0000 </r>
       <r>    2.5055    1.0000 </r>
       <r>    2.8381    1.0000 </r>
       <r>    2.8469    1.0000 </r>
       <r>    2.8618    1.0000 </r>
       <r>    3.8522    1.0000 </r>
       <r>    4.2285    1.0000 </r>
       <r>    4.2616    1.0000 </r>
       <r>    4.6076    1.0000 </r>
       <r>    4.6736    1.0000 </r>
       <r>    4.7460    1.0000 </r>
       <r>    4.9966    1.0000 </r>
       <r>    5.0517    1.0000 </r>
       <r>    5.2204    1.0000 </r>
       <r>    5.2477    1.0000 </r>
       <r>    5.3737    1.0000 </r>
       <r>    5.4060    1.0000 </r>
       <r>    5.6157    1.0000 </r>
       <r>    5.6252    1.0000 </r>
       <r>    6.2484    1.0000 </r>
       <r>    9.5520   -0.0000 </r>
       <r>   10.4894   -0.0000 </r>
       <r>   14.8121    0.0000 </r>
       <r>   15.3138    0.0000 </r>
       <r>   15.9638    0.0000 </r>
       <r>   17.5375    0.0000 </r>
      </set>
      <set comment="kpoint 12">
       <r>  -62.7990    1.0000 </r>
       <r>  -62.7985    1.0000 </r>
       <r>  -62.7900    1.0000 </r>
       <r>  -62.7691    1.0000 </r>
       <r>  -62.7649    1.0000 </r>
       <r>  -62.7489    1.0000 </r>
       <r>  -62.7481    1.0000 </r>
       <r>  -62.7417    1.0000 </r>
       <r>  -62.7383    1.0000 </r>
       <r>  -62.7365    1.0000 </r>
       <r>  -62.7179    1.0000 </r>
       <r>  -62.7157    1.0000 </r>
       <r>   -0.9694    1.0000 </r>
       <r>    1.7979    1.0000 </r>
       <r>    2.6792    1.0000 </r>
       <r>    2.7022    1.0000 </r>
       <r>    2.9821    1.0000 </r>
       <r>    3.0099    1.0000 </r>
       <r>    3.0374    1.0000 </r>
       <r>    3.7002    1.0000 </r>
       <r>    4.1852    1.0000 </r>
       <r>    4.2621    1.0000 </r>
       <r>    4.3606    1.0000 </r>
       <r>    4.3683    1.0000 </r>
       <r>    4.6516    1.0000 </r>
       <r>    4.7173    1.0000 </r>
       <r>    5.0632    1.0000 </r>
       <r>    5.0659    1.0000 </r>
       <r>    5.0866    1.0000 </r>
       <r>    5.1741    1.0000 </r>
       <r>    5.2908    1.0000 </r>
       <r>    5.5704    1.0000 </r>
       <r>    5.6154    1.0000 </r>
       <r>    5.6233    1.0000 </r>
       <r>   10.4203   -0.0000 </r>
       <r>   11.4331   -0.0000 </r>
       <r>   14.5533    0.0000 </r>
       <r>   15.2250    0.0000 </r>
       <r>   15.6482    0.0000 </r>
       <r>   16.1798    0.0000 </r>
      </set>
      <set comment="kpoint 13">
       <r>  -62.7920    1.0000 </r>
       <r>  -62.7904    1.0000 </r>
       <r>  -62.7774    1.0000 </r>
       <r>  -62.7763    1.0000 </r>
       <r>  -62.7730    1.0000 </r>
       <r>  -62.7493    1.0000 </r>
       <r>  -62.7489    1.0000 </r>
       <r>  -62.7484    1.0000 </r>
       <r>  -62.7360    1.0000 </r>
       <r>  -62.7327    1.0000 </r>
       <r>  -62.7236    1.0000 </r>
       <r>  -62.7208    1.0000 </r>
       <r>   -0.2731    1.0000 </r>
       <r>    1.2425    1.0000 </r>
       <r>    2.8579    1.0000 </r>
       <r>    2.8710    1.0000 </r>
       <r>    3.1518    1.0000 </r>
       <r>    3.2190    1.0000 </r>
       <r>    3.2659    1.0000 </r>
       <r>    3.5237    1.0000 </r>
       <r>    3.8064    1.0000 </r>
       <r>    3.8819    1.0000 </r>
       <r>    4.3917    1.0000 </r>
       <r>    4.4400    1.0000 </r>
       <r>    4.5422    1.0000 </r>
       <r>    4.6646    1.0000 </r>
       <r>    4.9317    1.0000 </r>
       <r>    4.9438    1.0000 </r>
       <r>    4.9575    1.0000 </r>
       <r>    5.0534    1.0000 </r>
       <r>    5.1436    1.0000 </r>
       <r>    5.3403    1.0000 </r>
       <r>    5.6169    1.0000 </r>
       <r>    5.6213    1.0000 </r>
       <r>   11.3645   -0.0000 </r>
       <r>   12.4900   -0.0000 </r>
       <r>   13.4517    0.0000 </r>
       <r>   14.8749    0.0000 </r>
       <r>   15.5258    0.0000 </r>
       <r>   16.0749    0.0000 </r>
      </set>
      <set comment="kpoint 14">
       <r>  -62.7842    1.0000 </r>
       <r>  -62.7842    1.0000 </r>
       <r>  -62.7817    1.0000 </r>
       <r>  -62.7817    1.0000 </r>
       <r>  -62.7633    1.0000 </r>
       <r>  -62.7633    1.0000 </r>
       <r>  -62.7490    1.0000 </r>
       <r>  -62.7490    1.0000 </r>
       <r>  -62.7297    1.0000 </r>
       <r>  -62.7297    1.0000 </r>
       <r>  -62.7265    1.0000 </r>
       <r>  -62.7265    1.0000 </r>
       <r>    0.4984    1.0000 </r>
       <r>    0.4984    1.0000 </r>
       <r>    2.9360    1.0000 </r>
       <r>    2.9360    1.0000 </r>
       <r>    3.3366    1.0000 </r>
       <r>    3.3366    1.0000 </r>
       <r>    3.4827    1.0000 </r>
       <r>    3.4827    1.0000 </r>
       <r>    3.5479    1.0000 </r>
       <r>    3.5479    1.0000 </r>
       <r>    4.3621    1.0000 </r>
       <r>    4.3621    1.0000 </r>
       <r>    4.7422    1.0000 </r>
       <r>    4.7422    1.0000 </r>
       <r>    4.8258    1.0000 </r>
       <r>    4.8258    1.0000 </r>
       <r>    4.8800    1.0000 </r>
       <r>    4.8800    1.0000 </r>
       <r>    5.2340    1.0000 </r>
       <r>    5.2340    1.0000 </r>
       <r>    5.6191    1.0000 </r>
       <r>    5.6191    1.0000 </r>
       <r>   12.3753   -0.0000 </r>
       <r>   12.3753   -0.0000 </r>
       <r>   13.6412    0.0000 </r>
       <r>   13.6412    0.0000 </r>
       <r>   15.9860    0.0000 </r>
       <r>   15.9860    0.0000 </r>
      </set>
      <set comment="kpoint 15">
       <r>  -62.8118    1.0000 </r>
       <r>  -62.8118    1.0000 </r>
       <r>  -62.8094    1.0000 </r>
       <r>  -62.7566    1.0000 </r>
       <r>  -62.7566    1.0000 </r>
       <r>  -62.7500    1.0000 </r>
       <r>  -62.7500    1.0000 </r>
       <r>  -62.7462    1.0000 </r>
       <r>  -62.7462    1.0000 </r>
       <r>  -62.7138    1.0000 </r>
       <r>  -62.7087    1.0000 </r>
       <r>  -62.7087    1.0000 </r>
       <r>   -2.0501    1.0000 </r>
       <r>    2.1016    1.0000 </r>
       <r>    2.2937    1.0000 </r>
       <r>    2.2937    1.0000 </r>
       <r>    2.7070    1.0000 </r>
       <r>    2.7128    1.0000 </r>
       <r>    2.7128    1.0000 </r>
       <r>    3.9333    1.0000 </r>
       <r>    4.1663    1.0000 </r>
       <r>    4.1663    1.0000 </r>
       <r>    4.8059    1.0000 </r>
       <r>    4.9850    1.0000 </r>
       <r>    5.1330    1.0000 </r>
       <r>    5.1330    1.0000 </r>
       <r>    5.3745    1.0000 </r>
       <r>    5.3745    1.0000 </r>
       <r>    5.4610    1.0000 </r>
       <r>    5.5254    1.0000 </r>
       <r>    5.5254    1.0000 </r>
       <r>    5.6841    1.0000 </r>
       <r>    5.6841    1.0000 </r>
       <r>    6.8957    1.0332 </r>
       <r>    9.4955   -0.0000 </r>
       <r>    9.4955   -0.0000 </r>
       <r>   14.6350    0.0000 </r>
       <r>   14.6350    0.0000 </r>
       <r>   16.5045    0.0000 </r>
       <r>   18.6044    0.0000 </r>
      </set>
      <set comment="kpoint 16">
       <r>  -62.8109    1.0000 </r>
       <r>  -62.8106    1.0000 </r>
       <r>  -62.8087    1.0000 </r>
       <r>  -62.7590    1.0000 </r>
       <r>  -62.7558    1.0000 </r>
       <r>  -62.7491    1.0000 </r>
       <r>  -62.7488    1.0000 </r>
       <r>  -62.7473    1.0000 </r>
       <r>  -62.7460    1.0000 </r>
       <r>  -62.7165    1.0000 </r>
       <r>  -62.7093    1.0000 </r>
       <r>  -62.7078    1.0000 </r>
       <r>   -1.9652    1.0000 </r>
       <r>    2.1470    1.0000 </r>
       <r>    2.2972    1.0000 </r>
       <r>    2.3311    1.0000 </r>
       <r>    2.7301    1.0000 </r>
       <r>    2.7330    1.0000 </r>
       <r>    2.7346    1.0000 </r>
       <r>    3.9331    1.0000 </r>
       <r>    4.1640    1.0000 </r>
       <r>    4.1778    1.0000 </r>
       <r>    4.8105    1.0000 </r>
       <r>    4.9757    1.0000 </r>
       <r>    5.0626    1.0000 </r>
       <r>    5.0674    1.0000 </r>
       <r>    5.2787    1.0000 </r>
       <r>    5.3490    1.0000 </r>
       <r>    5.3840    1.0000 </r>
       <r>    5.4646    1.0000 </r>
       <r>    5.5249    1.0000 </r>
       <r>    5.6417    1.0000 </r>
       <r>    5.6459    1.0000 </r>
       <r>    7.1610    0.5254 </r>
       <r>    8.9481   -0.0000 </r>
       <r>    9.6807   -0.0000 </r>
       <r>   14.6634    0.0000 </r>
       <r>   15.3673    0.0000 </r>
       <r>   16.5589    0.0000 </r>
       <r>   17.3050    0.0000 </r>
      </set>
      <set comment="kpoint 17">
       <r>  -62.8076    1.0000 </r>
       <r>  -62.8067    1.0000 </r>
       <r>  -62.8061    1.0000 </r>
       <r>  -62.7634    1.0000 </r>
       <r>  -62.7538    1.0000 </r>
       <r>  -62.7506    1.0000 </r>
       <r>  -62.7469    1.0000 </r>
       <r>  -62.7463    1.0000 </r>
       <r>  -62.7456    1.0000 </r>
       <r>  -62.7236    1.0000 </r>
       <r>  -62.7119    1.0000 </r>
       <r>  -62.7079    1.0000 </r>
       <r>   -1.7124    1.0000 </r>
       <r>    2.2778    1.0000 </r>
       <r>    2.2912    1.0000 </r>
       <r>    2.4381    1.0000 </r>
       <r>    2.7941    1.0000 </r>
       <r>    2.7987    1.0000 </r>
       <r>    2.7997    1.0000 </r>
       <r>    3.9084    1.0000 </r>
       <r>    4.1809    1.0000 </r>
       <r>    4.2106    1.0000 </r>
       <r>    4.8001    1.0000 </r>
       <r>    4.8609    1.0000 </r>
       <r>    4.8659    1.0000 </r>
       <r>    4.8844    1.0000 </r>
       <r>    4.9735    1.0000 </r>
       <r>    5.2746    1.0000 </r>
       <r>    5.3769    1.0000 </r>
       <r>    5.3787    1.0000 </r>
       <r>    5.5234    1.0000 </r>
       <r>    5.5368    1.0000 </r>
       <r>    5.5739    1.0000 </r>
       <r>    7.7307   -0.0002 </r>
       <r>    7.8510   -0.0000 </r>
       <r>   10.1867   -0.0000 </r>
       <r>   14.7285    0.0000 </r>
       <r>   15.8439    0.0000 </r>
       <r>   16.7246    0.0000 </r>
       <r>   17.0354    0.0000 </r>
      </set>
      <set comment="kpoint 18">
       <r>  -62.8029    1.0000 </r>
       <r>  -62.8024    1.0000 </r>
       <r>  -62.8004    1.0000 </r>
       <r>  -62.7684    1.0000 </r>
       <r>  -62.7559    1.0000 </r>
       <r>  -62.7499    1.0000 </r>
       <r>  -62.7454    1.0000 </r>
       <r>  -62.7451    1.0000 </r>
       <r>  -62.7422    1.0000 </r>
       <r>  -62.7329    1.0000 </r>
       <r>  -62.7154    1.0000 </r>
       <r>  -62.7097    1.0000 </r>
       <r>   -1.2986    1.0000 </r>
       <r>    2.2164    1.0000 </r>
       <r>    2.4751    1.0000 </r>
       <r>    2.5988    1.0000 </r>
       <r>    2.8951    1.0000 </r>
       <r>    2.9012    1.0000 </r>
       <r>    2.9165    1.0000 </r>
       <r>    3.8268    1.0000 </r>
       <r>    4.2544    1.0000 </r>
       <r>    4.2596    1.0000 </r>
       <r>    4.4335    1.0000 </r>
       <r>    4.5481    1.0000 </r>
       <r>    4.6308    1.0000 </r>
       <r>    4.7420    1.0000 </r>
       <r>    5.0229    1.0000 </r>
       <r>    5.1585    1.0000 </r>
       <r>    5.2454    1.0000 </r>
       <r>    5.3298    1.0000 </r>
       <r>    5.3726    1.0000 </r>
       <r>    5.5210    1.0000 </r>
       <r>    5.5351    1.0000 </r>
       <r>    6.7915    1.0116 </r>
       <r>    8.4199   -0.0000 </r>
       <r>   10.9231   -0.0000 </r>
       <r>   14.2610    0.0000 </r>
       <r>   15.1008    0.0000 </r>
       <r>   17.0055    0.0000 </r>
       <r>   17.8463    0.0000 </r>
      </set>
      <set comment="kpoint 19">
       <r>  -62.7981    1.0000 </r>
       <r>  -62.7953    1.0000 </r>
       <r>  -62.7910    1.0000 </r>
       <r>  -62.7741    1.0000 </r>
       <r>  -62.7626    1.0000 </r>
       <r>  -62.7446    1.0000 </r>
       <r>  -62.7445    1.0000 </r>
       <r>  -62.7441    1.0000 </r>
       <r>  -62.7439    1.0000 </r>
       <r>  -62.7367    1.0000 </r>
       <r>  -62.7206    1.0000 </r>
       <r>  -62.7137    1.0000 </r>
       <r>   -0.7373    1.0000 </r>
       <r>    1.9567    1.0000 </r>
       <r>    2.7052    1.0000 </r>
       <r>    2.7890    1.0000 </r>
       <r>    3.0278    1.0000 </r>
       <r>    3.0359    1.0000 </r>
       <r>    3.0817    1.0000 </r>
       <r>    3.6965    1.0000 </r>
       <r>    4.0345    1.0000 </r>
       <r>    4.1997    1.0000 </r>
       <r>    4.2980    1.0000 </r>
       <r>    4.3634    1.0000 </r>
       <r>    4.3813    1.0000 </r>
       <r>    4.6842    1.0000 </r>
       <r>    5.0205    1.0000 </r>
       <r>    5.0879    1.0000 </r>
       <r>    5.1136    1.0000 </r>
       <r>    5.1728    1.0000 </r>
       <r>    5.2226    1.0000 </r>
       <r>    5.5183    1.0000 </r>
       <r>    5.5189    1.0000 </r>
       <r>    6.0293    1.0000 </r>
       <r>    9.1829   -0.0000 </r>
       <r>   11.8228   -0.0000 </r>
       <r>   13.0615    0.0000 </r>
       <r>   15.3163    0.0000 </r>
       <r>   16.4902    0.0000 </r>
       <r>   17.3572    0.0000 </r>
      </set>
      <set comment="kpoint 20">
       <r>  -62.7923    1.0000 </r>
       <r>  -62.7877    1.0000 </r>
       <r>  -62.7807    1.0000 </r>
       <r>  -62.7804    1.0000 </r>
       <r>  -62.7706    1.0000 </r>
       <r>  -62.7555    1.0000 </r>
       <r>  -62.7441    1.0000 </r>
       <r>  -62.7439    1.0000 </r>
       <r>  -62.7387    1.0000 </r>
       <r>  -62.7308    1.0000 </r>
       <r>  -62.7262    1.0000 </r>
       <r>  -62.7185    1.0000 </r>
       <r>   -0.0544    1.0000 </r>
       <r>    1.4220    1.0000 </r>
       <r>    2.9127    1.0000 </r>
       <r>    2.9649    1.0000 </r>
       <r>    3.1808    1.0000 </r>
       <r>    3.1943    1.0000 </r>
       <r>    3.2954    1.0000 </r>
       <r>    3.5375    1.0000 </r>
       <r>    3.6848    1.0000 </r>
       <r>    3.8615    1.0000 </r>
       <r>    4.2103    1.0000 </r>
       <r>    4.2719    1.0000 </r>
       <r>    4.5484    1.0000 </r>
       <r>    4.7184    1.0000 </r>
       <r>    4.9031    1.0000 </r>
       <r>    4.9429    1.0000 </r>
       <r>    4.9574    1.0000 </r>
       <r>    5.0499    1.0000 </r>
       <r>    5.2314    1.0000 </r>
       <r>    5.5135    1.0000 </r>
       <r>    5.5155    1.0000 </r>
       <r>    5.6040    1.0000 </r>
       <r>   10.0150   -0.0000 </r>
       <r>   11.9380   -0.0000 </r>
       <r>   12.8476    0.0000 </r>
       <r>   15.1942    0.0000 </r>
       <r>   15.7028    0.0000 </r>
       <r>   16.8957    0.0000 </r>
      </set>
      <set comment="kpoint 21">
       <r>  -62.7866    1.0000 </r>
       <r>  -62.7866    1.0000 </r>
       <r>  -62.7791    1.0000 </r>
       <r>  -62.7791    1.0000 </r>
       <r>  -62.7683    1.0000 </r>
       <r>  -62.7683    1.0000 </r>
       <r>  -62.7444    1.0000 </r>
       <r>  -62.7444    1.0000 </r>
       <r>  -62.7325    1.0000 </r>
       <r>  -62.7325    1.0000 </r>
       <r>  -62.7246    1.0000 </r>
       <r>  -62.7246    1.0000 </r>
       <r>    0.6991    1.0000 </r>
       <r>    0.6991    1.0000 </r>
       <r>    3.0213    1.0000 </r>
       <r>    3.0213    1.0000 </r>
       <r>    3.3655    1.0000 </r>
       <r>    3.3655    1.0000 </r>
       <r>    3.3935    1.0000 </r>
       <r>    3.3935    1.0000 </r>
       <r>    3.5565    1.0000 </r>
       <r>    3.5565    1.0000 </r>
       <r>    4.2079    1.0000 </r>
       <r>    4.2079    1.0000 </r>
       <r>    4.7443    1.0000 </r>
       <r>    4.7443    1.0000 </r>
       <r>    4.8584    1.0000 </r>
       <r>    4.8584    1.0000 </r>
       <r>    4.8679    1.0000 </r>
       <r>    4.8679    1.0000 </r>
       <r>    5.3803    1.0000 </r>
       <r>    5.3803    1.0000 </r>
       <r>    5.5134    1.0000 </r>
       <r>    5.5134    1.0000 </r>
       <r>   10.9272   -0.0000 </r>
       <r>   10.9272   -0.0000 </r>
       <r>   13.9760    0.0000 </r>
       <r>   13.9760    0.0000 </r>
       <r>   16.2295    0.0000 </r>
       <r>   16.2295    0.0000 </r>
      </set>
      <set comment="kpoint 22">
       <r>  -62.8071    1.0000 </r>
       <r>  -62.8071    1.0000 </r>
       <r>  -62.8008    1.0000 </r>
       <r>  -62.7619    1.0000 </r>
       <r>  -62.7619    1.0000 </r>
       <r>  -62.7502    1.0000 </r>
       <r>  -62.7502    1.0000 </r>
       <r>  -62.7427    1.0000 </r>
       <r>  -62.7427    1.0000 </r>
       <r>  -62.7220    1.0000 </r>
       <r>  -62.7116    1.0000 </r>
       <r>  -62.7116    1.0000 </r>
       <r>   -1.6363    1.0000 </r>
       <r>    1.9967    1.0000 </r>
       <r>    2.4641    1.0000 </r>
       <r>    2.4641    1.0000 </r>
       <r>    2.8144    1.0000 </r>
       <r>    2.8395    1.0000 </r>
       <r>    2.8395    1.0000 </r>
       <r>    3.8159    1.0000 </r>
       <r>    4.2681    1.0000 </r>
       <r>    4.2681    1.0000 </r>
       <r>    4.7009    1.0000 </r>
       <r>    4.7009    1.0000 </r>
       <r>    4.7012    1.0000 </r>
       <r>    5.0280    1.0000 </r>
       <r>    5.2359    1.0000 </r>
       <r>    5.2359    1.0000 </r>
       <r>    5.3706    1.0000 </r>
       <r>    5.3706    1.0000 </r>
       <r>    5.4165    1.0000 </r>
       <r>    5.6840    1.0000 </r>
       <r>    5.6840    1.0000 </r>
       <r>    5.7996    1.0000 </r>
       <r>   10.3002   -0.0000 </r>
       <r>   10.3002   -0.0000 </r>
       <r>   14.7961    0.0000 </r>
       <r>   14.7961    0.0000 </r>
       <r>   17.2729    0.0000 </r>
       <r>   17.2729    0.0000 </r>
      </set>
      <set comment="kpoint 23">
       <r>  -62.8060    1.0000 </r>
       <r>  -62.8058    1.0000 </r>
       <r>  -62.8005    1.0000 </r>
       <r>  -62.7644    1.0000 </r>
       <r>  -62.7609    1.0000 </r>
       <r>  -62.7490    1.0000 </r>
       <r>  -62.7483    1.0000 </r>
       <r>  -62.7438    1.0000 </r>
       <r>  -62.7422    1.0000 </r>
       <r>  -62.7254    1.0000 </r>
       <r>  -62.7127    1.0000 </r>
       <r>  -62.7109    1.0000 </r>
       <r>   -1.5534    1.0000 </r>
       <r>    2.0473    1.0000 </r>
       <r>    2.4723    1.0000 </r>
       <r>    2.4983    1.0000 </r>
       <r>    2.8353    1.0000 </r>
       <r>    2.8540    1.0000 </r>
       <r>    2.8589    1.0000 </r>
       <r>    3.8162    1.0000 </r>
       <r>    4.2638    1.0000 </r>
       <r>    4.2667    1.0000 </r>
       <r>    4.6336    1.0000 </r>
       <r>    4.6628    1.0000 </r>
       <r>    4.7153    1.0000 </r>
       <r>    5.0240    1.0000 </r>
       <r>    5.0340    1.0000 </r>
       <r>    5.2158    1.0000 </r>
       <r>    5.2449    1.0000 </r>
       <r>    5.3698    1.0000 </r>
       <r>    5.4056    1.0000 </r>
       <r>    5.6415    1.0000 </r>
       <r>    5.6456    1.0000 </r>
       <r>    6.1624    1.0000 </r>
       <r>    9.6933   -0.0000 </r>
       <r>   10.4590   -0.0000 </r>
       <r>   14.8069    0.0000 </r>
       <r>   15.5854    0.0000 </r>
       <r>   16.0128    0.0000 </r>
       <r>   17.3815    0.0000 </r>
      </set>
      <set comment="kpoint 24">
       <r>  -62.8032    1.0000 </r>
       <r>  -62.8027    1.0000 </r>
       <r>  -62.7997    1.0000 </r>
       <r>  -62.7692    1.0000 </r>
       <r>  -62.7587    1.0000 </r>
       <r>  -62.7471    1.0000 </r>
       <r>  -62.7457    1.0000 </r>
       <r>  -62.7450    1.0000 </r>
       <r>  -62.7414    1.0000 </r>
       <r>  -62.7329    1.0000 </r>
       <r>  -62.7152    1.0000 </r>
       <r>  -62.7097    1.0000 </r>
       <r>   -1.3067    1.0000 </r>
       <r>    2.1934    1.0000 </r>
       <r>    2.4810    1.0000 </r>
       <r>    2.5951    1.0000 </r>
       <r>    2.8984    1.0000 </r>
       <r>    2.8986    1.0000 </r>
       <r>    2.9159    1.0000 </r>
       <r>    3.8073    1.0000 </r>
       <r>    4.2583    1.0000 </r>
       <r>    4.2751    1.0000 </r>
       <r>    4.4599    1.0000 </r>
       <r>    4.5433    1.0000 </r>
       <r>    4.6021    1.0000 </r>
       <r>    4.7299    1.0000 </r>
       <r>    5.0355    1.0000 </r>
       <r>    5.1563    1.0000 </r>
       <r>    5.2468    1.0000 </r>
       <r>    5.3276    1.0000 </r>
       <r>    5.3675    1.0000 </r>
       <r>    5.5357    1.0000 </r>
       <r>    5.5477    1.0000 </r>
       <r>    6.7205    1.0035 </r>
       <r>    8.5263   -0.0000 </r>
       <r>   10.9060   -0.0000 </r>
       <r>   14.2825    0.0000 </r>
       <r>   15.1003    0.0000 </r>
       <r>   17.3040    0.0000 </r>
       <r>   17.7005    0.0000 </r>
      </set>
      <set comment="kpoint 25">
       <r>  -62.7987    1.0000 </r>
       <r>  -62.7983    1.0000 </r>
       <r>  -62.7978    1.0000 </r>
       <r>  -62.7739    1.0000 </r>
       <r>  -62.7547    1.0000 </r>
       <r>  -62.7520    1.0000 </r>
       <r>  -62.7424    1.0000 </r>
       <r>  -62.7421    1.0000 </r>
[...]
        <r>  0.0045  0.0320  0.0225  0.0065  0.0005  0.0017  0.0162  0.0193  0.0487 </r>
       </set>
       <set comment="band 34">
        <r>  0.0066  0.0467  0.0060  0.0004  0.0000  0.0004  0.0237  0.0344  0.0712 </r>
        <r>  0.0008  0.0056  0.0504  0.0151  0.0011  0.0037  0.0028  0.0009  0.0085 </r>
        <r>  0.0020  0.0140  0.0004  0.0060  0.0004  0.0000  0.0071  0.1145  0.0214 </r>
        <r>  0.0000  0.0004  0.0151  0.0504  0.0037  0.0011  0.0002  0.0137  0.0005 </r>
       </set>
       <set comment="band 35">
        <r>  0.0008  0.0057  0.0050  0.0364  0.0027  0.0004  0.0029  0.0554  0.0087 </r>
        <r>  0.0007  0.0046  0.0062  0.0243  0.0018  0.0005  0.0024  0.0828  0.0071 </r>
        <r>  0.0032  0.0226  0.0364  0.0050  0.0004  0.0027  0.0115  0.0140  0.0344 </r>
        <r>  0.0048  0.0338  0.0243  0.0062  0.0005  0.0018  0.0171  0.0114  0.0514 </r>
       </set>
       <set comment="band 36">
        <r>  0.0012  0.0082  0.0524  0.0007  0.0000  0.0039  0.0042  0.0227  0.0125 </r>
        <r>  0.0069  0.0486  0.0089  0.0100  0.0007  0.0007  0.0247  0.0015  0.0741 </r>
        <r>  0.0013  0.0092  0.0007  0.0524  0.0039  0.0000  0.0047  0.0202  0.0141 </r>
        <r>  0.0001  0.0006  0.0100  0.0089  0.0007  0.0007  0.0003  0.1192  0.0009 </r>
       </set>
       <set comment="band 37">
        <r>  0.1035  0.0039  0.0014  0.0007  0.0224  0.0457  0.0000  0.0123  0.0000 </r>
        <r>  0.1171  0.0044  0.0012  0.0004  0.0128  0.0404  0.0000  0.0215  0.0000 </r>
        <r>  0.0328  0.0012  0.0007  0.0014  0.0457  0.0224  0.0000  0.0388  0.0000 </r>
        <r>  0.0573  0.0022  0.0004  0.0012  0.0404  0.0128  0.0000  0.0439  0.0000 </r>
       </set>
       <set comment="band 38">
        <r>  0.0050  0.0002  0.0016  0.0006  0.0187  0.0549  0.0000  0.0439  0.0000 </r>
        <r>  0.1407  0.0053  0.0001  0.0014  0.0458  0.0019  0.0000  0.0179  0.0001 </r>
        <r>  0.1173  0.0044  0.0006  0.0016  0.0549  0.0187  0.0000  0.0019  0.0000 </r>
        <r>  0.0479  0.0018  0.0014  0.0001  0.0019  0.0458  0.0000  0.0527  0.0000 </r>
       </set>
       <set comment="band 39">
        <r>  0.1436  0.0054  0.0001  0.0017  0.0562  0.0045  0.0000  0.0044  0.0001 </r>
        <r>  0.0116  0.0004  0.0017  0.0001  0.0046  0.0560  0.0000  0.0539  0.0000 </r>
        <r>  0.0117  0.0004  0.0017  0.0001  0.0045  0.0562  0.0000  0.0538  0.0000 </r>
        <r>  0.1439  0.0054  0.0001  0.0017  0.0560  0.0046  0.0000  0.0044  0.0001 </r>
       </set>
       <set comment="band 40">
        <r>  0.0587  0.0022  0.0005  0.0007  0.0241  0.0162  0.0000  0.0558  0.0000 </r>
        <r>  0.0414  0.0016  0.0007  0.0017  0.0581  0.0229  0.0000  0.0231  0.0000 </r>
        <r>  0.1490  0.0056  0.0007  0.0005  0.0162  0.0241  0.0000  0.0220  0.0001 </r>
        <r>  0.0617  0.0023  0.0017  0.0007  0.0229  0.0581  0.0000  0.0155  0.0000 </r>
       </set>
      </set>
      <set comment="kpoint 196">
       <set comment="band 1">
        <r>  0.0000  0.1025  0.0086  0.1135  0.0000  0.0000  0.0000  0.0000  0.0000 </r>
        <r>  0.0000  0.0084  0.1058  0.1072  0.0000  0.0000  0.0000  0.0000  0.0000 </r>
        <r>  0.0000  0.1038  0.1135  0.0086  0.0000  0.0000  0.0000  0.0000  0.0000 </r>
        <r>  0.0000  0.1099  0.1072  0.1058  0.0000  0.0000  0.0000  0.0000  0.0000 </r>
       </set>
       <set comment="band 2">
        <r>  0.0000  0.0094  0.2927  0.0114  0.0000  0.0000  0.0000  0.0000  0.0000 </r>
        <r>  0.0000  0.2834  0.0097  0.0214  0.0000  0.0000  0.0000  0.0000  0.0000 </r>
        <r>  0.0000  0.0207  0.0114  0.2927  0.0000  0.0000  0.0000  0.0000  0.0000 </r>
        <r>  0.0000  0.0111  0.0214  0.0097  0.0000  0.0000  0.0000  0.0000  0.0000 </r>
       </set>
       <set comment="band 3">
        <r>  0.0000  0.0661  0.0159  0.1712  0.0000  0.0000  0.0000  0.0000  0.0000 </r>
        <r>  0.0000  0.0154  0.0683  0.0798  0.0000  0.0000  0.0000  0.0000  0.0000 </r>
        <r>  0.0000  0.0773  0.1712  0.0159  0.0000  0.0000  0.0000  0.0000  0.0000 </r>
        <r>  0.0000  0.1658  0.0798  0.0683  0.0000  0.0000  0.0000  0.0000  0.0000 </r>
       </set>
       <set comment="band 4">
        <r>  0.0000  0.1466  0.0179  0.0390  0.0000  0.0000  0.0000  0.0000  0.0000 </r>
        <r>  0.0000  0.0174  0.1514  0.1268  0.0000  0.0000  0.0000  0.0000  0.0000 </r>
        <r>  0.0000  0.1228  0.0390  0.0179  0.0000  0.0000  0.0000  0.0000  0.0000 </r>
        <r>  0.0000  0.0378  0.1268  0.1514  0.0000  0.0000  0.0000  0.0000  0.0000 </r>
       </set>
       <set comment="band 5">
        <r>  0.0000  0.0443  0.0956  0.0020  0.0000  0.0000  0.0000  0.0000  0.0000 </r>
        <r>  0.0000  0.3948  0.0107  0.0544  0.0000  0.0000  0.0000  0.0000  0.0000 </r>
        <r>  0.0000  0.2249  0.0020  0.0956  0.0000  0.0000  0.0000  0.0000  0.0000 </r>
        <r>  0.0000  0.0081  0.0544  0.0107  0.0000  0.0000  0.0000  0.0000  0.0000 </r>
       </set>
       <set comment="band 6">
        <r>  0.0000  0.0243  0.0176  0.0835  0.0000  0.0000  0.0000  0.0000  0.0000 </r>
        <r>  0.0000  0.0725  0.0059  0.0558  0.0000  0.0000  0.0000  0.0000  0.0000 </r>
        <r>  0.0000  0.2303  0.0835  0.0176  0.0000  0.0000  0.0000  0.0000  0.0000 </r>
        <r>  0.0000  0.3449  0.0558  0.0059  0.0000  0.0000  0.0000  0.0000  0.0000 </r>
       </set>
       <set comment="band 7">
        <r>  0.0000  0.1148  0.0494  0.0497  0.0000  0.0000  0.0000  0.0000  0.0000 </r>
        <r>  0.0000  0.2039  0.0278  0.0359  0.0000  0.0000  0.0000  0.0000  0.0000 </r>
        <r>  0.0000  0.1481  0.0497  0.0494  0.0000  0.0000  0.0000  0.0000  0.0000 </r>
        <r>  0.0000  0.2052  0.0359  0.0278  0.0000  0.0000  0.0000  0.0000  0.0000 </r>
       </set>
       <set comment="band 8">
        <r>  0.0000  0.4887  0.0002  0.0276  0.0000  0.0000  0.0000  0.0000  0.0000 </r>
        <r>  0.0000  0.0009  0.1183  0.0166  0.0000  0.0000  0.0000  0.0000  0.0000 </r>
        <r>  0.0000  0.0688  0.0276  0.0002  0.0000  0.0000  0.0000  0.0000  0.0000 </r>
        <r>  0.0000  0.1138  0.0166  0.1183  0.0000  0.0000  0.0000  0.0000  0.0000 </r>
       </set>
       <set comment="band 9">
        <r>  0.0000  0.0000  0.1273  0.0907  0.0000  0.0000  0.0000  0.0000  0.0000 </r>
        <r>  0.0000  0.0000  0.1939  0.0869  0.0000  0.0000  0.0000  0.0000  0.0000 </r>
        <r>  0.0000  0.0000  0.0907  0.1273  0.0000  0.0000  0.0000  0.0000  0.0000 </r>
        <r>  0.0000  0.0000  0.0869  0.1939  0.0000  0.0000  0.0000  0.0000  0.0000 </r>
       </set>
       <set comment="band 10">
        <r>  0.0000  0.0000  0.1414  0.0344  0.0000  0.0000  0.0000  0.0000  0.0000 </r>
        <r>  0.0000  0.0000  0.2749  0.0481  0.0000  0.0000  0.0000  0.0000  0.0000 </r>
        <r>  0.0000  0.0000  0.0344  0.1414  0.0000  0.0000  0.0000  0.0000  0.0000 </r>
        <r>  0.0000  0.0000  0.0481  0.2749  0.0000  0.0000  0.0000  0.0000  0.0000 </r>
       </set>
       <set comment="band 11">
        <r>  0.0000  0.0000  0.1690  0.0518  0.0000  0.0000  0.0000  0.0000  0.0000 </r>
        <r>  0.0000  0.0000  0.0121  0.2659  0.0000  0.0000  0.0000  0.0000  0.0000 </r>
        <r>  0.0000  0.0000  0.0518  0.1690  0.0000  0.0000  0.0000  0.0000  0.0000 </r>
        <r>  0.0000  0.0000  0.2659  0.0121  0.0000  0.0000  0.0000  0.0000  0.0000 </r>
       </set>
       <set comment="band 12">
        <r>  0.0000  0.0000  0.0611  0.3219  0.0000  0.0000  0.0000  0.0000  0.0000 </r>
        <r>  0.0000  0.0000  0.0179  0.0979  0.0000  0.0000  0.0000  0.0000  0.0000 </r>
        <r>  0.0000  0.0000  0.3219  0.0611  0.0000  0.0000  0.0000  0.0000  0.0000 </r>
        <r>  0.0000  0.0000  0.0979  0.0179  0.0000  0.0000  0.0000  0.0000  0.0000 </r>
       </set>
       <set comment="band 13">
        <r>  0.0033  0.0000  0.0000  0.0000  0.0851  0.1179  0.0000  0.0019  0.0000 </r>
        <r>  0.0547  0.0000  0.0000  0.0000  0.0019  0.0071  0.0000  0.0851  0.0000 </r>
        <r>  0.0009  0.0000  0.0000  0.0000  0.1179  0.0851  0.0000  0.0071  0.0000 </r>
        <r>  0.0394  0.0000  0.0000  0.0000  0.0071  0.0019  0.0000  0.1180  0.0000 </r>
       </set>
       <set comment="band 14">
        <r>  0.0823  0.0000  0.0000  0.0000  0.0106  0.0204  0.0000  0.0034  0.0000 </r>
        <r>  0.0095  0.0000  0.0000  0.0000  0.0034  0.1776  0.0000  0.0106  0.0000 </r>
        <r>  0.0016  0.0000  0.0000  0.0000  0.0204  0.0106  0.0000  0.1777  0.0000 </r>
        <r>  0.0049  0.0000  0.0000  0.0000  0.1776  0.0034  0.0000  0.0204  0.0000 </r>
       </set>
       <set comment="band 15">
        <r>  0.0054  0.0000  0.0000  0.0000  0.0415  0.0129  0.0000  0.1460  0.0000 </r>
        <r>  0.0060  0.0000  0.0000  0.0000  0.1460  0.0117  0.0000  0.0415  0.0000 </r>
        <r>  0.0676  0.0000  0.0000  0.0000  0.0129  0.0415  0.0000  0.0117  0.0000 </r>
        <r>  0.0192  0.0000  0.0000  0.0000  0.0117  0.1460  0.0000  0.0129  0.0000 </r>
       </set>
       <set comment="band 16">
        <r>  0.0073  0.0000  0.0000  0.0000  0.0748  0.0607  0.0000  0.0608  0.0000 </r>
        <r>  0.0281  0.0000  0.0000  0.0000  0.0608  0.0157  0.0000  0.0749  0.0000 </r>
        <r>  0.0282  0.0000  0.0000  0.0000  0.0607  0.0748  0.0000  0.0157  0.0000 </r>
        <r>  0.0347  0.0000  0.0000  0.0000  0.0157  0.0608  0.0000  0.0608  0.0000 </r>
       </set>
       <set comment="band 17">
        <r>  0.0000  0.0000  0.0000  0.0000  0.0121  0.0053  0.0292  0.1298  0.0875 </r>
        <r>  0.0000  0.0000  0.0000  0.0000  0.0315  0.0133  0.0116  0.0496  0.0348 </r>
        <r>  0.0000  0.0000  0.0000  0.0000  0.0053  0.0121  0.0693  0.0546  0.2079 </r>
        <r>  0.0000  0.0000  0.0000  0.0000  0.0133  0.0315  0.0265  0.0217  0.0795 </r>
       </set>
       <set comment="band 18">
        <r>  0.0000  0.0000  0.0000  0.0000  0.0035  0.0149  0.0711  0.0465  0.2134 </r>
        <r>  0.0000  0.0000  0.0000  0.0000  0.0113  0.0324  0.0328  0.0146  0.0984 </r>
        <r>  0.0000  0.0000  0.0000  0.0000  0.0149  0.0035  0.0248  0.1332  0.0745 </r>
        <r>  0.0000  0.0000  0.0000  0.0000  0.0324  0.0113  0.0078  0.0614  0.0233 </r>
       </set>
       <set comment="band 19">
        <r>  0.0000  0.0000  0.0000  0.0000  0.0168  0.0260  0.0088  0.0632  0.0263 </r>
        <r>  0.0000  0.0000  0.0000  0.0000  0.0154  0.0040  0.0571  0.0692  0.1713 </r>
        <r>  0.0000  0.0000  0.0000  0.0000  0.0260  0.0168  0.0337  0.0164  0.1012 </r>
        <r>  0.0000  0.0000  0.0000  0.0000  0.0040  0.0154  0.0370  0.1069  0.1109 </r>
       </set>
       <set comment="band 20">
        <r>  0.0000  0.0000  0.0000  0.0000  0.0297  0.0160  0.0275  0.0162  0.0825 </r>
        <r>  0.0000  0.0000  0.0000  0.0000  0.0039  0.0125  0.0351  0.1223  0.1052 </r>
        <r>  0.0000  0.0000  0.0000  0.0000  0.0160  0.0297  0.0087  0.0515  0.0260 </r>
        <r>  0.0000  0.0000  0.0000  0.0000  0.0125  0.0039  0.0653  0.0657  0.1959 </r>
       </set>
       <set comment="band 21">
        <r>  0.0000  0.0000  0.0000  0.0000  0.0840  0.0072  0.1734  0.0000  0.0578 </r>
        <r>  0.0000  0.0000  0.0000  0.0000  0.0175  0.0774  0.0162  0.0000  0.0054 </r>
        <r>  0.0000  0.0000  0.0000  0.0000  0.0072  0.0840  0.0392  0.0000  0.0131 </r>
        <r>  0.0000  0.0000  0.0000  0.0000  0.0774  0.0175  0.1881  0.0000  0.0627 </r>
       </set>
       <set comment="band 22">
        <r>  0.0000  0.0000  0.0000  0.0000  0.0194  0.0074  0.1421  0.0000  0.0474 </r>
        <r>  0.0000  0.0000  0.0000  0.0000  0.0958  0.0634  0.0166  0.0000  0.0055 </r>
        <r>  0.0000  0.0000  0.0000  0.0000  0.0074  0.0194  0.2146  0.0000  0.0715 </r>
        <r>  0.0000  0.0000  0.0000  0.0000  0.0634  0.0958  0.0436  0.0000  0.0145 </r>
       </set>
       <set comment="band 23">
        <r>  0.0000  0.0000  0.0000  0.0000  0.0337  0.0866  0.0451  0.0000  0.0150 </r>
        <r>  0.0000  0.0000  0.0000  0.0000  0.0456  0.0201  0.1941  0.0000  0.0647 </r>
        <r>  0.0000  0.0000  0.0000  0.0000  0.0866  0.0337  0.1022  0.0000  0.0341 </r>
        <r>  0.0000  0.0000  0.0000  0.0000  0.0201  0.0456  0.0755  0.0000  0.0252 </r>
       </set>
       <set comment="band 24">
        <r>  0.0000  0.0000  0.0000  0.0000  0.0489  0.0848  0.0564  0.0000  0.0188 </r>
        <r>  0.0000  0.0000  0.0000  0.0000  0.0272  0.0252  0.1900  0.0000  0.0633 </r>
        <r>  0.0000  0.0000  0.0000  0.0000  0.0848  0.0489  0.0609  0.0000  0.0203 </r>
        <r>  0.0000  0.0000  0.0000  0.0000  0.0252  0.0272  0.1097  0.0000  0.0366 </r>
       </set>
       <set comment="band 25">
        <r>  0.0000  0.0000  0.0000  0.0000  0.1567  0.0611  0.0688  0.0000  0.0229 </r>
        <r>  0.0000  0.0000  0.0000  0.0000  0.0078  0.0692  0.0607  0.0000  0.0202 </r>
        <r>  0.0000  0.0000  0.0000  0.0000  0.0611  0.1567  0.0078  0.0000  0.0026 </r>
        <r>  0.0000  0.0000  0.0000  0.0000  0.0692  0.0078  0.1558  0.0000  0.0519 </r>
       </set>
       <set comment="band 26">
        <r>  0.0000  0.0000  0.0000  0.0000  0.0352  0.1810  0.0576  0.0000  0.0192 </r>
        <r>  0.0000  0.0000  0.0000  0.0000  0.0207  0.0579  0.1799  0.0000  0.0600 </r>
        <r>  0.0000  0.0000  0.0000  0.0000  0.1810  0.0352  0.0206  0.0000  0.0069 </r>
        <r>  0.0000  0.0000  0.0000  0.0000  0.0579  0.0207  0.0350  0.0000  0.0117 </r>
       </set>
       <set comment="band 27">
        <r>  0.0000  0.0000  0.0000  0.0000  0.0085  0.0223  0.0046  0.0000  0.0015 </r>
        <r>  0.0000  0.0000  0.0000  0.0000  0.2594  0.0046  0.0221  0.0000  0.0074 </r>
        <r>  0.0000  0.0000  0.0000  0.0000  0.0223  0.0085  0.2579  0.0000  0.0860 </r>
        <r>  0.0000  0.0000  0.0000  0.0000  0.0046  0.2594  0.0084  0.0000  0.0028 </r>
       </set>
       <set comment="band 28">
        <r>  0.0000  0.0000  0.0000  0.0000  0.0944  0.0305  0.1621  0.0000  0.0540 </r>
        <r>  0.0000  0.0000  0.0000  0.0000  0.0068  0.1631  0.0303  0.0000  0.0101 </r>
        <r>  0.0000  0.0000  0.0000  0.0000  0.0305  0.0944  0.0068  0.0000  0.0023 </r>
        <r>  0.0000  0.0000  0.0000  0.0000  0.1631  0.0068  0.0938  0.0000  0.0313 </r>
       </set>
       <set comment="band 29">
        <r>  0.0000  0.0000  0.0000  0.0000  0.0224  0.0548  0.0118  0.0395  0.0355 </r>
        <r>  0.0000  0.0000  0.0000  0.0000  0.0102  0.0117  0.0552  0.0864  0.1657 </r>
        <r>  0.0000  0.0000  0.0000  0.0000  0.0548  0.0224  0.0103  0.0453  0.0310 </r>
        <r>  0.0000  0.0000  0.0000  0.0000  0.0117  0.0102  0.0226  0.2115  0.0677 </r>
       </set>
       <set comment="band 30">
        <r>  0.0000  0.0000  0.0000  0.0000  0.0405  0.0410  0.0132  0.0179  0.0395 </r>
        <r>  0.0000  0.0000  0.0000  0.0000  0.0046  0.0130  0.0413  0.1563  0.1240 </r>
        <r>  0.0000  0.0000  0.0000  0.0000  0.0410  0.0405  0.0047  0.0504  0.0141 </r>
        <r>  0.0000  0.0000  0.0000  0.0000  0.0130  0.0046  0.0408  0.1581  0.1225 </r>
       </set>
       <set comment="band 31">
        <r>  0.0000  0.0000  0.0000  0.0000  0.0149  0.0009  0.0691  0.0573  0.2072 </r>
        <r>  0.0000  0.0000  0.0000  0.0000  0.0148  0.0684  0.0009  0.0576  0.0028 </r>
        <r>  0.0000  0.0000  0.0000  0.0000  0.0009  0.0149  0.0150  0.2643  0.0449 </r>
        <r>  0.0000  0.0000  0.0000  0.0000  0.0684  0.0148  0.0150  0.0035  0.0451 </r>
       </set>
       <set comment="band 32">
        <r>  0.0000  0.0000  0.0000  0.0000  0.0214  0.0025  0.0059  0.2680  0.0178 </r>
        <r>  0.0000  0.0000  0.0000  0.0000  0.0694  0.0059  0.0025  0.0825  0.0075 </r>
        <r>  0.0000  0.0000  0.0000  0.0000  0.0025  0.0214  0.0700  0.0227  0.2100 </r>
        <r>  0.0000  0.0000  0.0000  0.0000  0.0059  0.0694  0.0216  0.0095  0.0647 </r>
       </set>
       <set comment="band 33">
        <r>  0.0000  0.0238  0.0410  0.0306  0.0000  0.0000  0.0000  0.0000  0.0000 </r>
        <r>  0.0000  0.0402  0.0242  0.0086  0.0000  0.0000  0.0000  0.0000  0.0000 </r>
        <r>  0.0000  0.0084  0.0306  0.0410  0.0000  0.0000  0.0000  0.0000  0.0000 </r>
        <r>  0.0000  0.0299  0.0086  0.0242  0.0000  0.0000  0.0000  0.0000  0.0000 </r>
       </set>
       <set comment="band 34">
        <r>  0.0000  0.0003  0.0464  0.0501  0.0000  0.0000  0.0000  0.0000  0.0000 </r>
        <r>  0.0000  0.0455  0.0003  0.0075  0.0000  0.0000  0.0000  0.0000  0.0000 </r>
        <r>  0.0000  0.0074  0.0501  0.0464  0.0000  0.0000  0.0000  0.0000  0.0000 </r>
        <r>  0.0000  0.0491  0.0075  0.0003  0.0000  0.0000  0.0000  0.0000  0.0000 </r>
       </set>
       <set comment="band 35">
        <r>  0.0000  0.0675  0.0157  0.0045  0.0000  0.0000  0.0000  0.0000  0.0000 </r>
        <r>  0.0000  0.0154  0.0689  0.0153  0.0000  0.0000  0.0000  0.0000  0.0000 </r>
        <r>  0.0000  0.0150  0.0045  0.0157  0.0000  0.0000  0.0000  0.0000  0.0000 </r>
        <r>  0.0000  0.0044  0.0153  0.0689  0.0000  0.0000  0.0000  0.0000  0.0000 </r>
       </set>
       <set comment="band 36">
        <r>  0.0000  0.0107  0.0013  0.0192  0.0000  0.0000  0.0000  0.0000  0.0000 </r>
        <r>  0.0000  0.0013  0.0109  0.0730  0.0000  0.0000  0.0000  0.0000  0.0000 </r>
        <r>  0.0000  0.0715  0.0192  0.0013  0.0000  0.0000  0.0000  0.0000  0.0000 </r>
        <r>  0.0000  0.0188  0.0730  0.0109  0.0000  0.0000  0.0000  0.0000  0.0000 </r>
       </set>
       <set comment="band 37">
        <r>  0.0146  0.0000  0.0000  0.0000  0.0171  0.0817  0.0000  0.0222  0.0000 </r>
        <r>  0.2120  0.0000  0.0000  0.0000  0.0215  0.0056  0.0000  0.0177  0.0000 </r>
        <r>  0.0558  0.0000  0.0000  0.0000  0.0817  0.0171  0.0000  0.0058  0.0000 </r>
        <r>  0.0445  0.0000  0.0000  0.0000  0.0056  0.0215  0.0000  0.0845  0.0000 </r>
       </set>
       <set comment="band 38">
        <r>  0.1094  0.0000  0.0000  0.0000  0.0275  0.0127  0.0000  0.0451  0.0000 </r>
        <r>  0.0329  0.0000  0.0000  0.0000  0.0436  0.0421  0.0000  0.0285  0.0000 </r>
        <r>  0.1132  0.0000  0.0000  0.0000  0.0127  0.0275  0.0000  0.0436  0.0000 </r>
        <r>  0.0714  0.0000  0.0000  0.0000  0.0421  0.0436  0.0000  0.0131  0.0000 </r>
       </set>
       <set comment="band 39">
        <r>  0.0127  0.0000  0.0000  0.0000  0.0809  0.0071  0.0000  0.0341  0.0000 </r>
        <r>  0.0185  0.0000  0.0000  0.0000  0.0329  0.0049  0.0000  0.0838  0.0000 </r>
        <r>  0.0855  0.0000  0.0000  0.0000  0.0071  0.0809  0.0000  0.0051  0.0000 </r>
        <r>  0.2101  0.0000  0.0000  0.0000  0.0049  0.0329  0.0000  0.0074  0.0000 </r>
       </set>
       <set comment="band 40">
        <r>  0.1901  0.0000  0.0000  0.0000  0.0003  0.0245  0.0000  0.0288  0.0000 </r>
        <r>  0.0635  0.0000  0.0000  0.0000  0.0279  0.0732  0.0000  0.0004  0.0000 </r>
        <r>  0.0724  0.0000  0.0000  0.0000  0.0245  0.0003  0.0000  0.0758  0.0000 </r>
        <r>  0.0009  0.0000  0.0000  0.0000  0.0732  0.0279  0.0000  0.0253  0.0000 </r>
       </set>
      </set>
     </set>
    </set>
   </array>
  </projected>
 </calculation>
 <structure name="finalpos" >
  <crystal>
   <varray name="basis" >
    <v>       3.57743067       0.00000000       0.00000000 </v>
    <v>       0.00000000       3.61320498       0.00000000 </v>
    <v>       0.00000000       0.00000000       3.57743067 </v>
   </varray>
   <i name="volume">     46.24183420 </i>
   <varray name="rec_basis" >
    <v>       0.27953022      -0.00000000       0.00000000 </v>
    <v>       0.00000000       0.27676260       0.00000000 </v>
    <v>      -0.00000000      -0.00000000       0.27953022 </v>
   </varray>
  </crystal>
  <varray name="positions" >
   <v>       0.00000000       0.00000000       0.00000000 </v>
   <v>       0.00000000       0.50000000       0.50000000 </v>
   <v>       0.50000000       0.00000000       0.50000000 </v>
   <v>       0.50000000       0.50000000       0.00000000 </v>
  </varray>
 </structure>
</modeling>
