   4   4   1   0
  0.1133154E+02  0.3541656E-09  0.3577431E-09  0.3577431E-09  0.5000000E-15
   1.0000000000000000E-004
  CAR 
 unknown system                          
     25.07975285    -66.81324599  301      7.41114907      1.00000000
    -66.813  0.0000E+00  0.0000E+00
    -66.507  0.0000E+00  0.0000E+00
    -66.201  0.0000E+00  0.0000E+00
    -65.894  0.0000E+00  0.0000E+00
    -65.588  0.0000E+00  0.0000E+00
    -65.282  0.0000E+00  0.0000E+00
    -64.975  0.0000E+00  0.0000E+00
    -64.669  0.0000E+00  0.0000E+00
    -64.363 -0.3789E-31 -0.1161E-31
    -64.056 -0.1227E-20 -0.3757E-21
    -63.750 -0.3539E-12 -0.1084E-12
    -63.444 -0.9431E-06 -0.2889E-06
    -63.138 -0.2180E-01 -0.6679E-02
    -62.831 -0.2404E+01 -0.7430E+00
    -62.525  0.5397E+02  0.1579E+02
    -62.219  0.2821E+02  0.2443E+02
    -61.912 -0.1395E+01  0.2400E+02
    -61.606 -0.2303E-02  0.2400E+02
    -61.300 -0.2388E-07  0.2400E+02
    -60.993 -0.7710E-15  0.2400E+02
    -60.687  0.0000E+00  0.2400E+02
    -60.381  0.0000E+00  0.2400E+02
    -60.074  0.0000E+00  0.2400E+02
    -59.768  0.0000E+00  0.2400E+02
    -59.462  0.0000E+00  0.2400E+02
    -59.155  0.0000E+00  0.2400E+02
    -58.849  0.0000E+00  0.2400E+02
    -58.543  0.0000E+00  0.2400E+02
    -58.237  0.0000E+00  0.2400E+02
    -57.930  0.0000E+00  0.2400E+02
    -57.624  0.0000E+00  0.2400E+02
    -57.318  0.0000E+00  0.2400E+02
    -57.011  0.0000E+00  0.2400E+02
    -56.705  0.0000E+00  0.2400E+02
    -56.399  0.0000E+00  0.2400E+02
    -56.092  0.0000E+00  0.2400E+02
    -55.786  0.0000E+00  0.2400E+02
    -55.480  0.0000E+00  0.2400E+02
    -55.173  0.0000E+00  0.2400E+02
    -54.867  0.0000E+00  0.2400E+02
    -54.561  0.0000E+00  0.2400E+02
    -54.255  0.0000E+00  0.2400E+02
    -53.948  0.0000E+00  0.2400E+02
    -53.642  0.0000E+00  0.2400E+02
    -53.336  0.0000E+00  0.2400E+02
    -53.029  0.0000E+00  0.2400E+02
    -52.723  0.0000E+00  0.2400E+02
    -52.417  0.0000E+00  0.2400E+02
    -52.110  0.0000E+00  0.2400E+02
    -51.804  0.0000E+00  0.2400E+02
    -51.498  0.0000E+00  0.2400E+02
    -51.191  0.0000E+00  0.2400E+02
    -50.885  0.0000E+00  0.2400E+02
    -50.579  0.0000E+00  0.2400E+02
    -50.273  0.0000E+00  0.2400E+02
    -49.966  0.0000E+00  0.2400E+02
    -49.660  0.0000E+00  0.2400E+02
    -49.354  0.0000E+00  0.2400E+02
    -49.047  0.0000E+00  0.2400E+02
    -48.741  0.0000E+00  0.2400E+02
    -48.435  0.0000E+00  0.2400E+02
    -48.128  0.0000E+00  0.2400E+02
    -47.822  0.0000E+00  0.2400E+02
    -47.516  0.0000E+00  0.2400E+02
    -47.209  0.0000E+00  0.2400E+02
    -46.903  0.0000E+00  0.2400E+02
    -46.597  0.0000E+00  0.2400E+02
    -46.290  0.0000E+00  0.2400E+02
    -45.984  0.0000E+00  0.2400E+02
    -45.678  0.0000E+00  0.2400E+02
    -45.372  0.0000E+00  0.2400E+02
    -45.065  0.0000E+00  0.2400E+02
    -44.759  0.0000E+00  0.2400E+02
    -44.453  0.0000E+00  0.2400E+02
    -44.146  0.0000E+00  0.2400E+02
    -43.840  0.0000E+00  0.2400E+02
    -43.534  0.0000E+00  0.2400E+02
    -43.227  0.0000E+00  0.2400E+02
    -42.921  0.0000E+00  0.2400E+02
    -42.615  0.0000E+00  0.2400E+02
    -42.308  0.0000E+00  0.2400E+02
    -42.002  0.0000E+00  0.2400E+02
    -41.696  0.0000E+00  0.2400E+02
    -41.390  0.0000E+00  0.2400E+02
    -41.083  0.0000E+00  0.2400E+02
    -40.777  0.0000E+00  0.2400E+02
    -40.471  0.0000E+00  0.2400E+02
    -40.164  0.0000E+00  0.2400E+02
    -39.858  0.0000E+00  0.2400E+02
    -39.552  0.0000E+00  0.2400E+02
    -39.245  0.0000E+00  0.2400E+02
    -38.939  0.0000E+00  0.2400E+02
    -38.633  0.0000E+00  0.2400E+02
    -38.326  0.0000E+00  0.2400E+02
    -38.020  0.0000E+00  0.2400E+02
    -37.714  0.0000E+00  0.2400E+02
    -37.407  0.0000E+00  0.2400E+02
    -37.101  0.0000E+00  0.2400E+02
    -36.795  0.0000E+00  0.2400E+02
    -36.489  0.0000E+00  0.2400E+02
    -36.182  0.0000E+00  0.2400E+02
    -35.876  0.0000E+00  0.2400E+02
    -35.570  0.0000E+00  0.2400E+02
    -35.263  0.0000E+00  0.2400E+02
    -34.957  0.0000E+00  0.2400E+02
    -34.651  0.0000E+00  0.2400E+02
    -34.344  0.0000E+00  0.2400E+02
    -34.038  0.0000E+00  0.2400E+02
    -33.732  0.0000E+00  0.2400E+02
    -33.425  0.0000E+00  0.2400E+02
    -33.119  0.0000E+00  0.2400E+02
    -32.813  0.0000E+00  0.2400E+02
    -32.507  0.0000E+00  0.2400E+02
    -32.200  0.0000E+00  0.2400E+02
    -31.894  0.0000E+00  0.2400E+02
    -31.588  0.0000E+00  0.2400E+02
    -31.281  0.0000E+00  0.2400E+02
    -30.975  0.0000E+00  0.2400E+02
    -30.669  0.0000E+00  0.2400E+02
    -30.362  0.0000E+00  0.2400E+02
    -30.056  0.0000E+00  0.2400E+02
    -29.750  0.0000E+00  0.2400E+02
    -29.443  0.0000E+00  0.2400E+02
    -29.137  0.0000E+00  0.2400E+02
    -28.831  0.0000E+00  0.2400E+02
    -28.524  0.0000E+00  0.2400E+02
    -28.218  0.0000E+00  0.2400E+02
    -27.912  0.0000E+00  0.2400E+02
    -27.606  0.0000E+00  0.2400E+02
    -27.299  0.0000E+00  0.2400E+02
    -26.993  0.0000E+00  0.2400E+02
    -26.687  0.0000E+00  0.2400E+02
    -26.380  0.0000E+00  0.2400E+02
    -26.074  0.0000E+00  0.2400E+02
    -25.768  0.0000E+00  0.2400E+02
    -25.461  0.0000E+00  0.2400E+02
    -25.155  0.0000E+00  0.2400E+02
    -24.849  0.0000E+00  0.2400E+02
    -24.542  0.0000E+00  0.2400E+02
    -24.236  0.0000E+00  0.2400E+02
    -23.930  0.0000E+00  0.2400E+02
    -23.624  0.0000E+00  0.2400E+02
    -23.317  0.0000E+00  0.2400E+02
    -23.011  0.0000E+00  0.2400E+02
    -22.705  0.0000E+00  0.2400E+02
    -22.398  0.0000E+00  0.2400E+02
    -22.092  0.0000E+00  0.2400E+02
    -21.786  0.0000E+00  0.2400E+02
    -21.479  0.0000E+00  0.2400E+02
    -21.173  0.0000E+00  0.2400E+02
    -20.867  0.0000E+00  0.2400E+02
    -20.560  0.0000E+00  0.2400E+02
    -20.254  0.0000E+00  0.2400E+02
    -19.948  0.0000E+00  0.2400E+02
    -19.642  0.0000E+00  0.2400E+02
    -19.335  0.0000E+00  0.2400E+02
    -19.029  0.0000E+00  0.2400E+02
    -18.723  0.0000E+00  0.2400E+02
    -18.416  0.0000E+00  0.2400E+02
    -18.110  0.0000E+00  0.2400E+02
    -17.804  0.0000E+00  0.2400E+02
    -17.497  0.0000E+00  0.2400E+02
    -17.191  0.0000E+00  0.2400E+02
    -16.885  0.0000E+00  0.2400E+02
    -16.578  0.0000E+00  0.2400E+02
    -16.272  0.0000E+00  0.2400E+02
    -15.966  0.0000E+00  0.2400E+02
    -15.659  0.0000E+00  0.2400E+02
    -15.353  0.0000E+00  0.2400E+02
    -15.047  0.0000E+00  0.2400E+02
    -14.741  0.0000E+00  0.2400E+02
    -14.434  0.0000E+00  0.2400E+02
    -14.128  0.0000E+00  0.2400E+02
    -13.822  0.0000E+00  0.2400E+02
    -13.515  0.0000E+00  0.2400E+02
    -13.209  0.0000E+00  0.2400E+02
    -12.903  0.0000E+00  0.2400E+02
    -12.596  0.0000E+00  0.2400E+02
    -12.290  0.0000E+00  0.2400E+02
    -11.984  0.0000E+00  0.2400E+02
    -11.677  0.0000E+00  0.2400E+02
    -11.371  0.0000E+00  0.2400E+02
    -11.065  0.0000E+00  0.2400E+02
    -10.759  0.0000E+00  0.2400E+02
    -10.452  0.0000E+00  0.2400E+02
    -10.146  0.0000E+00  0.2400E+02
     -9.840  0.0000E+00  0.2400E+02
     -9.533  0.0000E+00  0.2400E+02
     -9.227  0.0000E+00  0.2400E+02
     -8.921  0.0000E+00  0.2400E+02
     -8.614  0.0000E+00  0.2400E+02
     -8.308  0.0000E+00  0.2400E+02
     -8.002  0.0000E+00  0.2400E+02
     -7.695  0.0000E+00  0.2400E+02
     -7.389  0.0000E+00  0.2400E+02
     -7.083  0.0000E+00  0.2400E+02
     -6.776  0.0000E+00  0.2400E+02
     -6.470  0.0000E+00  0.2400E+02
     -6.164  0.0000E+00  0.2400E+02
     -5.858  0.0000E+00  0.2400E+02
     -5.551  0.0000E+00  0.2400E+02
     -5.245  0.0000E+00  0.2400E+02
     -4.939  0.0000E+00  0.2400E+02
     -4.632  0.0000E+00  0.2400E+02
     -4.326  0.0000E+00  0.2400E+02
     -4.020 -0.8964E-34  0.2400E+02
     -3.713 -0.1875E-23  0.2400E+02
     -3.407 -0.3400E-15  0.2400E+02
     -3.101 -0.5713E-09  0.2400E+02
     -2.794 -0.9635E-05  0.2400E+02
     -2.488 -0.1585E-02  0.2400E+02
     -2.182  0.2989E-01  0.2401E+02
     -1.876  0.1478E+00  0.2405E+02
     -1.569  0.2081E+00  0.2412E+02
     -1.263  0.2999E+00  0.2421E+02
     -0.957  0.3069E+00  0.2430E+02
     -0.650  0.4336E+00  0.2444E+02
     -0.344  0.3738E+00  0.2455E+02
     -0.038  0.5573E+00  0.2472E+02
      0.269  0.5115E+00  0.2488E+02
      0.575  0.6464E+00  0.2508E+02
      0.881  0.7005E+00  0.2529E+02
      1.188  0.8314E+00  0.2555E+02
      1.494  0.9333E+00  0.2583E+02
      1.800  0.1295E+01  0.2623E+02
      2.107  0.2000E+01  0.2684E+02
      2.413  0.3725E+01  0.2798E+02
      2.719  0.4829E+01  0.2946E+02
      3.025  0.7165E+01  0.3166E+02
      3.332  0.8525E+01  0.3427E+02
      3.638  0.7828E+01  0.3666E+02
      3.944  0.1007E+02  0.3975E+02
      4.251  0.1312E+02  0.4377E+02
      4.557  0.1495E+02  0.4835E+02
      4.863  0.1052E+02  0.5157E+02
      5.170  0.1291E+02  0.5553E+02
      5.476  0.1223E+02  0.5927E+02
      5.782  0.1676E+02  0.6441E+02
      6.089  0.6011E+01  0.6625E+02
      6.395  0.1444E+01  0.6669E+02
      6.701  0.1387E+01  0.6712E+02
      7.007  0.1096E+01  0.6745E+02
      7.314  0.1523E+01  0.6792E+02
      7.620  0.9036E+00  0.6819E+02
      7.926  0.1254E+01  0.6858E+02
      8.233  0.1218E+01  0.6895E+02
      8.539  0.7441E+00  0.6918E+02
      8.845  0.1274E+01  0.6957E+02
      9.152  0.9648E+00  0.6987E+02
      9.458  0.8762E+00  0.7013E+02
      9.764  0.9113E+00  0.7041E+02
     10.071  0.9650E+00  0.7071E+02
     10.377  0.6138E+00  0.7090E+02
     10.683  0.7626E+00  0.7113E+02
     10.989  0.6718E+00  0.7134E+02
     11.296  0.5219E+00  0.7150E+02
     11.602  0.7788E+00  0.7173E+02
     11.908  0.1217E+01  0.7211E+02
     12.215  0.1100E+01  0.7244E+02
     12.521  0.1084E+01  0.7278E+02
     12.827  0.1294E+01  0.7317E+02
     13.134  0.9867E+00  0.7347E+02
     13.440  0.1031E+01  0.7379E+02
     13.746  0.9573E+00  0.7408E+02
     14.053  0.1045E+01  0.7440E+02
     14.359  0.8527E+00  0.7466E+02
     14.665  0.8945E+00  0.7494E+02
     14.972  0.9398E+00  0.7523E+02
     15.278  0.1174E+01  0.7559E+02
     15.584  0.1365E+01  0.7600E+02
     15.890  0.1390E+01  0.7643E+02
     16.197  0.1027E+01  0.7674E+02
     16.503  0.1580E+01  0.7723E+02
     16.809  0.1585E+01  0.7771E+02
     17.116  0.9027E+00  0.7799E+02
     17.422  0.1417E+01  0.7842E+02
     17.728  0.1225E+01  0.7880E+02
     18.035  0.1442E+01  0.7924E+02
     18.341  0.8573E+00  0.7950E+02
     18.647  0.6303E+00  0.7970E+02
     18.954  0.4735E+00  0.7984E+02
     19.260  0.3224E+00  0.7994E+02
     19.566  0.1273E+00  0.7998E+02
     19.872  0.8357E-02  0.7998E+02
     20.179  0.2026E-01  0.7999E+02
     20.485  0.3403E-01  0.8000E+02
     20.791 -0.6252E-03  0.8000E+02
     21.098  0.3453E-02  0.8000E+02
     21.404 -0.7997E-04  0.8000E+02
     21.710 -0.4256E-05  0.8000E+02
     22.017 -0.3363E-09  0.8000E+02
     22.323 -0.1946E-15  0.8000E+02
     22.629  0.0000E+00  0.8000E+02
     22.936  0.0000E+00  0.8000E+02
     23.242  0.0000E+00  0.8000E+02
     23.548  0.0000E+00  0.8000E+02
     23.855  0.0000E+00  0.8000E+02
     24.161  0.0000E+00  0.8000E+02
     24.467  0.0000E+00  0.8000E+02
     24.773  0.0000E+00  0.8000E+02
     25.080  0.0000E+00  0.8000E+02
     25.07975285    -66.81324599  301      7.41114907      1.00000000
    -66.813  0.0000E+00  0.0000E+00  0.0000E+00  0.0000E+00  0.0000E+00  0.0000E+00  0.0000E+00  0.0000E+00  0.0000E+00
    -66.507  0.0000E+00  0.0000E+00  0.0000E+00  0.0000E+00  0.0000E+00  0.0000E+00  0.0000E+00  0.0000E+00  0.0000E+00
    -66.201  0.0000E+00  0.0000E+00  0.0000E+00  0.0000E+00  0.0000E+00  0.0000E+00  0.0000E+00  0.0000E+00  0.0000E+00
    -65.894  0.0000E+00  0.0000E+00  0.0000E+00  0.0000E+00  0.0000E+00  0.0000E+00  0.0000E+00  0.0000E+00  0.0000E+00
    -65.588  0.0000E+00  0.0000E+00  0.0000E+00  0.0000E+00  0.0000E+00  0.0000E+00  0.0000E+00  0.0000E+00  0.0000E+00
    -65.282  0.0000E+00  0.0000E+00  0.0000E+00  0.0000E+00  0.0000E+00  0.0000E+00  0.0000E+00  0.0000E+00  0.0000E+00
    -64.975  0.0000E+00  0.0000E+00  0.0000E+00  0.0000E+00  0.0000E+00  0.0000E+00  0.0000E+00  0.0000E+00  0.0000E+00
    -64.669  0.0000E+00  0.0000E+00  0.0000E+00  0.0000E+00  0.0000E+00  0.0000E+00  0.0000E+00  0.0000E+00  0.0000E+00
    -64.363 -0.1720E-37 -0.3098E-32 -0.3098E-32 -0.3232E-32 -0.6138E-38 -0.5597E-38 -0.2946E-38 -0.6138E-38 -0.2327E-38
    -64.056 -0.6131E-27 -0.1004E-21 -0.1004E-21 -0.1044E-21 -0.2136E-27 -0.1944E-27 -0.1011E-27 -0.2136E-27 -0.7991E-28
    -63.750 -0.1927E-18 -0.2903E-13 -0.2903E-13 -0.3001E-13 -0.6662E-19 -0.6042E-19 -0.3115E-19 -0.6662E-19 -0.2478E-19
    -63.444 -0.5434E-12 -0.7759E-07 -0.7759E-07 -0.7956E-07 -0.1926E-12 -0.1737E-12 -0.8964E-13 -0.1926E-12 -0.7236E-13
    -63.138 -0.1233E-07 -0.1801E-02 -0.1801E-02 -0.1826E-02 -0.4774E-08 -0.4269E-08 -0.2271E-08 -0.4774E-08 -0.1891E-08
    -62.831 -0.1036E-05 -0.1998E+00 -0.1998E+00 -0.1993E+00 -0.5331E-06 -0.4682E-06 -0.2790E-06 -0.5331E-06 -0.2489E-06
    -62.525  0.2431E-04  0.4481E+01  0.4481E+01  0.4483E+01  0.1187E-04  0.1046E-04  0.6133E-05  0.1187E-04  0.5418E-05
    -62.219  0.8729E-05  0.2344E+01  0.2344E+01  0.2342E+01  0.5664E-05  0.4931E-05  0.3209E-05  0.5664E-05  0.2987E-05
    -61.912 -0.4304E-06 -0.1160E+00 -0.1160E+00 -0.1159E+00 -0.2793E-06 -0.2432E-06 -0.1584E-06 -0.2793E-06 -0.1475E-06
    -61.606 -0.4609E-09 -0.1907E-03 -0.1907E-03 -0.1928E-03 -0.3964E-09 -0.3426E-09 -0.2402E-09 -0.3964E-09 -0.2344E-09
    -61.300 -0.3495E-14 -0.1969E-08 -0.1969E-08 -0.2017E-08 -0.3630E-14 -0.3128E-14 -0.2247E-14 -0.3630E-14 -0.2269E-14
    -60.993 -0.3167E-22 -0.6165E-16 -0.6165E-16 -0.6906E-16 -0.5515E-22 -0.4790E-22 -0.2130E-22 -0.5515E-22 -0.2692E-22
    -60.687  0.0000E+00  0.0000E+00  0.0000E+00  0.0000E+00  0.0000E+00  0.0000E+00  0.0000E+00  0.0000E+00  0.0000E+00
    -60.381  0.0000E+00  0.0000E+00  0.0000E+00  0.0000E+00  0.0000E+00  0.0000E+00  0.0000E+00  0.0000E+00  0.0000E+00
    -60.074  0.0000E+00  0.0000E+00  0.0000E+00  0.0000E+00  0.0000E+00  0.0000E+00  0.0000E+00  0.0000E+00  0.0000E+00
    -59.768  0.0000E+00  0.0000E+00  0.0000E+00  0.0000E+00  0.0000E+00  0.0000E+00  0.0000E+00  0.0000E+00  0.0000E+00
    -59.462  0.0000E+00  0.0000E+00  0.0000E+00  0.0000E+00  0.0000E+00  0.0000E+00  0.0000E+00  0.0000E+00  0.0000E+00
    -59.155  0.0000E+00  0.0000E+00  0.0000E+00  0.0000E+00  0.0000E+00  0.0000E+00  0.0000E+00  0.0000E+00  0.0000E+00
    -58.849  0.0000E+00  0.0000E+00  0.0000E+00  0.0000E+00  0.0000E+00  0.0000E+00  0.0000E+00  0.0000E+00  0.0000E+00
    -58.543  0.0000E+00  0.0000E+00  0.0000E+00  0.0000E+00  0.0000E+00  0.0000E+00  0.0000E+00  0.0000E+00  0.0000E+00
    -58.237  0.0000E+00  0.0000E+00  0.0000E+00  0.0000E+00  0.0000E+00  0.0000E+00  0.0000E+00  0.0000E+00  0.0000E+00
    -57.930  0.0000E+00  0.0000E+00  0.0000E+00  0.0000E+00  0.0000E+00  0.0000E+00  0.0000E+00  0.0000E+00  0.0000E+00
    -57.624  0.0000E+00  0.0000E+00  0.0000E+00  0.0000E+00  0.0000E+00  0.0000E+00  0.0000E+00  0.0000E+00  0.0000E+00
    -57.318  0.0000E+00  0.0000E+00  0.0000E+00  0.0000E+00  0.0000E+00  0.0000E+00  0.0000E+00  0.0000E+00  0.0000E+00
    -57.011  0.0000E+00  0.0000E+00  0.0000E+00  0.0000E+00  0.0000E+00  0.0000E+00  0.0000E+00  0.0000E+00  0.0000E+00
    -56.705  0.0000E+00  0.0000E+00  0.0000E+00  0.0000E+00  0.0000E+00  0.0000E+00  0.0000E+00  0.0000E+00  0.0000E+00
    -56.399  0.0000E+00  0.0000E+00  0.0000E+00  0.0000E+00  0.0000E+00  0.0000E+00  0.0000E+00  0.0000E+00  0.0000E+00
    -56.092  0.0000E+00  0.0000E+00  0.0000E+00  0.0000E+00  0.0000E+00  0.0000E+00  0.0000E+00  0.0000E+00  0.0000E+00
    -55.786  0.0000E+00  0.0000E+00  0.0000E+00  0.0000E+00  0.0000E+00  0.0000E+00  0.0000E+00  0.0000E+00  0.0000E+00
    -55.480  0.0000E+00  0.0000E+00  0.0000E+00  0.0000E+00  0.0000E+00  0.0000E+00  0.0000E+00  0.0000E+00  0.0000E+00
    -55.173  0.0000E+00  0.0000E+00  0.0000E+00  0.0000E+00  0.0000E+00  0.0000E+00  0.0000E+00  0.0000E+00  0.0000E+00
    -54.867  0.0000E+00  0.0000E+00  0.0000E+00  0.0000E+00  0.0000E+00  0.0000E+00  0.0000E+00  0.0000E+00  0.0000E+00
    -54.561  0.0000E+00  0.0000E+00  0.0000E+00  0.0000E+00  0.0000E+00  0.0000E+00  0.0000E+00  0.0000E+00  0.0000E+00
    -54.255  0.0000E+00  0.0000E+00  0.0000E+00  0.0000E+00  0.0000E+00  0.0000E+00  0.0000E+00  0.0000E+00  0.0000E+00
    -53.948  0.0000E+00  0.0000E+00  0.0000E+00  0.0000E+00  0.0000E+00  0.0000E+00  0.0000E+00  0.0000E+00  0.0000E+00
    -53.642  0.0000E+00  0.0000E+00  0.0000E+00  0.0000E+00  0.0000E+00  0.0000E+00  0.0000E+00  0.0000E+00  0.0000E+00
    -53.336  0.0000E+00  0.0000E+00  0.0000E+00  0.0000E+00  0.0000E+00  0.0000E+00  0.0000E+00  0.0000E+00  0.0000E+00
    -53.029  0.0000E+00  0.0000E+00  0.0000E+00  0.0000E+00  0.0000E+00  0.0000E+00  0.0000E+00  0.0000E+00  0.0000E+00
    -52.723  0.0000E+00  0.0000E+00  0.0000E+00  0.0000E+00  0.0000E+00  0.0000E+00  0.0000E+00  0.0000E+00  0.0000E+00
    -52.417  0.0000E+00  0.0000E+00  0.0000E+00  0.0000E+00  0.0000E+00  0.0000E+00  0.0000E+00  0.0000E+00  0.0000E+00
    -52.110  0.0000E+00  0.0000E+00  0.0000E+00  0.0000E+00  0.0000E+00  0.0000E+00  0.0000E+00  0.0000E+00  0.0000E+00
    -51.804  0.0000E+00  0.0000E+00  0.0000E+00  0.0000E+00  0.0000E+00  0.0000E+00  0.0000E+00  0.0000E+00  0.0000E+00
    -51.498  0.0000E+00  0.0000E+00  0.0000E+00  0.0000E+00  0.0000E+00  0.0000E+00  0.0000E+00  0.0000E+00  0.0000E+00
    -51.191  0.0000E+00  0.0000E+00  0.0000E+00  0.0000E+00  0.0000E+00  0.0000E+00  0.0000E+00  0.0000E+00  0.0000E+00
    -50.885  0.0000E+00  0.0000E+00  0.0000E+00  0.0000E+00  0.0000E+00  0.0000E+00  0.0000E+00  0.0000E+00  0.0000E+00
    -50.579  0.0000E+00  0.0000E+00  0.0000E+00  0.0000E+00  0.0000E+00  0.0000E+00  0.0000E+00  0.0000E+00  0.0000E+00
    -50.273  0.0000E+00  0.0000E+00  0.0000E+00  0.0000E+00  0.0000E+00  0.0000E+00  0.0000E+00  0.0000E+00  0.0000E+00
    -49.966  0.0000E+00  0.0000E+00  0.0000E+00  0.0000E+00  0.0000E+00  0.0000E+00  0.0000E+00  0.0000E+00  0.0000E+00
    -49.660  0.0000E+00  0.0000E+00  0.0000E+00  0.0000E+00  0.0000E+00  0.0000E+00  0.0000E+00  0.0000E+00  0.0000E+00
    -49.354  0.0000E+00  0.0000E+00  0.0000E+00  0.0000E+00  0.0000E+00  0.0000E+00  0.0000E+00  0.0000E+00  0.0000E+00
    -49.047  0.0000E+00  0.0000E+00  0.0000E+00  0.0000E+00  0.0000E+00  0.0000E+00  0.0000E+00  0.0000E+00  0.0000E+00
    -48.741  0.0000E+00  0.0000E+00  0.0000E+00  0.0000E+00  0.0000E+00  0.0000E+00  0.0000E+00  0.0000E+00  0.0000E+00
    -48.435  0.0000E+00  0.0000E+00  0.0000E+00  0.0000E+00  0.0000E+00  0.0000E+00  0.0000E+00  0.0000E+00  0.0000E+00
    -48.128  0.0000E+00  0.0000E+00  0.0000E+00  0.0000E+00  0.0000E+00  0.0000E+00  0.0000E+00  0.0000E+00  0.0000E+00
    -47.822  0.0000E+00  0.0000E+00  0.0000E+00  0.0000E+00  0.0000E+00  0.0000E+00  0.0000E+00  0.0000E+00  0.0000E+00
    -47.516  0.0000E+00  0.0000E+00  0.0000E+00  0.0000E+00  0.0000E+00  0.0000E+00  0.0000E+00  0.0000E+00  0.0000E+00
    -47.209  0.0000E+00  0.0000E+00  0.0000E+00  0.0000E+00  0.0000E+00  0.0000E+00  0.0000E+00  0.0000E+00  0.0000E+00
    -46.903  0.0000E+00  0.0000E+00  0.0000E+00  0.0000E+00  0.0000E+00  0.0000E+00  0.0000E+00  0.0000E+00  0.0000E+00
    -46.597  0.0000E+00  0.0000E+00  0.0000E+00  0.0000E+00  0.0000E+00  0.0000E+00  0.0000E+00  0.0000E+00  0.0000E+00
    -46.290  0.0000E+00  0.0000E+00  0.0000E+00  0.0000E+00  0.0000E+00  0.0000E+00  0.0000E+00  0.0000E+00  0.0000E+00
    -45.984  0.0000E+00  0.0000E+00  0.0000E+00  0.0000E+00  0.0000E+00  0.0000E+00  0.0000E+00  0.0000E+00  0.0000E+00
    -45.678  0.0000E+00  0.0000E+00  0.0000E+00  0.0000E+00  0.0000E+00  0.0000E+00  0.0000E+00  0.0000E+00  0.0000E+00
    -45.372  0.0000E+00  0.0000E+00  0.0000E+00  0.0000E+00  0.0000E+00  0.0000E+00  0.0000E+00  0.0000E+00  0.0000E+00
    -45.065  0.0000E+00  0.0000E+00  0.0000E+00  0.0000E+00  0.0000E+00  0.0000E+00  0.0000E+00  0.0000E+00  0.0000E+00
    -44.759  0.0000E+00  0.0000E+00  0.0000E+00  0.0000E+00  0.0000E+00  0.0000E+00  0.0000E+00  0.0000E+00  0.0000E+00
    -44.453  0.0000E+00  0.0000E+00  0.0000E+00  0.0000E+00  0.0000E+00  0.0000E+00  0.0000E+00  0.0000E+00  0.0000E+00
    -44.146  0.0000E+00  0.0000E+00  0.0000E+00  0.0000E+00  0.0000E+00  0.0000E+00  0.0000E+00  0.0000E+00  0.0000E+00
    -43.840  0.0000E+00  0.0000E+00  0.0000E+00  0.0000E+00  0.0000E+00  0.0000E+00  0.0000E+00  0.0000E+00  0.0000E+00
    -43.534  0.0000E+00  0.0000E+00  0.0000E+00  0.0000E+00  0.0000E+00  0.0000E+00  0.0000E+00  0.0000E+00  0.0000E+00
    -43.227  0.0000E+00  0.0000E+00  0.0000E+00  0.0000E+00  0.0000E+00  0.0000E+00  0.0000E+00  0.0000E+00  0.0000E+00
    -42.921  0.0000E+00  0.0000E+00  0.0000E+00  0.0000E+00  0.0000E+00  0.0000E+00  0.0000E+00  0.0000E+00  0.0000E+00
    -42.615  0.0000E+00  0.0000E+00  0.0000E+00  0.0000E+00  0.0000E+00  0.0000E+00  0.0000E+00  0.0000E+00  0.0000E+00
    -42.308  0.0000E+00  0.0000E+00  0.0000E+00  0.0000E+00  0.0000E+00  0.0000E+00  0.0000E+00  0.0000E+00  0.0000E+00
    -42.002  0.0000E+00  0.0000E+00  0.0000E+00  0.0000E+00  0.0000E+00  0.0000E+00  0.0000E+00  0.0000E+00  0.0000E+00
    -41.696  0.0000E+00  0.0000E+00  0.0000E+00  0.0000E+00  0.0000E+00  0.0000E+00  0.0000E+00  0.0000E+00  0.0000E+00
    -41.390  0.0000E+00  0.0000E+00  0.0000E+00  0.0000E+00  0.0000E+00  0.0000E+00  0.0000E+00  0.0000E+00  0.0000E+00
    -41.083  0.0000E+00  0.0000E+00  0.0000E+00  0.0000E+00  0.0000E+00  0.0000E+00  0.0000E+00  0.0000E+00  0.0000E+00
    -40.777  0.0000E+00  0.0000E+00  0.0000E+00  0.0000E+00  0.0000E+00  0.0000E+00  0.0000E+00  0.0000E+00  0.0000E+00
    -40.471  0.0000E+00  0.0000E+00  0.0000E+00  0.0000E+00  0.0000E+00  0.0000E+00  0.0000E+00  0.0000E+00  0.0000E+00
    -40.164  0.0000E+00  0.0000E+00  0.0000E+00  0.0000E+00  0.0000E+00  0.0000E+00  0.0000E+00  0.0000E+00  0.0000E+00
    -39.858  0.0000E+00  0.0000E+00  0.0000E+00  0.0000E+00  0.0000E+00  0.0000E+00  0.0000E+00  0.0000E+00  0.0000E+00
    -39.552  0.0000E+00  0.0000E+00  0.0000E+00  0.0000E+00  0.0000E+00  0.0000E+00  0.0000E+00  0.0000E+00  0.0000E+00
    -39.245  0.0000E+00  0.0000E+00  0.0000E+00  0.0000E+00  0.0000E+00  0.0000E+00  0.0000E+00  0.0000E+00  0.0000E+00
    -38.939  0.0000E+00  0.0000E+00  0.0000E+00  0.0000E+00  0.0000E+00  0.0000E+00  0.0000E+00  0.0000E+00  0.0000E+00
    -38.633  0.0000E+00  0.0000E+00  0.0000E+00  0.0000E+00  0.0000E+00  0.0000E+00  0.0000E+00  0.0000E+00  0.0000E+00
    -38.326  0.0000E+00  0.0000E+00  0.0000E+00  0.0000E+00  0.0000E+00  0.0000E+00  0.0000E+00  0.0000E+00  0.0000E+00
    -38.020  0.0000E+00  0.0000E+00  0.0000E+00  0.0000E+00  0.0000E+00  0.0000E+00  0.0000E+00  0.0000E+00  0.0000E+00
    -37.714  0.0000E+00  0.0000E+00  0.0000E+00  0.0000E+00  0.0000E+00  0.0000E+00  0.0000E+00  0.0000E+00  0.0000E+00
    -37.407  0.0000E+00  0.0000E+00  0.0000E+00  0.0000E+00  0.0000E+00  0.0000E+00  0.0000E+00  0.0000E+00  0.0000E+00
    -37.101  0.0000E+00  0.0000E+00  0.0000E+00  0.0000E+00  0.0000E+00  0.0000E+00  0.0000E+00  0.0000E+00  0.0000E+00
    -36.795  0.0000E+00  0.0000E+00  0.0000E+00  0.0000E+00  0.0000E+00  0.0000E+00  0.0000E+00  0.0000E+00  0.0000E+00
    -36.489  0.0000E+00  0.0000E+00  0.0000E+00  0.0000E+00  0.0000E+00  0.0000E+00  0.0000E+00  0.0000E+00  0.0000E+00
    -36.182  0.0000E+00  0.0000E+00  0.0000E+00  0.0000E+00  0.0000E+00  0.0000E+00  0.0000E+00  0.0000E+00  0.0000E+00
    -35.876  0.0000E+00  0.0000E+00  0.0000E+00  0.0000E+00  0.0000E+00  0.0000E+00  0.0000E+00  0.0000E+00  0.0000E+00
    -35.570  0.0000E+00  0.0000E+00  0.0000E+00  0.0000E+00  0.0000E+00  0.0000E+00  0.0000E+00  0.0000E+00  0.0000E+00
    -35.263  0.0000E+00  0.0000E+00  0.0000E+00  0.0000E+00  0.0000E+00  0.0000E+00  0.0000E+00  0.0000E+00  0.0000E+00
    -34.957  0.0000E+00  0.0000E+00  0.0000E+00  0.0000E+00  0.0000E+00  0.0000E+00  0.0000E+00  0.0000E+00  0.0000E+00
    -34.651  0.0000E+00  0.0000E+00  0.0000E+00  0.0000E+00  0.0000E+00  0.0000E+00  0.0000E+00  0.0000E+00  0.0000E+00
    -34.344  0.0000E+00  0.0000E+00  0.0000E+00  0.0000E+00  0.0000E+00  0.0000E+00  0.0000E+00  0.0000E+00  0.0000E+00
    -34.038  0.0000E+00  0.0000E+00  0.0000E+00  0.0000E+00  0.0000E+00  0.0000E+00  0.0000E+00  0.0000E+00  0.0000E+00
    -33.732  0.0000E+00  0.0000E+00  0.0000E+00  0.0000E+00  0.0000E+00  0.0000E+00  0.0000E+00  0.0000E+00  0.0000E+00
    -33.425  0.0000E+00  0.0000E+00  0.0000E+00  0.0000E+00  0.0000E+00  0.0000E+00  0.0000E+00  0.0000E+00  0.0000E+00
    -33.119  0.0000E+00  0.0000E+00  0.0000E+00  0.0000E+00  0.0000E+00  0.0000E+00  0.0000E+00  0.0000E+00  0.0000E+00
    -32.813  0.0000E+00  0.0000E+00  0.0000E+00  0.0000E+00  0.0000E+00  0.0000E+00  0.0000E+00  0.0000E+00  0.0000E+00
    -32.507  0.0000E+00  0.0000E+00  0.0000E+00  0.0000E+00  0.0000E+00  0.0000E+00  0.0000E+00  0.0000E+00  0.0000E+00
    -32.200  0.0000E+00  0.0000E+00  0.0000E+00  0.0000E+00  0.0000E+00  0.0000E+00  0.0000E+00  0.0000E+00  0.0000E+00
    -31.894  0.0000E+00  0.0000E+00  0.0000E+00  0.0000E+00  0.0000E+00  0.0000E+00  0.0000E+00  0.0000E+00  0.0000E+00
    -31.588  0.0000E+00  0.0000E+00  0.0000E+00  0.0000E+00  0.0000E+00  0.0000E+00  0.0000E+00  0.0000E+00  0.0000E+00
    -31.281  0.0000E+00  0.0000E+00  0.0000E+00  0.0000E+00  0.0000E+00  0.0000E+00  0.0000E+00  0.0000E+00  0.0000E+00
    -30.975  0.0000E+00  0.0000E+00  0.0000E+00  0.0000E+00  0.0000E+00  0.0000E+00  0.0000E+00  0.0000E+00  0.0000E+00
    -30.669  0.0000E+00  0.0000E+00  0.0000E+00  0.0000E+00  0.0000E+00  0.0000E+00  0.0000E+00  0.0000E+00  0.0000E+00
    -30.362  0.0000E+00  0.0000E+00  0.0000E+00  0.0000E+00  0.0000E+00  0.0000E+00  0.0000E+00  0.0000E+00  0.0000E+00
    -30.056  0.0000E+00  0.0000E+00  0.0000E+00  0.0000E+00  0.0000E+00  0.0000E+00  0.0000E+00  0.0000E+00  0.0000E+00
    -29.750  0.0000E+00  0.0000E+00  0.0000E+00  0.0000E+00  0.0000E+00  0.0000E+00  0.0000E+00  0.0000E+00  0.0000E+00
    -29.443  0.0000E+00  0.0000E+00  0.0000E+00  0.0000E+00  0.0000E+00  0.0000E+00  0.0000E+00  0.0000E+00  0.0000E+00
    -29.137  0.0000E+00  0.0000E+00  0.0000E+00  0.0000E+00  0.0000E+00  0.0000E+00  0.0000E+00  0.0000E+00  0.0000E+00
    -28.831  0.0000E+00  0.0000E+00  0.0000E+00  0.0000E+00  0.0000E+00  0.0000E+00  0.0000E+00  0.0000E+00  0.0000E+00
    -28.524  0.0000E+00  0.0000E+00  0.0000E+00  0.0000E+00  0.0000E+00  0.0000E+00  0.0000E+00  0.0000E+00  0.0000E+00
    -28.218  0.0000E+00  0.0000E+00  0.0000E+00  0.0000E+00  0.0000E+00  0.0000E+00  0.0000E+00  0.0000E+00  0.0000E+00
    -27.912  0.0000E+00  0.0000E+00  0.0000E+00  0.0000E+00  0.0000E+00  0.0000E+00  0.0000E+00  0.0000E+00  0.0000E+00
    -27.606  0.0000E+00  0.0000E+00  0.0000E+00  0.0000E+00  0.0000E+00  0.0000E+00  0.0000E+00  0.0000E+00  0.0000E+00
    -27.299  0.0000E+00  0.0000E+00  0.0000E+00  0.0000E+00  0.0000E+00  0.0000E+00  0.0000E+00  0.0000E+00  0.0000E+00
    -26.993  0.0000E+00  0.0000E+00  0.0000E+00  0.0000E+00  0.0000E+00  0.0000E+00  0.0000E+00  0.0000E+00  0.0000E+00
    -26.687  0.0000E+00  0.0000E+00  0.0000E+00  0.0000E+00  0.0000E+00  0.0000E+00  0.0000E+00  0.0000E+00  0.0000E+00
    -26.380  0.0000E+00  0.0000E+00  0.0000E+00  0.0000E+00  0.0000E+00  0.0000E+00  0.0000E+00  0.0000E+00  0.0000E+00
    -26.074  0.0000E+00  0.0000E+00  0.0000E+00  0.0000E+00  0.0000E+00  0.0000E+00  0.0000E+00  0.0000E+00  0.0000E+00
    -25.768  0.0000E+00  0.0000E+00  0.0000E+00  0.0000E+00  0.0000E+00  0.0000E+00  0.0000E+00  0.0000E+00  0.0000E+00
    -25.461  0.0000E+00  0.0000E+00  0.0000E+00  0.0000E+00  0.0000E+00  0.0000E+00  0.0000E+00  0.0000E+00  0.0000E+00
    -25.155  0.0000E+00  0.0000E+00  0.0000E+00  0.0000E+00  0.0000E+00  0.0000E+00  0.0000E+00  0.0000E+00  0.0000E+00
    -24.849  0.0000E+00  0.0000E+00  0.0000E+00  0.0000E+00  0.0000E+00  0.0000E+00  0.0000E+00  0.0000E+00  0.0000E+00
    -24.542  0.0000E+00  0.0000E+00  0.0000E+00  0.0000E+00  0.0000E+00  0.0000E+00  0.0000E+00  0.0000E+00  0.0000E+00
    -24.236  0.0000E+00  0.0000E+00  0.0000E+00  0.0000E+00  0.0000E+00  0.0000E+00  0.0000E+00  0.0000E+00  0.0000E+00
    -23.930  0.0000E+00  0.0000E+00  0.0000E+00  0.0000E+00  0.0000E+00  0.0000E+00  0.0000E+00  0.0000E+00  0.0000E+00
    -23.624  0.0000E+00  0.0000E+00  0.0000E+00  0.0000E+00  0.0000E+00  0.0000E+00  0.0000E+00  0.0000E+00  0.0000E+00
    -23.317  0.0000E+00  0.0000E+00  0.0000E+00  0.0000E+00  0.0000E+00  0.0000E+00  0.0000E+00  0.0000E+00  0.0000E+00
    -23.011  0.0000E+00  0.0000E+00  0.0000E+00  0.0000E+00  0.0000E+00  0.0000E+00  0.0000E+00  0.0000E+00  0.0000E+00
    -22.705  0.0000E+00  0.0000E+00  0.0000E+00  0.0000E+00  0.0000E+00  0.0000E+00  0.0000E+00  0.0000E+00  0.0000E+00
    -22.398  0.0000E+00  0.0000E+00  0.0000E+00  0.0000E+00  0.0000E+00  0.0000E+00  0.0000E+00  0.0000E+00  0.0000E+00
    -22.092  0.0000E+00  0.0000E+00  0.0000E+00  0.0000E+00  0.0000E+00  0.0000E+00  0.0000E+00  0.0000E+00  0.0000E+00
    -21.786  0.0000E+00  0.0000E+00  0.0000E+00  0.0000E+00  0.0000E+00  0.0000E+00  0.0000E+00  0.0000E+00  0.0000E+00
    -21.479  0.0000E+00  0.0000E+00  0.0000E+00  0.0000E+00  0.0000E+00  0.0000E+00  0.0000E+00  0.0000E+00  0.0000E+00
    -21.173  0.0000E+00  0.0000E+00  0.0000E+00  0.0000E+00  0.0000E+00  0.0000E+00  0.0000E+00  0.0000E+00  0.0000E+00
    -20.867  0.0000E+00  0.0000E+00  0.0000E+00  0.0000E+00  0.0000E+00  0.0000E+00  0.0000E+00  0.0000E+00  0.0000E+00
    -20.560  0.0000E+00  0.0000E+00  0.0000E+00  0.0000E+00  0.0000E+00  0.0000E+00  0.0000E+00  0.0000E+00  0.0000E+00
    -20.254  0.0000E+00  0.0000E+00  0.0000E+00  0.0000E+00  0.0000E+00  0.0000E+00  0.0000E+00  0.0000E+00  0.0000E+00
    -19.948  0.0000E+00  0.0000E+00  0.0000E+00  0.0000E+00  0.0000E+00  0.0000E+00  0.0000E+00  0.0000E+00  0.0000E+00
    -19.642  0.0000E+00  0.0000E+00  0.0000E+00  0.0000E+00  0.0000E+00  0.0000E+00  0.0000E+00  0.0000E+00  0.0000E+00
    -19.335  0.0000E+00  0.0000E+00  0.0000E+00  0.0000E+00  0.0000E+00  0.0000E+00  0.0000E+00  0.0000E+00  0.0000E+00
    -19.029  0.0000E+00  0.0000E+00  0.0000E+00  0.0000E+00  0.0000E+00  0.0000E+00  0.0000E+00  0.0000E+00  0.0000E+00