 running on    4 total cores
 distrk:  each k-point on    4 cores,    1 groups
 distr:  one band on    1 cores,    4 groups
 vasp.6.2.1 16May21 (build Aug 15 2022 14:47:30) complex                         
 POSCAR found type information on POSCAR Cu
 POSCAR found :  1 types and       4 ions
 scaLAPACK will be used
 LDA part: xc-table for Pade appr. of Perdew
 POSCAR found type information on POSCAR Cu
 POSCAR found :  1 types and       4 ions
 POSCAR, INCAR and KPOINTS ok, starting setup
 FFT: planning ...
 WAVECAR not read
 entering main loop
       N       E                     dE             d eps       ncg     rms          rms(c)
DAV:   1     0.912484393172E+03    0.91248E+03   -0.46675E+04 18048   0.274E+03
DAV:   2     0.399199696735E+02   -0.87256E+03   -0.85285E+03 15976   0.763E+02
DAV:   3    -0.183375868804E+02   -0.58258E+02   -0.56247E+02 17168   0.218E+02
DAV:   4    -0.197585711015E+02   -0.14210E+01   -0.14070E+01 17096   0.336E+01
DAV:   5    -0.198046768428E+02   -0.46106E-01   -0.46118E-01 19392   0.560E+00    0.161E+01
RMM:   6    -0.177797335094E+02    0.20249E+01   -0.36101E+01 16020   0.606E+01    0.103E+01
RMM:   7    -0.163608789774E+02    0.14189E+01   -0.65167E+00 15712   0.280E+01    0.121E+00
RMM:   8    -0.163239353805E+02    0.36944E-01   -0.66137E-02 16473   0.301E+00    0.323E-01
RMM:   9    -0.163232661668E+02    0.66921E-03   -0.13753E-02 16832   0.957E-01    0.941E-02
RMM:  10    -0.163235187428E+02   -0.25258E-03   -0.29596E-03 17015   0.646E-01    0.667E-02
RMM:  11    -0.163235365584E+02   -0.17816E-04   -0.10068E-03 18088   0.256E-01    0.198E-02
RMM:  12    -0.163235566293E+02   -0.20071E-04   -0.25038E-04 20098   0.143E-01    0.687E-03
RMM:  13    -0.163235642760E+02   -0.76467E-05   -0.61444E-05 21251   0.503E-02    0.280E-03
RMM:  14    -0.163235658609E+02   -0.15849E-05   -0.92010E-06 21940   0.223E-02    0.864E-04
RMM:  15    -0.163235660134E+02   -0.15251E-06   -0.14287E-06 22664   0.779E-03    0.122E-04
RMM:  16    -0.163235660651E+02   -0.51754E-07   -0.15317E-07 16612   0.293E-03    0.357E-04
RMM:  17    -0.163235660166E+02    0.48505E-07   -0.22954E-08  9639   0.151E-03    0.313E-05
RMM:  18    -0.163235660208E+02   -0.41837E-08   -0.64651E-09  8678   0.749E-04
   1 F= -.16323566E+02 E0= -.16324478E+02  d E =0.273567E-02
