    1    1    1    2
  0.1658294E+02  0.2862368E-09  0.2862368E-09  0.2862368E-09  0.5000000E-15
   1.0000000000000000E-004
  CAR 
 unknown system                          
      3     56     40

  0.1262379E-14  0.1262379E-14  0.1262379E-14  0.7513148E-03
    1       -3.151695     -3.149665   1.000000   1.000000
    2       20.580620     20.581162   0.000000   0.000000
    3       20.580620     20.581162   0.000000   0.000000
    4       20.580621     20.581163   0.000000   0.000000
    5       21.992261     21.998572   0.000000   0.000000
    6       21.992261     21.998572   0.000000   0.000000
    7       21.992272     21.998584   0.000000   0.000000
    8       24.383851     24.384383   0.000000   0.000000
    9       27.381561     27.384739   0.000000   0.000000
   10       27.381561     27.384739   0.000000   0.000000
   11       30.160190     30.166265   0.000000   0.000000
   12       32.518772     32.520163   0.000000   0.000000
   13       32.518772     32.520163   0.000000   0.000000
   14       32.518777     32.520168   0.000000   0.000000
   15       41.128717     41.133514   0.000000   0.000000
   16       59.145005     59.151004   0.000000   0.000000
   17       59.532154     59.535222   0.000000   0.000000
   18       59.532154     59.535222   0.000000   0.000000
   19       59.532156     59.535223   0.000000   0.000000
   20       63.044402     63.043425   0.000000   0.000000
   21       63.044402     63.043425   0.000000   0.000000
   22       63.196426     63.201884   0.000000   0.000000
   23       63.196426     63.201884   0.000000   0.000000
   24       63.196432     63.201889   0.000000   0.000000
   25       65.168627     65.172491   0.000000   0.000000
   26       65.168642     65.172505   0.000000   0.000000
   27       65.168642     65.172505   0.000000   0.000000
   28       75.162201     75.165546   0.000000   0.000000
   29       75.162201     75.165546   0.000000   0.000000
   30       75.162218     75.165564   0.000000   0.000000
   31       81.031430     81.034544   0.000000   0.000000
   32       83.470805     83.472011   0.000000   0.000000
   33       83.470805     83.472011   0.000000   0.000000
   34       87.556756     87.556722   0.000000   0.000000
   35       87.556761     87.556726   0.000000   0.000000
   36       87.556761     87.556726   0.000000   0.000000
   37       90.338545     90.345629   0.000000   0.000000
   38       90.338546     90.345637   0.000000   0.000000
   39       90.338546     90.345637   0.000000   0.000000
   40       91.163267     91.172577   0.000000   0.000000

  0.9090909E-01  0.1262062E-14  0.1262062E-14  0.6010518E-02
    1       -2.927824     -2.925794   1.000000   1.000000
    2       17.638060     17.640026   0.000000   0.000000
    3       19.920060     19.922079   0.000000   0.000000
    4       19.920063     19.922082   0.000000   0.000000
    5       22.680259     22.684488   0.000000   0.000000
    6       22.994460     22.999490   0.000000   0.000000
    7       22.994467     22.999498   0.000000   0.000000
    8       26.257196     26.259820   0.000000   0.000000
    9       26.257197     26.259821   0.000000   0.000000
   10       26.489715     26.490940   0.000000   0.000000
   11       29.409844     29.414649   0.000000   0.000000
   12       33.613336     33.616205   0.000000   0.000000
   13       34.104839     34.106647   0.000000   0.000000
   14       34.104843     34.106651   0.000000   0.000000
   15       42.011224     42.015822   0.000000   0.000000
   16       56.833460     56.836244   0.000000   0.000000
   17       56.833463     56.836247   0.000000   0.000000
   18       58.284692     58.288233   0.000000   0.000000
   19       59.300015     59.305643   0.000000   0.000000
   20       61.760256     61.760881   0.000000   0.000000
   21       61.760260     61.760884   0.000000   0.000000
   22       63.495445     63.500741   0.000000   0.000000
   23       63.495447     63.500744   0.000000   0.000000
   24       64.710938     64.716222   0.000000   0.000000
   25       65.370001     65.373923   0.000000   0.000000
   26       69.361848     69.364544   0.000000   0.000000
   27       69.361856     69.364552   0.000000   0.000000
   28       73.138325     73.141445   0.000000   0.000000
   29       74.638854     74.642221   0.000000   0.000000
   30       74.638863     74.642230   0.000000   0.000000
   31       82.334487     82.336434   0.000000   0.000000
   32       82.334491     82.336438   0.000000   0.000000
   33       82.654351     82.657316   0.000000   0.000000
   34       84.650371     84.655025   0.000000   0.000000
   35       86.117780     86.117978   0.000000   0.000000
   36       86.117781     86.117978   0.000000   0.000000
   37       88.147534     88.149613   0.000000   0.000000
   38       88.147534     88.149615   0.000000   0.000000
   39       89.084200     89.085141   0.000000   0.000000
   40       90.324629     90.332069   0.000000   0.000000

  0.1818182E+00  0.1266963E-14  0.1266963E-14  0.6010518E-02
    1       -2.258420     -2.256390   1.000000   1.000000
    2       13.980002     13.982028   0.000000   0.000000
    3       19.176929     19.179478   0.000000   0.000000
    4       19.176933     19.179482   0.000000   0.000000
    5       22.447371     22.451116   0.000000   0.000000
    6       23.828239     23.832586   0.000000   0.000000
    7       23.828243     23.832590   0.000000   0.000000
    8       25.347642     25.350189   0.000000   0.000000
    9       25.347647     25.350195   0.000000   0.000000
   10       27.896747     27.900792   0.000000   0.000000
   11       30.001760     30.003674   0.000000   0.000000
   12       36.445754     36.449666   0.000000   0.000000
   13       37.272024     37.274241   0.000000   0.000000
   14       37.272026     37.274244   0.000000   0.000000
   15       44.232866     44.237035   0.000000   0.000000
   16       51.930534     51.932783   0.000000   0.000000
   17       51.930538     51.932786   0.000000   0.000000
   18       55.111821     55.115285   0.000000   0.000000
   19       59.087729     59.093286   0.000000   0.000000
   20       61.938875     61.939905   0.000000   0.000000
   21       61.938879     61.939908   0.000000   0.000000
   22       63.217535     63.223066   0.000000   0.000000
   23       63.217539     63.223071   0.000000   0.000000
   24       63.891326     63.897749   0.000000   0.000000
   25       65.961301     65.965411   0.000000   0.000000
   26       69.120159     69.121970   0.000000   0.000000
   27       72.006556     72.010242   0.000000   0.000000
   28       72.006560     72.010246   0.000000   0.000000
   29       74.478177     74.479969   0.000000   0.000000
   30       74.478185     74.479977   0.000000   0.000000
   31       79.058990     79.064147   0.000000   0.000000
   32       79.375194     79.377321   0.000000   0.000000
   33       79.375198     79.377323   0.000000   0.000000
   34       82.992037     82.991498   0.000000   0.000000
   35       82.992041     82.991502   0.000000   0.000000
   36       84.883374     84.884082   0.000000   0.000000
   37       85.744933     85.745644   0.000000   0.000000
   38       87.072715     87.073750   0.000000   0.000000
   39       87.072722     87.073755   0.000000   0.000000
   40       87.964145     87.967250   0.000000   0.000000

  0.2727273E+00  0.1237835E-14  0.1237835E-14  0.6010518E-02
    1       -1.149668     -1.147639   1.000000   1.000000
    2       10.552791     10.554832  -0.016296  -0.016184
    3       18.765544     18.768291   0.000000   0.000000
    4       18.765548     18.768295   0.000000   0.000000
    5       22.237544     22.241116   0.000000   0.000000
    6       22.282712     22.285842   0.000000   0.000000
    7       22.282714     22.285844   0.000000   0.000000
    8       26.255331     26.259134   0.000000   0.000000
    9       27.396669     27.400263   0.000000   0.000000
   10       27.396675     27.400269   0.000000   0.000000
   11       33.334481     33.337179   0.000000   0.000000
   12       40.550677     40.555058   0.000000   0.000000
   13       40.900656     40.903338   0.000000   0.000000
   14       40.900659     40.903341   0.000000   0.000000
   15       47.156711     47.160420   0.000000   0.000000
   16       47.485247     47.487007   0.000000   0.000000
   17       47.485251     47.487010   0.000000   0.000000
   18       52.552027     52.554746   0.000000   0.000000
   19       59.152652     59.158427   0.000000   0.000000
   20       62.387994     62.389564   0.000000   0.000000
   21       62.387997     62.389566   0.000000   0.000000
   22       62.758838     62.764121   0.000000   0.000000
   23       63.468351     63.473886   0.000000   0.000000
   24       63.468356     63.473891   0.000000   0.000000
   25       66.906530     66.911037   0.000000   0.000000
   26       67.467907     67.471819   0.000000   0.000000
   27       68.050773     68.053530   0.000000   0.000000
   28       68.050775     68.053531   0.000000   0.000000
   29       75.443870     75.445169   0.000000   0.000000
   30       75.443881     75.445180   0.000000   0.000000
   31       75.862399     75.867689   0.000000   0.000000
   32       78.438150     78.438307   0.000000   0.000000
   33       79.417152     79.416491   0.000000   0.000000
   34       79.417154     79.416495   0.000000   0.000000
   35       80.294208     80.296387   0.000000   0.000000
   36       80.294217     80.296394   0.000000   0.000000
   37       81.237222     81.237489   0.000000   0.000000
   38       88.579949     88.581139   0.000000   0.000000
   39       88.579960     88.581149   0.000000   0.000000
   40       88.921581     88.926300   0.000000   0.000000

  0.3636364E+00  0.1236297E-14  0.1236297E-14  0.6010518E-02
    1        0.388587      0.390611   1.000000   1.000000
    2        7.449144      7.451197   0.711930   0.711073
    3       18.719531     18.722398   0.000000   0.000000
    4       18.719534     18.722402   0.000000   0.000000
    5       20.847084     20.849956   0.000000   0.000000
    6       20.847086     20.849959   0.000000   0.000000
    7       22.309752     22.313214   0.000000   0.000000
    8       24.770874     24.774597   0.000000   0.000000
    9       29.930812     29.934832   0.000000   0.000000
   10       29.930818     29.934839   0.000000   0.000000
   11       36.461804     36.465490   0.000000   0.000000
   12       41.953618     41.956121   0.000000   0.000000
   13       41.953623     41.956126   0.000000   0.000000
   14       45.140772     45.145603   0.000000   0.000000
   15       46.512478     46.514255   0.000000   0.000000
   16       46.512479     46.514256   0.000000   0.000000
   17       48.508303     48.511272   0.000000   0.000000
   18       52.076562     52.078618   0.000000   0.000000
   19       59.129466     59.135252   0.000000   0.000000
   20       59.589737     59.593899   0.000000   0.000000
   21       61.163934     61.167306   0.000000   0.000000
   22       61.163936     61.167309   0.000000   0.000000
   23       63.294941     63.300487   0.000000   0.000000
   24       63.294949     63.300495   0.000000   0.000000
   25       64.600354     64.600879   0.000000   0.000000
   26       64.600361     64.600884   0.000000   0.000000
   27       66.599881     66.606108   0.000000   0.000000
   28       68.080598     68.085851   0.000000   0.000000
   29       69.829892     69.831749   0.000000   0.000000
   30       74.292298     74.293187   0.000000   0.000000
   31       74.292303     74.293191   0.000000   0.000000
   32       76.777019     76.779901   0.000000   0.000000
   33       77.053937     77.054096   0.000000   0.000000
   34       77.053939     77.054096   0.000000   0.000000
   35       78.261328     78.260820   0.000000   0.000000
   36       81.572571     81.573396   0.000000   0.000000
   37       81.572585     81.573409   0.000000   0.000000
   38       88.717795     88.722722   0.000000   0.000000
   39       89.304498     89.306188   0.000000   0.000000
   40       89.304502     89.306192   0.000000   0.000000

  0.4545455E+00  0.1248969E-14  0.1248969E-14  0.6010518E-02
    1        2.341844      2.343833   1.000000   1.000000
    2        4.709294      4.711383   1.000000   1.000000
    3       19.048355     19.051464   0.000000   0.000000
    4       19.048359     19.051469   0.000000   0.000000
    5       19.767424     19.770022   0.000000   0.000000
    6       19.767426     19.770024   0.000000   0.000000
    7       22.746401     22.749648   0.000000   0.000000
    8       23.586772     23.590634   0.000000   0.000000
    9       32.276968     32.281832   0.000000   0.000000
   10       32.276976     32.281840   0.000000   0.000000
   11       39.025192     39.030267   0.000000   0.000000
   12       39.252141     39.253362   0.000000   0.000000
   13       39.252144     39.253366   0.000000   0.000000
   14       45.890919     45.892398   0.000000   0.000000
   15       49.924551     49.930001   0.000000   0.000000
   16       50.447582     50.450305   0.000000   0.000000
   17       50.447583     50.450306   0.000000   0.000000
   18       56.164779     56.168043   0.000000   0.000000
   19       56.320688     56.323492   0.000000   0.000000
   20       56.843930     56.846497   0.000000   0.000000
   21       56.843931     56.846498   0.000000   0.000000
   22       59.384005     59.389324   0.000000   0.000000
   23       62.774912     62.776644   0.000000   0.000000
   24       63.578934     63.585089   0.000000   0.000000
   25       63.578943     63.585098   0.000000   0.000000
   26       64.513444     64.513542   0.000000   0.000000
   27       64.513449     64.513547   0.000000   0.000000
   28       67.402867     67.409386   0.000000   0.000000
   29       69.089892     69.096226   0.000000   0.000000
   30       73.754626     73.755236   0.000000   0.000000
   31       73.754627     73.755236   0.000000   0.000000
   32       75.577896     75.578456   0.000000   0.000000
   33       75.577898     75.578456   0.000000   0.000000
   34       76.351189     76.349587   0.000000   0.000000
   35       77.508688     77.511919   0.000000   0.000000
   36       82.103493     82.103880   0.000000   0.000000
   37       82.103511     82.103898   0.000000   0.000000
   38       88.787556     88.792858   0.000000   0.000000
   39       89.047975     89.049572   0.000000   0.000000
   40       89.047979     89.049576   0.000000   0.000000

  0.9090909E-01  0.9090909E-01  0.1262379E-14  0.4507889E-02
    1       -2.853276     -2.851247   1.000000   1.000000
    2       18.650635     18.653068   0.000000   0.000000
    3       18.650638     18.653071   0.000000   0.000000
    4       18.962916     18.963417   0.000000   0.000000
    5       21.326104     21.332411   0.000000   0.000000
    6       24.330255     24.332796   0.000000   0.000000
    7       24.362367     24.367007   0.000000   0.000000
    8       24.362372     24.367013   0.000000   0.000000
    9       26.598344     26.598934   0.000000   0.000000
   10       27.661947     27.665184   0.000000   0.000000
   11       30.607403     30.613013   0.000000   0.000000
   12       32.864924     32.866119   0.000000   0.000000
   13       32.864927     32.866122   0.000000   0.000000
   14       35.596345     35.599297   0.000000   0.000000
   15       42.450262     42.454693   0.000000   0.000000
   16       56.562666     56.565991   0.000000   0.000000
   17       56.562670     56.565995   0.000000   0.000000
   18       57.997776     57.998600   0.000000   0.000000
   19       59.074997     59.080653   0.000000   0.000000
   20       59.733934     59.737021   0.000000   0.000000
   21       61.656095     61.657462   0.000000   0.000000
   22       63.752419     63.757728   0.000000   0.000000
   23       63.752427     63.757737   0.000000   0.000000
   24       65.342637     65.345919   0.000000   0.000000
   25       67.994967     67.998856   0.000000   0.000000
   26       67.994970     67.998857   0.000000   0.000000
   27       70.649683     70.651569   0.000000   0.000000
   28       71.894397     71.898319   0.000000   0.000000
   29       75.113458     75.116011   0.000000   0.000000
   30       75.113467     75.116020   0.000000   0.000000
   31       80.967105     80.969685   0.000000   0.000000
   32       82.930936     82.932466   0.000000   0.000000
   33       82.930936     82.933973   0.000000   0.000000
   34       82.931131     82.933974   0.000000   0.000000
   35       83.664149     83.668155   0.000000   0.000000
   36       85.089014     85.091550   0.000000   0.000000
   37       88.851760     88.848637   0.000000   0.000000
   38       90.230509     90.232769   0.000000   0.000000
   39       90.230546     90.232843   0.000000   0.000000
   40       90.491773     90.493295   0.000000   0.000000

  0.1818182E+00  0.9090909E-01  0.1261396E-14  0.1803156E-01
    1       -2.332606     -2.330576   1.000000   1.000000
    2       15.308708     15.310639   0.000000   0.000000
    3       17.718574     17.721147   0.000000   0.000000
    4       19.070167     19.072156   0.000000   0.000000
    5       21.670719     21.676638   0.000000   0.000000
    6       22.308266     22.310214   0.000000   0.000000
    7       24.741460     24.745214   0.000000   0.000000
    8       25.771116     25.776123   0.000000   0.000000
    9       27.128212     27.130746   0.000000   0.000000
   10       29.526089     29.528414   0.000000   0.000000
   11       29.965061     29.968365   0.000000   0.000000
   12       34.753026     34.754563   0.000000   0.000000
   13       35.051554     35.054309   0.000000   0.000000
   14       37.916956     37.920496   0.000000   0.000000
   15       44.512369     44.516336   0.000000   0.000000
   16       52.001572     52.003773   0.000000   0.000000
   17       53.312391     53.315352   0.000000   0.000000
   18       57.735593     57.737434   0.000000   0.000000
   19       58.043155     58.046839   0.000000   0.000000
   20       58.857742     58.862538   0.000000   0.000000
   21       61.096786     61.098797   0.000000   0.000000
   22       63.765960     63.771444   0.000000   0.000000
   23       64.543817     64.549271   0.000000   0.000000
   24       65.777341     65.781656   0.000000   0.000000
   25       68.278527     68.282245   0.000000   0.000000
   26       68.992378     68.996099   0.000000   0.000000
   27       71.901410     71.904389   0.000000   0.000000
   28       73.375212     73.377447   0.000000   0.000000
   29       73.708371     73.710707   0.000000   0.000000
   30       75.242379     75.243236   0.000000   0.000000
   31       77.505468     77.508406   0.000000   0.000000
   32       78.601342     78.604874   0.000000   0.000000
   33       81.193538     81.196930   0.000000   0.000000
   34       82.178586     82.180473   0.000000   0.000000
   35       82.900673     82.902002   0.000000   0.000000
   36       84.287655     84.288596   0.000000   0.000000
   37       86.435198     86.436660   0.000000   0.000000
   38       86.676427     86.678742   0.000000   0.000000
   39       89.303830     89.304782   0.000000   0.000000
   40       89.577921     89.578603   0.000000   0.000000

  0.2727273E+00  0.9090909E-01  0.1266963E-14  0.1803156E-01
    1       -1.370725     -1.368696   1.000000   1.000000
    2       11.825777     11.827773   0.000000   0.000000
    3       17.158119     17.160761   0.000000   0.000000
    4       18.723681     18.726238   0.000000   0.000000
    5       20.028644     20.031824   0.000000   0.000000
    6       23.807088     23.811814   0.000000   0.000000
    7       24.679485     24.682326   0.000000   0.000000
    8       24.792717     24.796321   0.000000   0.000000
    9       28.269681     28.273100   0.000000   0.000000
   10       28.576479     28.580217   0.000000   0.000000
   11       33.080313     33.082777   0.000000   0.000000
   12       38.121454     38.123465   0.000000   0.000000
   13       39.050452     39.053929   0.000000   0.000000
   14       40.934228     40.938058   0.000000   0.000000
   15       47.220605     47.222331   0.000000   0.000000
   16       47.453423     47.456983   0.000000   0.000000
   17       49.225052     49.227370   0.000000   0.000000
   18       54.843639     54.846739   0.000000   0.000000
   19       58.336234     58.338275   0.000000   0.000000
   20       58.541894     58.547041   0.000000   0.000000
   21       61.251026     61.253847   0.000000   0.000000
   22       62.860570     62.865748   0.000000   0.000000
   23       63.370340     63.376175   0.000000   0.000000
   24       65.179090     65.183060   0.000000   0.000000
   25       66.297733     66.302395   0.000000   0.000000
   26       69.078907     69.081876   0.000000   0.000000
   27       69.227056     69.231037   0.000000   0.000000
   28       71.808233     71.809155   0.000000   0.000000
   29       72.416260     72.417285   0.000000   0.000000
   30       73.972359     73.975588   0.000000   0.000000
   31       77.521526     77.524244   0.000000   0.000000
   32       77.907435     77.907377   0.000000   0.000000
   33       78.757622     78.760432   0.000000   0.000000
   34       80.813202     80.814867   0.000000   0.000000
   35       81.203639     81.205204   0.000000   0.000000
   36       81.752293     81.752979   0.000000   0.000000
   37       83.040906     83.042181   0.000000   0.000000
   38       86.991946     86.992738   0.000000   0.000000
   39       87.030916     87.033798   0.000000   0.000000
   40       87.279312     87.280690   0.000000   0.000000

  0.3636364E+00  0.9090909E-01  0.1237502E-14  0.1803156E-01
    1        0.023802      0.025826   1.000000   1.000000
    2        8.623481      8.625511   0.197621   0.196722
    3       16.978450     16.981145   0.000000   0.000000
    4       18.384967     18.386878   0.000000   0.000000
    5       18.626214     18.630057   0.000000   0.000000
    6       23.327254     23.330478   0.000000   0.000000
    7       24.412846     24.417189   0.000000   0.000000
    8       26.062190     26.065514   0.000000   0.000000
    9       27.248955     27.252125   0.000000   0.000000
   10       30.897914     30.902239   0.000000   0.000000
   11       36.304071     36.307460   0.000000   0.000000
   12       40.919094     40.921423   0.000000   0.000000
   13       43.297770     43.301346   0.000000   0.000000
   14       43.801929     43.806525   0.000000   0.000000
   15       44.273558     44.274822   0.000000   0.000000
   16       46.472402     46.473908   0.000000   0.000000
   17       50.012775     50.016184   0.000000   0.000000
   18       52.837366     52.839609   0.000000   0.000000
   19       58.729563     58.734921   0.000000   0.000000
   20       59.100443     59.102799   0.000000   0.000000
   21       59.657012     59.660804   0.000000   0.000000
   22       61.560366     61.563597   0.000000   0.000000
   23       63.400364     63.406215   0.000000   0.000000
   24       63.578378     63.581722   0.000000   0.000000
   25       65.455746     65.459887   0.000000   0.000000
   26       66.594933     66.597987   0.000000   0.000000
   27       66.835675     66.841175   0.000000   0.000000
   28       70.627108     70.627487   0.000000   0.000000
   29       70.929274     70.930102   0.000000   0.000000
   30       71.720666     71.724512   0.000000   0.000000
   31       72.663988     72.665995   0.000000   0.000000
   32       76.582795     76.582959   0.000000   0.000000
   33       77.350057     77.351184   0.000000   0.000000
   34       78.901717     78.902294   0.000000   0.000000
   35       81.474525     81.475099   0.000000   0.000000
   36       81.823173     81.825023   0.000000   0.000000
   37       83.754535     83.758072   0.000000   0.000000
   38       84.732258     84.732295   0.000000   0.000000
   39       87.454081     87.456239   0.000000   0.000000
   40       88.818369     88.820393   0.000000   0.000000

  0.4545455E+00  0.9090909E-01  0.1249509E-14  0.1803156E-01
    1        1.838189      1.840193   1.000000   1.000000
    2        5.766085      5.768146   1.044805   1.045074
    3       17.154243     17.156862   0.000000   0.000000
    4       17.178819     17.181570   0.000000   0.000000
    5       18.847290     18.850444   0.000000   0.000000
    6       22.144167     22.147212   0.000000   0.000000
    7       24.669003     24.673971   0.000000   0.000000
    8       25.348361     25.350624   0.000000   0.000000
    9       29.512274     29.516209   0.000000   0.000000
   10       32.799909     32.805105   0.000000   0.000000
   11       39.132359     39.136921   0.000000   0.000000
   12       39.174144     39.175071   0.000000   0.000000
   13       40.714930     40.717103   0.000000   0.000000
   14       47.260404     47.263620   0.000000   0.000000
   15       47.539719     47.541967   0.000000   0.000000
   16       49.008494     49.012569   0.000000   0.000000
   17       49.944190     49.946767   0.000000   0.000000
   18       54.899793     54.902312   0.000000   0.000000
   19       56.624431     56.627314   0.000000   0.000000
   20       58.345905     58.349287   0.000000   0.000000
   21       58.932457     58.935658   0.000000   0.000000
   22       59.011079     59.016316   0.000000   0.000000
   23       61.593513     61.596202   0.000000   0.000000
   24       62.507283     62.510397   0.000000   0.000000
   25       64.411275     64.416191   0.000000   0.000000
   26       65.294796     65.298208   0.000000   0.000000
   27       65.824330     65.828336   0.000000   0.000000
   28       66.961470     66.964456   0.000000   0.000000
   29       69.183168     69.183385   0.000000   0.000000
   30       70.807508     70.809585   0.000000   0.000000
   31       72.296490     72.300921   0.000000   0.000000
   32       75.122609     75.122567   0.000000   0.000000
   33       76.380521     76.382151   0.000000   0.000000
   34       78.894814     78.894909   0.000000   0.000000
   35       81.489496     81.491357   0.000000   0.000000
   36       81.631717     81.631769   0.000000   0.000000
   37       82.859185     82.859059   0.000000   0.000000
   38       84.115080     84.118810   0.000000   0.000000
   39       89.027274     89.028776   0.000000   0.000000
   40       89.126117     89.128126   0.000000   0.000000

 -0.4545455E+00  0.9090909E-01  0.1210714E-14  0.1803156E-01
    1        3.265113      3.266989   1.000000   1.000000
    2        4.077712      4.079901   1.000000   1.000000
    3       16.294894     16.297544   0.000000   0.000000
    4       17.761360     17.764202   0.000000   0.000000
    5       19.476680     19.479832   0.000000   0.000000
    6       21.319482     21.322370   0.000000   0.000000
    7       24.282476     24.286748   0.000000   0.000000
    8       25.491692     25.494604   0.000000   0.000000
    9       31.796316     31.801317   0.000000   0.000000
   10       31.964675     31.969330   0.000000   0.000000
   11       38.055606     38.056758   0.000000   0.000000
   12       39.817626     39.819092   0.000000   0.000000
   13       40.569002     40.574362   0.000000   0.000000
   14       46.474632     46.475748   0.000000   0.000000
   15       49.603895     49.607047   0.000000   0.000000
   16       51.014203     51.019611   0.000000   0.000000
   17       51.580984     51.584187   0.000000   0.000000
   18       55.171265     55.174131   0.000000   0.000000
   19       55.874366     55.876722   0.000000   0.000000
   20       56.468739     56.471310   0.000000   0.000000
   21       58.589694     58.594198   0.000000   0.000000
   22       59.417082     59.420530   0.000000   0.000000
   23       61.001640     61.003504   0.000000   0.000000
   24       61.770310     61.772958   0.000000   0.000000
   25       63.206019     63.208585   0.000000   0.000000
   26       65.044266     65.050037   0.000000   0.000000
   27       66.196914     66.200176   0.000000   0.000000
   28       66.503282     66.507372   0.000000   0.000000
   29       68.900690     68.900540   0.000000   0.000000
   30       70.912494     70.915671   0.000000   0.000000
   31       72.511782     72.516587   0.000000   0.000000
   32       74.750987     74.750842   0.000000   0.000000
   33       76.552746     76.554362   0.000000   0.000000
   34       79.023249     79.023337   0.000000   0.000000
   35       81.590602     81.591010   0.000000   0.000000
   36       81.626209     81.628052   0.000000   0.000000
   37       82.234199     82.233707   0.000000   0.000000
   38       83.878628     83.882200   0.000000   0.000000
   39       89.228574     89.230776   0.000000   0.000000
   40       89.354305     89.355791   0.000000   0.000000

 -0.3636364E+00  0.9090909E-01  0.1222720E-14  0.1803156E-01
    1        1.187786      1.189801   1.000000   1.000000
    2        6.676034      6.678078   1.010074   1.009527
    3       15.828443     15.831099   0.000000   0.000000
    4       18.721214     18.724249   0.000000   0.000000
    5       20.485736     20.488919   0.000000   0.000000
    6       20.866703     20.869346   0.000000   0.000000
    7       23.744698     23.748586   0.000000   0.000000
    8       26.434922     26.438352   0.000000   0.000000
    9       29.274166     29.278055   0.000000   0.000000
   10       31.362733     31.367350   0.000000   0.000000
   11       38.143382     38.146983   0.000000   0.000000
   12       39.372871     39.374938   0.000000   0.000000
   13       42.862592     42.865109   0.000000   0.000000
   14       45.345811     45.348117   0.000000   0.000000
   15       46.703714     46.707776   0.000000   0.000000
   16       48.904097     48.906987   0.000000   0.000000
   17       49.545505     49.548084   0.000000   0.000000
   18       54.130994     54.133277   0.000000   0.000000
   19       57.825283     57.829269   0.000000   0.000000