<?xml version="1.0" encoding="ISO-8859-1"?>
<modeling>
 <generator>
  <i name="program" type="string">vasp </i>
  <i name="version" type="string">6.2.1  </i>
  <i name="subversion" type="string">16May21 (build Aug 15 2022 14:47:30) complex                          parallel </i>
  <i name="platform" type="string">LinuxGNU </i>
  <i name="date" type="string">2025 12 11 </i>
  <i name="time" type="string">14:03:20 </i>
 </generator>
 <incar>
  <i type="string" name="PREC">Accurate</i>
  <i type="string" name="ALGO">N</i>
  <i type="int" name="ISPIN">     2</i>
  <i type="int" name="NELM">   100</i>
  <i name="EDIFF">      0.00005000</i>
  <i type="int" name="NSW">     0</i>
  <i name="ENCUT">    300.00000000</i>
  <i type="logical" name="LREAL"> F  </i>
  <i type="int" name="ISMEAR">    -5</i>
  <i type="logical" name="LWAVE"> F  </i>
  <i type="logical" name="LCHARG"> T  </i>
  <i type="int" name="LORBIT">    11</i>
  <i type="logical" name="LASPH"> T  </i>
 </incar>
 <primitive_cell>
  <structure name="primitive_cell" >
   <crystal>
    <varray name="basis" >
     <v>       0.00000000       2.02400000       2.02400000 </v>
     <v>       2.02400000       0.00000000       2.02400000 </v>
     <v>       2.02400000       2.02400000       0.00000000 </v>
    </varray>
    <i name="volume">     16.58293965 </i>
    <varray name="rec_basis" >
     <v>      -0.24703557       0.24703557       0.24703557 </v>
     <v>       0.24703557      -0.24703557       0.24703557 </v>
     <v>       0.24703557       0.24703557      -0.24703557 </v>
    </varray>
   </crystal>
   <varray name="positions" >
    <v>       0.00000000       0.00000000       0.00000000 </v>
   </varray>
  </structure>
  <varray name="primitive_index" >
   <v type="int" >        1 </v>
  </varray>
 </primitive_cell>
 <kpoints>
  <generation param="Gamma">
   <v type="int" name="divisions">      11       11       11 </v>
   <v name="usershift">      0.00000000       0.00000000       0.00000000 </v>
   <v name="genvec1">      0.09090909       0.00000000       0.00000000 </v>
   <v name="genvec2">      0.00000000       0.09090909       0.00000000 </v>
   <v name="genvec3">      0.00000000       0.00000000       0.09090909 </v>
   <v name="shift">      0.00000000       0.00000000       0.00000000 </v>
  </generation>
  <varray name="kpointlist" >
   <v>       0.00000000       0.00000000       0.00000000 </v>
   <v>       0.09090909       0.00000000       0.00000000 </v>
   <v>       0.18181818       0.00000000       0.00000000 </v>
   <v>       0.27272727       0.00000000       0.00000000 </v>
   <v>       0.36363636       0.00000000       0.00000000 </v>
   <v>       0.45454545       0.00000000       0.00000000 </v>
   <v>       0.09090909       0.09090909       0.00000000 </v>
   <v>       0.18181818       0.09090909       0.00000000 </v>
   <v>       0.27272727       0.09090909       0.00000000 </v>
   <v>       0.36363636       0.09090909       0.00000000 </v>
   <v>       0.45454545       0.09090909       0.00000000 </v>
   <v>      -0.45454545       0.09090909       0.00000000 </v>
   <v>      -0.36363636       0.09090909       0.00000000 </v>
   <v>      -0.27272727       0.09090909       0.00000000 </v>
   <v>      -0.18181818       0.09090909       0.00000000 </v>
   <v>      -0.09090909       0.09090909       0.00000000 </v>
   <v>       0.18181818       0.18181818       0.00000000 </v>
   <v>       0.27272727       0.18181818       0.00000000 </v>
   <v>       0.36363636       0.18181818       0.00000000 </v>
   <v>       0.45454545       0.18181818       0.00000000 </v>
   <v>      -0.45454545       0.18181818       0.00000000 </v>
   <v>      -0.36363636       0.18181818       0.00000000 </v>
   <v>      -0.27272727       0.18181818       0.00000000 </v>
   <v>      -0.18181818       0.18181818       0.00000000 </v>
   <v>       0.27272727       0.27272727       0.00000000 </v>
   <v>       0.36363636       0.27272727       0.00000000 </v>
   <v>       0.45454545       0.27272727       0.00000000 </v>
   <v>      -0.45454545       0.27272727       0.00000000 </v>
   <v>      -0.36363636       0.27272727       0.00000000 </v>
   <v>      -0.27272727       0.27272727       0.00000000 </v>
   <v>       0.36363636       0.36363636       0.00000000 </v>
   <v>       0.45454545       0.36363636       0.00000000 </v>
   <v>      -0.45454545       0.36363636       0.00000000 </v>
   <v>      -0.36363636       0.36363636       0.00000000 </v>
   <v>       0.45454545       0.45454545       0.00000000 </v>
   <v>      -0.45454545       0.45454545       0.00000000 </v>
   <v>       0.27272727       0.18181818       0.09090909 </v>
   <v>       0.36363636       0.18181818       0.09090909 </v>
   <v>       0.45454545       0.18181818       0.09090909 </v>
   <v>      -0.45454545       0.18181818       0.09090909 </v>
   <v>       0.36363636       0.27272727       0.09090909 </v>
   <v>       0.45454545       0.27272727       0.09090909 </v>
   <v>      -0.45454545       0.27272727       0.09090909 </v>
   <v>      -0.36363636       0.27272727       0.09090909 </v>
   <v>      -0.27272727       0.27272727       0.09090909 </v>
   <v>      -0.18181818       0.27272727       0.09090909 </v>
   <v>       0.45454545       0.36363636       0.09090909 </v>
   <v>      -0.45454545       0.36363636       0.09090909 </v>
   <v>      -0.36363636       0.36363636       0.09090909 </v>
   <v>      -0.27272727       0.36363636       0.09090909 </v>
   <v>      -0.45454545       0.45454545       0.09090909 </v>
   <v>      -0.36363636       0.45454545       0.09090909 </v>
   <v>      -0.45454545       0.36363636       0.18181818 </v>
   <v>      -0.36363636       0.36363636       0.18181818 </v>
   <v>      -0.36363636       0.45454545       0.18181818 </v>
   <v>      -0.27272727       0.45454545       0.18181818 </v>
  </varray>
  <varray name="weights" >
   <v>       0.00075131 </v>
   <v>       0.00601052 </v>
   <v>       0.00601052 </v>
   <v>       0.00601052 </v>
   <v>       0.00601052 </v>
   <v>       0.00601052 </v>
   <v>       0.00450789 </v>
   <v>       0.01803156 </v>
   <v>       0.01803156 </v>
   <v>       0.01803156 </v>
   <v>       0.01803156 </v>
   <v>       0.01803156 </v>
   <v>       0.01803156 </v>
   <v>       0.01803156 </v>
   <v>       0.01803156 </v>
   <v>       0.00901578 </v>
   <v>       0.00450789 </v>
   <v>       0.01803156 </v>
   <v>       0.01803156 </v>
   <v>       0.01803156 </v>
   <v>       0.01803156 </v>
   <v>       0.01803156 </v>
   <v>       0.01803156 </v>
   <v>       0.00901578 </v>
   <v>       0.00450789 </v>
   <v>       0.01803156 </v>
   <v>       0.01803156 </v>
   <v>       0.01803156 </v>
   <v>       0.01803156 </v>
   <v>       0.00901578 </v>
   <v>       0.00450789 </v>
   <v>       0.01803156 </v>
   <v>       0.01803156 </v>
   <v>       0.00901578 </v>
   <v>       0.00450789 </v>
   <v>       0.00901578 </v>
   <v>       0.01803156 </v>
   <v>       0.03606311 </v>
   <v>       0.03606311 </v>
   <v>       0.03606311 </v>
   <v>       0.01803156 </v>
   <v>       0.03606311 </v>
   <v>       0.03606311 </v>
   <v>       0.03606311 </v>
   <v>       0.03606311 </v>
   <v>       0.01803156 </v>
   <v>       0.01803156 </v>
   <v>       0.03606311 </v>
   <v>       0.03606311 </v>
   <v>       0.01803156 </v>
   <v>       0.01803156 </v>
   <v>       0.01803156 </v>
   <v>       0.01803156 </v>
   <v>       0.03606311 </v>
   <v>       0.01803156 </v>
   <v>       0.01803156 </v>
  </varray>
  <varray name="tetrahedronlist"  type="int" >
   <v type="int" >       24        1        2        2        7 </v>
   <v type="int" >       48        2        7        8       16 </v>
   <v type="int" >       48        2        3        8       16 </v>
   <v type="int" >       24        2        2        7       16 </v>
   <v type="int" >       48        3        8        9       15 </v>
   <v type="int" >       48        3        4        9       15 </v>
   <v type="int" >       48        3        8       15       16 </v>
   <v type="int" >       48        4        9       10       14 </v>
   <v type="int" >       48        4        5       10       14 </v>
   <v type="int" >       48        4        9       14       15 </v>
   <v type="int" >       48        5       10       11       13 </v>
   <v type="int" >       48        5        6       11       13 </v>
   <v type="int" >       48        5       10       13       14 </v>
   <v type="int" >       48        6       11       12       12 </v>
   <v type="int" >       24        6        6       12       12 </v>
   <v type="int" >       48        6       11       12       13 </v>
   <v type="int" >       24        7        8        8       17 </v>
   <v type="int" >       24        7        8        8       16 </v>
   <v type="int" >       48        8       17       18       37 </v>
   <v type="int" >       48        8        9       18       37 </v>
   <v type="int" >       48        8        9       15       37 </v>
   <v type="int" >       24        8        8       17       37 </v>
   <v type="int" >       24        8        8       16       37 </v>
   <v type="int" >       48        8       15       16       37 </v>
   <v type="int" >       48        9       18       19       38 </v>
   <v type="int" >       48        9       10       19       38 </v>
   <v type="int" >       48        9       10       14       38 </v>
   <v type="int" >       48        9       18       37       38 </v>
   <v type="int" >       48        9       15       37       38 </v>
   <v type="int" >       48        9       14       15       38 </v>
   <v type="int" >       48       10       19       20       39 </v>
   <v type="int" >       48       10       11       20       39 </v>
   <v type="int" >       48       10       11       13       39 </v>
   <v type="int" >       48       10       19       38       39 </v>
   <v type="int" >       48       10       14       38       39 </v>
   <v type="int" >       48       10       13       14       39 </v>
   <v type="int" >       48       11       20       21       40 </v>
   <v type="int" >       48       11       12       21       40 </v>
   <v type="int" >       48       11       12       12       40 </v>
   <v type="int" >       48       11       20       39       40 </v>
   <v type="int" >       48       11       13       39       40 </v>
   <v type="int" >       48       11       12       13       40 </v>
   <v type="int" >       48       12       21       22       40 </v>
   <v type="int" >       48       12       13       22       40 </v>
   <v type="int" >       48       12       21       40       40 </v>
   <v type="int" >       24       12       12       40       40 </v>
   <v type="int" >       48       13       22       23       39 </v>
   <v type="int" >       48       13       14       23       39 </v>
   <v type="int" >       48       13       22       39       40 </v>
   <v type="int" >       48       14       23       24       38 </v>
   <v type="int" >       48       14       15       24       38 </v>
   <v type="int" >       48       14       23       38       39 </v>
   <v type="int" >       24       15       15       24       37 </v>
   <v type="int" >       24       15       15       16       37 </v>
   <v type="int" >       48       15       24       37       38 </v>
   <v type="int" >       24       17       18       18       25 </v>
   <v type="int" >       24       17       18       18       37 </v>
   <v type="int" >       48       18       25       26       41 </v>
   <v type="int" >       48       18       19       26       41 </v>
   <v type="int" >       48       18       19       38       41 </v>
   <v type="int" >       24       18       18       25       41 </v>
   <v type="int" >       24       18       18       37       41 </v>
   <v type="int" >       48       18       37       38       41 </v>
   <v type="int" >       48       19       26       27       42 </v>
   <v type="int" >       48       19       20       27       42 </v>
   <v type="int" >       48       19       20       39       42 </v>
   <v type="int" >       48       19       26       41       42 </v>
   <v type="int" >       48       19       38       41       42 </v>
   <v type="int" >       48       19       38       39       42 </v>
   <v type="int" >       48       20       27       28       43 </v>
   <v type="int" >       48       20       21       28       43 </v>
   <v type="int" >       48       20       21       40       43 </v>
   <v type="int" >       48       20       27       42       43 </v>
   <v type="int" >       48       20       39       42       43 </v>
   <v type="int" >       48       20       39       40       43 </v>
   <v type="int" >       48       21       28       29       44 </v>
   <v type="int" >       48       21       22       29       44 </v>
   <v type="int" >       48       21       22       40       44 </v>
   <v type="int" >       48       21       28       43       44 </v>
   <v type="int" >       48       21       40       43       44 </v>
   <v type="int" >       48       21       40       40       44 </v>
   <v type="int" >       48       22       29       30       45 </v>
   <v type="int" >       48       22       23       30       45 </v>
   <v type="int" >       48       22       23       39       45 </v>
   <v type="int" >       48       22       29       44       45 </v>
   <v type="int" >       48       22       40       44       45 </v>
   <v type="int" >       48       22       39       40       45 </v>
   <v type="int" >       24       23       23       30       46 </v>
   <v type="int" >       24       23       23       24       46 </v>
   <v type="int" >       48       23       24       38       46 </v>
   <v type="int" >       48       23       30       45       46 </v>
   <v type="int" >       48       23       39       45       46 </v>
   <v type="int" >       48       23       38       39       46 </v>
   <v type="int" >       24       24       38       38       46 </v>
   <v type="int" >       24       24       37       38       38 </v>
   <v type="int" >       24       25       26       26       31 </v>
   <v type="int" >       24       25       26       26       41 </v>
   <v type="int" >       48       26       31       32       47 </v>
   <v type="int" >       48       26       27       32       47 </v>
   <v type="int" >       48       26       27       42       47 </v>
   <v type="int" >       24       26       26       31       47 </v>
   <v type="int" >       24       26       26       41       47 </v>
   <v type="int" >       48       26       41       42       47 </v>
   <v type="int" >       48       27       32       33       48 </v>
   <v type="int" >       48       27       28       33       48 </v>
   <v type="int" >       48       27       28       43       48 </v>
   <v type="int" >       48       27       32       47       48 </v>
   <v type="int" >       48       27       42       47       48 </v>
   <v type="int" >       48       27       42       43       48 </v>
   <v type="int" >       48       28       33       34       49 </v>
   <v type="int" >       48       28       29       34       49 </v>
   <v type="int" >       48       28       29       44       49 </v>
   <v type="int" >       48       28       33       48       49 </v>
   <v type="int" >       48       28       43       48       49 </v>
   <v type="int" >       48       28       43       44       49 </v>
   <v type="int" >       24       29       29       34       50 </v>
   <v type="int" >       24       29       29       30       50 </v>
   <v type="int" >       48       29       30       45       50 </v>
   <v type="int" >       48       29       34       49       50 </v>
   <v type="int" >       48       29       44       49       50 </v>
   <v type="int" >       48       29       44       45       50 </v>
   <v type="int" >       24       30       45       45       50 </v>
   <v type="int" >       24       30       45       45       46 </v>
   <v type="int" >       24       31       32       32       35 </v>
   <v type="int" >       24       31       32       32       47 </v>
   <v type="int" >       48       32       35       36       51 </v>
   <v type="int" >       48       32       33       36       51 </v>
   <v type="int" >       48       32       33       48       51 </v>
   <v type="int" >       24       32       32       35       51 </v>
   <v type="int" >       24       32       32       47       51 </v>
   <v type="int" >       48       32       47       48       51 </v>
   <v type="int" >       24       33       33       36       52 </v>
   <v type="int" >       24       33       33       34       52 </v>
   <v type="int" >       48       33       34       49       52 </v>
   <v type="int" >       48       33       36       51       52 </v>
   <v type="int" >       48       33       48       51       52 </v>
   <v type="int" >       48       33       48       49       52 </v>
   <v type="int" >       24       34       49       49       52 </v>
   <v type="int" >       24       34       49       49       50 </v>
   <v type="int" >       12       35       35       36       36 </v>
   <v type="int" >       24       35       36       36       51 </v>
   <v type="int" >       12       36       36       51       51 </v>
   <v type="int" >       24       36       51       51       52 </v>
   <v type="int" >       24       37       38       38       41 </v>
   <v type="int" >       48       38       41       42       46 </v>
   <v type="int" >       48       38       39       42       46 </v>
   <v type="int" >       24       38       38       41       46 </v>
   <v type="int" >       48       39       42       43       45 </v>
   <v type="int" >       48       39       40       43       45 </v>
   <v type="int" >       48       39       42       45       46 </v>
   <v type="int" >       48       40       43       44       44 </v>
   <v type="int" >       24       40       40       44       44 </v>
   <v type="int" >       48       40       43       44       45 </v>
   <v type="int" >       24       41       42       42       47 </v>
   <v type="int" >       24       41       42       42       46 </v>
   <v type="int" >       48       42       47       48       53 </v>
   <v type="int" >       48       42       43       48       53 </v>
   <v type="int" >       48       42       43       45       53 </v>
   <v type="int" >       24       42       42       47       53 </v>
   <v type="int" >       24       42       42       46       53 </v>
   <v type="int" >       48       42       45       46       53 </v>
   <v type="int" >       48       43       48       49       54 </v>
   <v type="int" >       48       43       44       49       54 </v>
   <v type="int" >       48       43       44       44       54 </v>
   <v type="int" >       48       43       48       53       54 </v>
   <v type="int" >       48       43       45       53       54 </v>
   <v type="int" >       48       43       44       45       54 </v>
   <v type="int" >       48       44       49       50       54 </v>
   <v type="int" >       48       44       45       50       54 </v>
   <v type="int" >       48       44       49       54       54 </v>
   <v type="int" >       24       44       44       54       54 </v>
   <v type="int" >       24       45       45       50       53 </v>
   <v type="int" >       24       45       45       46       53 </v>
   <v type="int" >       48       45       50       53       54 </v>
   <v type="int" >       24       47       48       48       51 </v>
   <v type="int" >       24       47       48       48       53 </v>
   <v type="int" >       48       48       51       52       55 </v>
   <v type="int" >       48       48       49       52       55 </v>
   <v type="int" >       48       48       49       54       55 </v>
   <v type="int" >       24       48       48       51       55 </v>
   <v type="int" >       24       48       48       53       55 </v>
   <v type="int" >       48       48       53       54       55 </v>
   <v type="int" >       24       49       49       52       56 </v>
   <v type="int" >       24       49       49       50       56 </v>
   <v type="int" >       48       49       50       54       56 </v>
   <v type="int" >       48       49       52       55       56 </v>
   <v type="int" >       48       49       54       55       56 </v>
   <v type="int" >       48       49       54       54       56 </v>
   <v type="int" >       24       50       54       54       56 </v>
   <v type="int" >       24       50       53       54       54 </v>
   <v type="int" >       12       51       51       52       52 </v>
   <v type="int" >       24       51       52       52       55 </v>
   <v type="int" >       12       52       52       55       55 </v>
   <v type="int" >       24       52       55       55       56 </v>
   <v type="int" >       24       53       54       54       55 </v>
   <v type="int" >       48       54       55       56       56 </v>
   <v type="int" >       24       54       54       56       56 </v>
   <v type="int" >       24       54       54       55       56 </v>
   <v type="int" >       12       55       55       56       56 </v>
   <v type="int" >       24       55       56       56       56 </v>
   <v type="int" >        6       56       56       56       56 </v>
  </varray>
  <i name="volumeweight">      0.00012522 </i>
 </kpoints>
 <parameters>
  <separator name="general" >
   <i type="string" name="SYSTEM">unknown system</i>
   <i type="logical" name="LCOMPAT"> F  </i>
  </separator>
  <separator name="electronic" >
   <i type="string" name="PREC">accura</i>
   <i name="ENMAX">    300.00000000</i>
   <i name="ENAUG">    291.05200000</i>
   <i name="EDIFF">      0.00005000</i>
   <i type="int" name="IALGO">    38</i>
   <i type="int" name="IWAVPR">    10</i>
   <i type="int" name="NBANDS">    40</i>
   <i type="int" name="NBANDSLOW">    -1</i>
   <i type="int" name="NBANDSHIGH">    -1</i>
   <i name="NELECT">      3.00000000</i>
   <i type="int" name="TURBO">     0</i>
   <i type="int" name="IRESTART">     0</i>
   <i type="int" name="NREBOOT">     0</i>
   <i type="int" name="NMIN">     0</i>
   <i name="EREF">      0.00000000</i>
   <separator name="electronic smearing" >
    <i type="int" name="ISMEAR">    -5</i>
    <i name="SIGMA">      0.20000000</i>
    <i name="KSPACING">      0.50000000</i>
    <i type="logical" name="KGAMMA"> T  </i>
    <i type="logical" name="KBLOWUP"> T  </i>
   </separator>
   <separator name="electronic projectors" >
    <i type="logical" name="LREAL"> F  </i>
    <v name="ROPT">      0.00000000</v>
    <i type="int" name="LMAXPAW">  -100</i>
    <i type="int" name="LMAXMIX">     2</i>
    <i type="logical" name="NLSPLINE"> F  </i>
   </separator>
   <separator name="electronic startup" >
    <i type="int" name="ISTART">     0</i>
    <i type="int" name="ICHARG">     2</i>
    <i type="int" name="INIWAV">     1</i>
   </separator>
   <separator name="electronic spin" >
    <i type="int" name="ISPIN">     2</i>
    <i type="logical" name="LNONCOLLINEAR"> F  </i>
    <v name="MAGMOM">      1.00000000</v>
    <i name="NUPDOWN">     -1.00000000</i>
    <i type="logical" name="LSORBIT"> F  </i>
    <v name="SAXIS">      0.00000000      0.00000000      1.00000000</v>
    <i type="logical" name="LSPIRAL"> F  </i>
    <v name="QSPIRAL">      0.00000000      0.00000000      0.00000000</v>
    <i type="logical" name="LZEROZ"> F  </i>
   </separator>
   <separator name="electronic exchange-correlation" >
    <i type="logical" name="LASPH"> T  </i>
    <i type="logical" name="LMETAGGA"> F  </i>
   </separator>
   <separator name="electronic convergence" >
    <i type="int" name="NELM">   100</i>
    <i type="int" name="NELMDL">     0</i>
    <i type="int" name="NELMIN">     2</i>
    <i name="ENINI">    300.00000000</i>
    <separator name="electronic convergence detail" >
     <i type="logical" name="LDIAG"> T  </i>
     <i type="logical" name="LSUBROT"> F  </i>
     <i name="WEIMIN">      0.00000000</i>
     <i name="EBREAK">      0.00000031</i>
     <i name="DEPER">      0.30000000</i>
     <i type="int" name="NRMM">     4</i>
     <i name="TIME">      0.40000000</i>
    </separator>
   </separator>
   <separator name="electronic mixer" >
    <i name="AMIX">      0.40000000</i>
    <i name="BMIX">      1.00000000</i>
    <i name="AMIN">      0.10000000</i>
    <i name="AMIX_MAG">      1.60000000</i>
    <i name="BMIX_MAG">      1.00000000</i>
    <separator name="electronic mixer details" >
     <i type="int" name="IMIX">     4</i>
     <i type="logical" name="MIXFIRST"> F  </i>
     <i type="int" name="MAXMIX">   -45</i>
     <i name="WC">    100.00000000</i>
     <i type="int" name="INIMIX">     1</i>
     <i type="int" name="MIXPRE">     1</i>
     <i type="int" name="MREMOVE">     5</i>
    </separator>
   </separator>
   <separator name="electronic dipolcorrection" >
    <i type="logical" name="LDIPOL"> F  </i>
    <i type="logical" name="LMONO"> F  </i>
    <i type="int" name="IDIPOL">     0</i>
    <i name="EPSILON">      1.00000000</i>
    <v name="DIPOL">   -100.00000000   -100.00000000   -100.00000000</v>
    <i name="EFIELD">      0.00000000</i>
   </separator>
  </separator>
  <separator name="grids" >
   <i type="int" name="NGX">    16</i>
   <i type="int" name="NGY">    16</i>
   <i type="int" name="NGZ">    16</i>
   <i type="int" name="NGXF">    32</i>
   <i type="int" name="NGYF">    32</i>
   <i type="int" name="NGZF">    32</i>
   <i type="logical" name="ADDGRID"> F  </i>
  </separator>
  <separator name="ionic" >
   <i type="int" name="NSW">     0</i>
   <i type="int" name="IBRION">    -1</i>
   <i type="int" name="MDALGO">     0</i>
   <i type="int" name="ISIF">     2</i>
   <i name="PSTRESS">      0.00000000</i>
   <i name="EDIFFG">      0.00050000</i>
   <i type="int" name="NFREE">     0</i>
   <i name="POTIM">      0.50000000</i>
   <i name="SMASS">     -3.00000000</i>
   <i name="SCALEE">      1.00000000</i>
  </separator>
  <separator name="ionic md" >
   <i name="TEBEG">      0.00010000</i>
   <i name="TEEND">      0.00010000</i>
   <i type="int" name="NBLOCK">     1</i>
   <i type="int" name="KBLOCK">     1</i>
   <i type="int" name="NPACO">   256</i>
   <i name="APACO">     16.00000000</i>
  </separator>
  <separator name="symmetry" >
   <i type="int" name="ISYM">     2</i>
   <i name="SYMPREC">      0.00001000</i>
  </separator>
  <separator name="dos" >
   <i type="int" name="LORBIT">    11</i>
   <v name="RWIGS">     -1.00000000</v>
   <i type="int" name="NEDOS">   301</i>
   <i name="EMIN">     10.00000000</i>
   <i name="EMAX">    -10.00000000</i>
   <i name="EFERMI">      0.00000000</i>
  </separator>
  <separator name="writing" >
   <i type="int" name="NWRITE">     2</i>
   <i type="logical" name="LWAVE"> F  </i>
   <i type="logical" name="LDOWNSAMPLE"> F  </i>
   <i type="logical" name="LCHARG"> T  </i>
   <i type="logical" name="LPARD"> F  </i>
   <i type="logical" name="LVTOT"> F  </i>
   <i type="logical" name="LVHAR"> F  </i>
   <i type="logical" name="LELF"> F  </i>
   <i type="logical" name="LOPTICS"> F  </i>
   <v name="STM">      0.00000000      0.00000000      0.00000000      0.00000000      0.00000000      0.00000000      0.00000000</v>
  </separator>
  <separator name="performance" >
   <i type="int" name="NPAR">    40</i>
   <i type="int" name="NSIM">     4</i>
   <i type="int" name="NBLK">    -1</i>
   <i type="logical" name="LPLANE"> T  </i>
   <i type="logical" name="LSCALAPACK"> T  </i>
   <i type="logical" name="LSCAAWARE"> T  </i>
   <i type="logical" name="LSCALU"> F  </i>
   <i type="logical" name="LASYNC"> F  </i>
   <i type="logical" name="LORBITALREAL"> F  </i>
  </separator>
  <separator name="miscellaneous" >
   <i type="int" name="IDIOT">     3</i>
   <i type="int" name="PHON_NSTRUCT">    -1</i>
   <i type="logical" name="LMUSIC"> F  </i>
   <v name="POMASS">     26.98100000</v>
   <v name="DARWINR">      0.00000000</v>
   <v name="DARWINV">      1.00000000</v>
   <i type="logical" name="LCORR"> T  </i>
  </separator>
  <i type="logical" name="GGA_COMPAT"> T  </i>
  <i type="logical" name="LBERRY"> F  </i>
  <i type="int" name="ICORELEVEL">     0</i>
  <i type="logical" name="LDAU"> F  </i>
  <i type="int" name="I_CONSTRAINED_M">     0</i>
  <separator name="electronic exchange-correlation" >
   <i type="string" name="GGA">--</i>
   <i type="int" name="VOSKOWN">     0</i>
   <i type="logical" name="LHFCALC"> F  </i>
   <i type="string" name="PRECFOCK"></i>
   <i type="logical" name="LSYMGRAD"> F  </i>
   <i type="logical" name="LHFONE"> F  </i>
   <i type="logical" name="LRHFCALC"> F  </i>
   <i type="logical" name="LTHOMAS"> F  </i>
   <i type="logical" name="LMODELHF"> F  </i>
   <i type="logical" name="LFOCKACE"> F  </i>
   <i name="ENCUT4O">     -1.00000000</i>
   <i type="int" name="EXXOEP">     0</i>
   <i type="int" name="FOURORBIT">     0</i>
   <i name="AEXX">      0.00000000</i>
   <i name="HFALPHA">      0.00000000</i>
   <i name="MCALPHA">      0.00000000</i>
   <i name="ALDAX">      1.00000000</i>
   <i name="AGGAX">      1.00000000</i>
   <i name="ALDAC">      1.00000000</i>
   <i name="AGGAC">      1.00000000</i>
   <i type="int" name="NKREDX">     1</i>
   <i type="int" name="NKREDY">     1</i>
   <i type="int" name="NKREDZ">     1</i>
   <i type="logical" name="SHIFTRED"> F  </i>
   <i type="logical" name="ODDONLY"> F  </i>
   <i type="logical" name="EVENONLY"> F  </i>
   <i type="int" name="LMAXFOCK">     0</i>
   <i type="int" name="NMAXFOCKAE">     0</i>
   <i type="logical" name="LFOCKAEDFT"> F  </i>
   <i name="HFSCREEN">      0.00000000</i>
   <i name="HFSCREENC">      0.00000000</i>
   <i type="int" name="NBANDSGWLOW">     0</i>
  </separator>
  <separator name="vdW DFT" >
   <i type="logical" name="LUSE_VDW"> F  </i>
   <i name="Zab_VDW">     -0.84910000</i>
   <i name="PARAM1">      0.12340000</i>
   <i name="PARAM2">      1.00000000</i>
   <i name="PARAM3">      0.00000000</i>
  </separator>
  <separator name="model GW" >
   <i type="int" name="MODEL_GW">     0</i>
   <i name="MODEL_EPS0">      9.94976379</i>
   <i name="MODEL_ALPHA">      1.00000000</i>
  </separator>
  <separator name="linear response parameters" >
   <i type="logical" name="LEPSILON"> F  </i>
   <i type="logical" name="LRPA"> F  </i>
   <i type="logical" name="LNABLA"> F  </i>
   <i type="logical" name="LVEL"> F  </i>
   <i type="int" name="KINTER">     0</i>
   <i name="CSHIFT">      0.10000000</i>
   <i name="OMEGAMAX">     -1.00000000</i>
   <i name="DEG_THRESHOLD">      0.00200000</i>
   <i name="RTIME">     -0.10000000</i>
   <i name="WPLASMAI">      0.00000000</i>
   <v name="DFIELD">      0.00000000      0.00000000      0.00000000</v>
   <v name="WPLASMA">      0.00000000      0.00000000      0.00000000      0.00000000      0.00000000      0.00000000      0.00000000      0.00000000      0.00000000</v>
  </separator>
  <separator name="orbital magnetization" >
   <i type="logical" name="NUCIND"> F  </i>
   <v name="MAGPOS">      0.00000000      0.00000000      0.00000000</v>
   <i type="logical" name="LNICSALL"> T  </i>
   <i type="logical" name="ORBITALMAG"> F  </i>
   <i type="logical" name="LMAGBLOCH"> F  </i>
   <i type="logical" name="LCHIMAG"> F  </i>
   <i type="logical" name="LGAUGE"> T  </i>
   <i type="int" name="MAGATOM">     0</i>
   <v name="MAGDIPOL">      0.00000000      0.00000000      0.00000000</v>
   <v name="AVECCONST">      0.00000000      0.00000000      0.00000000</v>
  </separator>
  <separator name="response functions" >
   <i type="logical" name="LFINITE_TEMPERATURE"> F  </i>
   <i type="logical" name="LADDER"> F  </i>
   <i type="logical" name="LRPAFORCE"> F  </i>
   <i type="logical" name="LFXC"> F  </i>
   <i type="logical" name="LHARTREE"> T  </i>
   <i type="int" name="IBSE">     0</i>
   <v type="int" name="KPOINT">    -1     0     0     0</v>
   <i type="logical" name="LTCTC"> F  </i>
   <i type="logical" name="LTCTE"> F  </i>
   <i type="logical" name="LTETE"> F  </i>
   <i type="logical" name="LTRIPLET"> F  </i>
   <i type="logical" name="LFXCEPS"> F  </i>
   <i type="logical" name="LFXHEG"> F  </i>
   <i type="int" name="NATURALO">     2</i>
   <i type="logical" name="LHOLEGF"> F  </i>
   <i type="logical" name="L2ORDER"> F  </i>
   <i type="logical" name="LDMP1"> F  </i>
   <i type="logical" name="LMP2LT"> F  </i>
   <i type="logical" name="LSMP2LT"> F  </i>
   <i type="logical" name="LGWLF"> F  </i>
   <i name="ENCUTGW">     -2.00000000</i>
   <i name="ENCUTGWSOFT">     -2.00000000</i>
   <i name="ENCUTLF">     -1.00000000</i>
   <i type="logical" name="LESF_SPLINES"> F  </i>
   <i type="int" name="LMAXMP2">    -1</i>
   <i name="SCISSOR">      0.00000000</i>
   <i type="int" name="NOMEGA">     0</i>
   <i type="int" name="NOMEGAR">     0</i>
   <i type="int" name="NBANDSGW">    -1</i>
   <i type="int" name="NBANDSO">    -1</i>
   <i type="int" name="NBANDSV">    -1</i>
   <i type="int" name="NELM">   100</i>
   <i type="int" name="NELMHF">     1</i>
   <i type="int" name="DIM">     3</i>
   <i type="int" name="IESPILON">     4</i>
   <i type="int" name="ANTIRES">     0</i>
   <i name="OMEGAMAX">    -30.00000000</i>
   <i name="OMEGAMIN">    -30.00000000</i>
   <i name="OMEGATL">   -200.00000000</i>
   <i type="int" name="OMEGAGRID">     0</i>
   <i name="CSHIFT">     -0.10000000</i>
   <i type="logical" name="LSELFENERGY"> F  </i>
   <i type="logical" name="LSPECTRAL"> F  </i>
   <i type="logical" name="LSPECTRALGW"> F  </i>
   <i type="logical" name="LSINGLES"> F  </i>
   <i type="logical" name="LFERMIGW"> F  </i>
   <i type="logical" name="ODDONLYGW"> F  </i>
   <i type="logical" name="EVENONLYGW"> F  </i>
   <i type="int" name="NKREDLFX">     1</i>
   <i type="int" name="NKREDLFY">     1</i>
   <i type="int" name="NKREDLFZ">     1</i>
   <i type="int" name="MAXMEM">  2800</i>
   <i type="int" name="TELESCOPE">     0</i>
   <i type="int" name="NTAUPAR">    -1</i>
   <i type="int" name="NOMEGAPAR">    -1</i>
   <i name="DAMP_NEWTON">      0.80000001</i>
   <i name="LAMBDA">      1.00000000</i>
  </separator>
  <separator name="External order field" >
   <i name="OFIELD_KAPPA">      0.00000000</i>
   <v name="OFIELD_K">      0.00000000      0.00000000      0.00000000</v>
   <i name="OFIELD_Q6_NEAR">      0.00000000</i>
   <i name="OFIELD_Q6_FAR">      0.00000000</i>
   <i name="OFIELD_A">      0.00000000</i>
  </separator>
 </parameters>
 <atominfo>
  <atoms>       1 </atoms>
  <types>       1 </types>
  <array name="atoms" >
   <dimension dim="1">ion</dimension>
   <field type="string">element</field>
   <field type="int">atomtype</field>
   <set>
    <rc><c>Al</c><c>   1</c></rc>
   </set>
  </array>
  <array name="atomtypes" >
   <dimension dim="1">type</dimension>
   <field type="int">atomspertype</field>
   <field type="string">element</field>
   <field>mass</field>
   <field>valence</field>
   <field type="string">pseudopotential</field>
   <set>
    <rc><c>   1</c><c>Al</c><c>     26.98100000</c><c>      3.00000000</c><c>  PAW_PBE Al 04Jan2001                  </c></rc>
   </set>
  </array>
 </atominfo>
 <structure name="initialpos" >
  <crystal>
   <varray name="basis" >
    <v>       0.00000000       2.02400000       2.02400000 </v>
    <v>       2.02400000       0.00000000       2.02400000 </v>
    <v>       2.02400000       2.02400000       0.00000000 </v>
   </varray>
   <i name="volume">     16.58293965 </i>
   <varray name="rec_basis" >
    <v>      -0.24703557       0.24703557       0.24703557 </v>
    <v>       0.24703557      -0.24703557       0.24703557 </v>
    <v>       0.24703557       0.24703557      -0.24703557 </v>
   </varray>
  </crystal>
  <varray name="positions" >
   <v>       0.00000000       0.00000000       0.00000000 </v>
  </varray>
 </structure>
 <calculation>
  <scstep>
   <time name="dav">   14.43   14.46</time>
   <time name="total">   14.76   14.79</time>
   <energy>
    <i name="alphaZ">     -0.20254611 </i>
    <i name="ewald">    -73.39295237 </i>
    <i name="hartreedc">     -0.10329695 </i>
    <i name="XCdc">    -26.09911360 </i>
    <i name="pawpsdc">     66.09387665 </i>
    <i name="pawaedc">    -34.14163118 </i>
    <i name="eentropy">      0.00000000 </i>
    <i name="bandstr">     10.79070024 </i>
    <i name="atom">     53.53762400 </i>
    <i name="e_fr_energy">     -3.51733932 </i>
    <i name="e_wo_entrp">     -3.51733932 </i>
    <i name="e_0_energy">     -3.51733932 </i>
   </energy>
  </scstep>
  <scstep>
   <time name="dav">    9.69    9.70</time>
   <time name="total">    9.73    9.74</time>
   <energy>
    <i name="e_fr_energy">     -3.52531577 </i>
    <i name="e_wo_entrp">     -3.52531577 </i>
    <i name="e_0_energy">     -3.52531577 </i>
   </energy>
  </scstep>
  <scstep>
   <time name="dav">   18.29   18.72</time>
   <time name="total">   18.33   18.76</time>
   <energy>
    <i name="e_fr_energy">     -3.52531589 </i>
    <i name="e_wo_entrp">     -3.52531589 </i>
    <i name="e_0_energy">     -3.52531589 </i>
   </energy>
  </scstep>
  <scstep>
   <time name="dav">    7.66    8.13</time>
   <time name="total">    7.70    8.17</time>
   <energy>
    <i name="e_fr_energy">     -3.52531589 </i>
    <i name="e_wo_entrp">     -3.52531589 </i>
    <i name="e_0_energy">     -3.52531589 </i>
   </energy>
  </scstep>
  <scstep>
   <time name="dav">   17.55   18.37</time>
   <time name="total">   17.60   18.43</time>
   <energy>
    <i name="e_fr_energy">     -3.52531589 </i>
    <i name="e_wo_entrp">     -3.52531589 </i>
    <i name="e_0_energy">     -3.52531589 </i>
   </energy>
  </scstep>
  <scstep>
   <time name="dav">   14.57   15.12</time>
   <time name="total">   14.91   15.46</time>
   <energy>
    <i name="e_fr_energy">     -3.74958277 </i>
    <i name="e_wo_entrp">     -3.74958277 </i>
    <i name="e_0_energy">     -3.74958277 </i>
   </energy>
  </scstep>
  <scstep>
   <time name="dav">   16.04   16.20</time>
   <time name="total">   17.24   17.39</time>
   <energy>
    <i name="e_fr_energy">     -3.74376047 </i>
    <i name="e_wo_entrp">     -3.74376047 </i>
    <i name="e_0_energy">     -3.74376047 </i>
   </energy>
  </scstep>
  <scstep>
   <time name="dav">   11.05   11.35</time>
   <time name="total">   11.31   11.62</time>
   <energy>
    <i name="e_fr_energy">     -3.74221928 </i>
    <i name="e_wo_entrp">     -3.74221928 </i>
    <i name="e_0_energy">     -3.74221928 </i>
   </energy>
  </scstep>
  <scstep>
   <time name="dav">   18.37   18.42</time>
   <time name="total">   18.64   18.69</time>
   <energy>
    <i name="e_fr_energy">     -3.74204317 </i>
    <i name="e_wo_entrp">     -3.74204317 </i>
    <i name="e_0_energy">     -3.74204317 </i>
   </energy>
  </scstep>
  <scstep>
   <time name="dav">   17.59   17.66</time>
   <time name="total">   17.85   17.91</time>
   <energy>
    <i name="alphaZ">     -0.20254611 </i>
    <i name="ewald">    -73.39295237 </i>
    <i name="hartreedc">     -0.10608691 </i>
    <i name="XCdc">    -26.14079625 </i>
    <i name="pawpsdc">    152.19595011 </i>
    <i name="pawaedc">   -120.25312779 </i>
    <i name="eentropy">      0.00000000 </i>
    <i name="bandstr">     10.61988511 </i>
    <i name="atom">     53.53762400 </i>
    <i name="e_fr_energy">     -3.74205021 </i>
    <i name="e_wo_entrp">     -3.74205021 </i>
    <i name="e_0_energy">     -3.74205021 </i>
   </energy>
  </scstep>
  <structure>
   <crystal>
    <varray name="basis" >
     <v>       0.00000000       2.02400000       2.02400000 </v>
     <v>       2.02400000       0.00000000       2.02400000 </v>
     <v>       2.02400000       2.02400000       0.00000000 </v>
    </varray>
    <i name="volume">     16.58293965 </i>
    <varray name="rec_basis" >
     <v>      -0.24703557       0.24703557       0.24703557 </v>
     <v>       0.24703557      -0.24703557       0.24703557 </v>
     <v>       0.24703557       0.24703557      -0.24703557 </v>
    </varray>
   </crystal>
   <varray name="positions" >
    <v>       0.00000000       0.00000000       0.00000000 </v>
   </varray>
  </structure>
  <varray name="forces" >
   <v>      -0.00000000       0.00000000       0.00000000 </v>
  </varray>
  <varray name="stress" >
   <v>      -9.40471401       0.00000000       0.00000000 </v>
   <v>      -0.00000000      -9.40471401       0.00000000 </v>
   <v>       0.00000000       0.00000000      -9.40471401 </v>
  </varray>
  <energy>
   <i name="e_fr_energy">     -3.74205021 </i>
   <i name="e_wo_entrp">     -3.74205021 </i>
   <i name="e_0_energy">     -3.74205021 </i>
  </energy>
  <time name="totalsc">  148.66  151.55</time>
  <eigenvalues>
   <array>
    <dimension dim="1">band</dimension>
    <dimension dim="2">kpoint</dimension>
    <dimension dim="3">spin</dimension>
    <field>eigene</field>
    <field>occ</field>
    <set>
     <set comment="spin 1">
      <set comment="kpoint 1">
       <r>   -3.1517    1.0000 </r>
       <r>   20.5806    0.0000 </r>
       <r>   20.5806    0.0000 </r>
       <r>   20.5806    0.0000 </r>
       <r>   21.9923    0.0000 </r>
       <r>   21.9923    0.0000 </r>
       <r>   21.9923    0.0000 </r>
       <r>   24.3839    0.0000 </r>
       <r>   27.3816    0.0000 </r>
       <r>   27.3816    0.0000 </r>
       <r>   30.1602    0.0000 </r>
       <r>   32.5188    0.0000 </r>
       <r>   32.5188    0.0000 </r>
       <r>   32.5188    0.0000 </r>
       <r>   41.1287    0.0000 </r>
       <r>   59.1450    0.0000 </r>
       <r>   59.5322    0.0000 </r>
       <r>   59.5322    0.0000 </r>
       <r>   59.5322    0.0000 </r>
       <r>   63.0444    0.0000 </r>
       <r>   63.0444    0.0000 </r>
       <r>   63.1964    0.0000 </r>
       <r>   63.1964    0.0000 </r>
       <r>   63.1964    0.0000 </r>
       <r>   65.1686    0.0000 </r>
       <r>   65.1686    0.0000 </r>
       <r>   65.1686    0.0000 </r>
       <r>   75.1622    0.0000 </r>
       <r>   75.1622    0.0000 </r>
       <r>   75.1622    0.0000 </r>
       <r>   81.0314    0.0000 </r>
       <r>   83.4708    0.0000 </r>
       <r>   83.4708    0.0000 </r>
       <r>   87.5568    0.0000 </r>
       <r>   87.5568    0.0000 </r>
       <r>   87.5568    0.0000 </r>
       <r>   90.3385    0.0000 </r>
       <r>   90.3385    0.0000 </r>
       <r>   90.3385    0.0000 </r>
       <r>   91.1633    0.0000 </r>
      </set>
      <set comment="kpoint 2">
       <r>   -2.9278    1.0000 </r>
       <r>   17.6381    0.0000 </r>
       <r>   19.9201    0.0000 </r>
       <r>   19.9201    0.0000 </r>
       <r>   22.6803    0.0000 </r>
       <r>   22.9945    0.0000 </r>
       <r>   22.9945    0.0000 </r>
       <r>   26.2572    0.0000 </r>
       <r>   26.2572    0.0000 </r>
       <r>   26.4897    0.0000 </r>
       <r>   29.4098    0.0000 </r>
       <r>   33.6133    0.0000 </r>
       <r>   34.1048    0.0000 </r>
       <r>   34.1048    0.0000 </r>
       <r>   42.0112    0.0000 </r>
       <r>   56.8335    0.0000 </r>
       <r>   56.8335    0.0000 </r>
       <r>   58.2847    0.0000 </r>
       <r>   59.3000    0.0000 </r>
       <r>   61.7603    0.0000 </r>
       <r>   61.7603    0.0000 </r>
       <r>   63.4954    0.0000 </r>
       <r>   63.4954    0.0000 </r>
       <r>   64.7109    0.0000 </r>
       <r>   65.3700    0.0000 </r>
       <r>   69.3618    0.0000 </r>
       <r>   69.3619    0.0000 </r>
       <r>   73.1383    0.0000 </r>
       <r>   74.6389    0.0000 </r>
       <r>   74.6389    0.0000 </r>
       <r>   82.3345    0.0000 </r>
       <r>   82.3345    0.0000 </r>
       <r>   82.6544    0.0000 </r>
       <r>   84.6504    0.0000 </r>
       <r>   86.1178    0.0000 </r>
       <r>   86.1178    0.0000 </r>
       <r>   88.1475    0.0000 </r>
       <r>   88.1475    0.0000 </r>
       <r>   89.0842    0.0000 </r>
       <r>   90.3246    0.0000 </r>
      </set>
      <set comment="kpoint 3">
       <r>   -2.2584    1.0000 </r>
       <r>   13.9800    0.0000 </r>
       <r>   19.1769    0.0000 </r>
       <r>   19.1769    0.0000 </r>
       <r>   22.4474    0.0000 </r>
       <r>   23.8282    0.0000 </r>
       <r>   23.8282    0.0000 </r>
       <r>   25.3476    0.0000 </r>
       <r>   25.3476    0.0000 </r>
       <r>   27.8967    0.0000 </r>
       <r>   30.0018    0.0000 </r>
       <r>   36.4458    0.0000 </r>
       <r>   37.2720    0.0000 </r>
       <r>   37.2720    0.0000 </r>
       <r>   44.2329    0.0000 </r>
       <r>   51.9305    0.0000 </r>
       <r>   51.9305    0.0000 </r>
       <r>   55.1118    0.0000 </r>
       <r>   59.0877    0.0000 </r>
       <r>   61.9389    0.0000 </r>
       <r>   61.9389    0.0000 </r>
       <r>   63.2175    0.0000 </r>
       <r>   63.2175    0.0000 </r>
       <r>   63.8913    0.0000 </r>
       <r>   65.9613    0.0000 </r>
       <r>   69.1202    0.0000 </r>
       <r>   72.0066    0.0000 </r>
       <r>   72.0066    0.0000 </r>
       <r>   74.4782    0.0000 </r>
       <r>   74.4782    0.0000 </r>
       <r>   79.0590    0.0000 </r>
       <r>   79.3752    0.0000 </r>
       <r>   79.3752    0.0000 </r>
       <r>   82.9920    0.0000 </r>
       <r>   82.9920    0.0000 </r>
       <r>   84.8834    0.0000 </r>
       <r>   85.7449    0.0000 </r>
       <r>   87.0727    0.0000 </r>
       <r>   87.0727    0.0000 </r>
       <r>   87.9641    0.0000 </r>
      </set>
      <set comment="kpoint 4">
       <r>   -1.1497    1.0000 </r>
       <r>   10.5528   -0.0163 </r>
       <r>   18.7655    0.0000 </r>
       <r>   18.7655    0.0000 </r>
       <r>   22.2375    0.0000 </r>
       <r>   22.2827    0.0000 </r>
       <r>   22.2827    0.0000 </r>
       <r>   26.2553    0.0000 </r>
       <r>   27.3967    0.0000 </r>
       <r>   27.3967    0.0000 </r>
       <r>   33.3345    0.0000 </r>
       <r>   40.5507    0.0000 </r>
       <r>   40.9007    0.0000 </r>
       <r>   40.9007    0.0000 </r>
       <r>   47.1567    0.0000 </r>
       <r>   47.4852    0.0000 </r>
       <r>   47.4853    0.0000 </r>
       <r>   52.5520    0.0000 </r>
       <r>   59.1527    0.0000 </r>
       <r>   62.3880    0.0000 </r>
       <r>   62.3880    0.0000 </r>
       <r>   62.7588    0.0000 </r>
       <r>   63.4684    0.0000 </r>
       <r>   63.4684    0.0000 </r>
       <r>   66.9065    0.0000 </r>
       <r>   67.4679    0.0000 </r>
       <r>   68.0508    0.0000 </r>
       <r>   68.0508    0.0000 </r>
       <r>   75.4439    0.0000 </r>
       <r>   75.4439    0.0000 </r>
       <r>   75.8624    0.0000 </r>
       <r>   78.4381    0.0000 </r>
       <r>   79.4172    0.0000 </r>
       <r>   79.4172    0.0000 </r>
       <r>   80.2942    0.0000 </r>
       <r>   80.2942    0.0000 </r>
       <r>   81.2372    0.0000 </r>
       <r>   88.5799    0.0000 </r>
       <r>   88.5800    0.0000 </r>
       <r>   88.9216    0.0000 </r>
      </set>
      <set comment="kpoint 5">
       <r>    0.3886    1.0000 </r>
       <r>    7.4491    0.7119 </r>
       <r>   18.7195    0.0000 </r>
       <r>   18.7195    0.0000 </r>
       <r>   20.8471    0.0000 </r>
       <r>   20.8471    0.0000 </r>
       <r>   22.3098    0.0000 </r>
       <r>   24.7709    0.0000 </r>
       <r>   29.9308    0.0000 </r>
       <r>   29.9308    0.0000 </r>
       <r>   36.4618    0.0000 </r>
       <r>   41.9536    0.0000 </r>
       <r>   41.9536    0.0000 </r>
       <r>   45.1408    0.0000 </r>
       <r>   46.5125    0.0000 </r>
       <r>   46.5125    0.0000 </r>
       <r>   48.5083    0.0000 </r>
       <r>   52.0766    0.0000 </r>
       <r>   59.1295    0.0000 </r>
       <r>   59.5897    0.0000 </r>
       <r>   61.1639    0.0000 </r>
       <r>   61.1639    0.0000 </r>
       <r>   63.2949    0.0000 </r>
       <r>   63.2949    0.0000 </r>
       <r>   64.6004    0.0000 </r>
       <r>   64.6004    0.0000 </r>
       <r>   66.5999    0.0000 </r>
       <r>   68.0806    0.0000 </r>
       <r>   69.8299    0.0000 </r>
       <r>   74.2923    0.0000 </r>
       <r>   74.2923    0.0000 </r>
       <r>   76.7770    0.0000 </r>
       <r>   77.0539    0.0000 </r>
       <r>   77.0539    0.0000 </r>
       <r>   78.2613    0.0000 </r>
       <r>   81.5726    0.0000 </r>
       <r>   81.5726    0.0000 </r>
       <r>   88.7178    0.0000 </r>
       <r>   89.3045    0.0000 </r>
       <r>   89.3045    0.0000 </r>
      </set>
      <set comment="kpoint 6">
       <r>    2.3418    1.0000 </r>
       <r>    4.7093    1.0000 </r>
       <r>   19.0484    0.0000 </r>
       <r>   19.0484    0.0000 </r>
       <r>   19.7674    0.0000 </r>
       <r>   19.7674    0.0000 </r>
       <r>   22.7464    0.0000 </r>
       <r>   23.5868    0.0000 </r>
       <r>   32.2770    0.0000 </r>
       <r>   32.2770    0.0000 </r>
       <r>   39.0252    0.0000 </r>
       <r>   39.2521    0.0000 </r>
       <r>   39.2521    0.0000 </r>
       <r>   45.8909    0.0000 </r>
       <r>   49.9246    0.0000 </r>
       <r>   50.4476    0.0000 </r>
       <r>   50.4476    0.0000 </r>
       <r>   56.1648    0.0000 </r>
       <r>   56.3207    0.0000 </r>
       <r>   56.8439    0.0000 </r>
       <r>   56.8439    0.0000 </r>
       <r>   59.3840    0.0000 </r>
       <r>   62.7749    0.0000 </r>
       <r>   63.5789    0.0000 </r>
       <r>   63.5789    0.0000 </r>
       <r>   64.5134    0.0000 </r>
       <r>   64.5134    0.0000 </r>
       <r>   67.4029    0.0000 </r>
       <r>   69.0899    0.0000 </r>
       <r>   73.7546    0.0000 </r>
       <r>   73.7546    0.0000 </r>
       <r>   75.5779    0.0000 </r>
       <r>   75.5779    0.0000 </r>
       <r>   76.3512    0.0000 </r>
       <r>   77.5087    0.0000 </r>
       <r>   82.1035    0.0000 </r>
       <r>   82.1035    0.0000 </r>
       <r>   88.7876    0.0000 </r>
       <r>   89.0480    0.0000 </r>
       <r>   89.0480    0.0000 </r>
      </set>
      <set comment="kpoint 7">
       <r>   -2.8533    1.0000 </r>
       <r>   18.6506    0.0000 </r>
       <r>   18.6506    0.0000 </r>
       <r>   18.9629    0.0000 </r>
       <r>   21.3261    0.0000 </r>
       <r>   24.3303    0.0000 </r>
       <r>   24.3624    0.0000 </r>
       <r>   24.3624    0.0000 </r>
       <r>   26.5983    0.0000 </r>
       <r>   27.6619    0.0000 </r>
       <r>   30.6074    0.0000 </r>
       <r>   32.8649    0.0000 </r>
       <r>   32.8649    0.0000 </r>
       <r>   35.5963    0.0000 </r>
       <r>   42.4503    0.0000 </r>
       <r>   56.5627    0.0000 </r>
       <r>   56.5627    0.0000 </r>
       <r>   57.9978    0.0000 </r>
       <r>   59.0750    0.0000 </r>
       <r>   59.7339    0.0000 </r>
       <r>   61.6561    0.0000 </r>
       <r>   63.7524    0.0000 </r>
       <r>   63.7524    0.0000 </r>
       <r>   65.3426    0.0000 </r>
       <r>   67.9950    0.0000 </r>
       <r>   67.9950    0.0000 </r>
       <r>   70.6497    0.0000 </r>
       <r>   71.8944    0.0000 </r>
       <r>   75.1135    0.0000 </r>
       <r>   75.1135    0.0000 </r>
       <r>   80.9671    0.0000 </r>
       <r>   82.9309    0.0000 </r>
       <r>   82.9309    0.0000 </r>
       <r>   82.9311    0.0000 </r>
       <r>   83.6641    0.0000 </r>
       <r>   85.0890    0.0000 </r>
       <r>   88.8518    0.0000 </r>
       <r>   90.2305    0.0000 </r>
       <r>   90.2305    0.0000 </r>
       <r>   90.4918    0.0000 </r>
      </set>
      <set comment="kpoint 8">
       <r>   -2.3326    1.0000 </r>
       <r>   15.3087    0.0000 </r>
       <r>   17.7186    0.0000 </r>
       <r>   19.0702    0.0000 </r>
       <r>   21.6707    0.0000 </r>
       <r>   22.3083    0.0000 </r>
       <r>   24.7415    0.0000 </r>
       <r>   25.7711    0.0000 </r>
       <r>   27.1282    0.0000 </r>
       <r>   29.5261    0.0000 </r>
       <r>   29.9651    0.0000 </r>
       <r>   34.7530    0.0000 </r>
       <r>   35.0516    0.0000 </r>
       <r>   37.9170    0.0000 </r>
       <r>   44.5124    0.0000 </r>
       <r>   52.0016    0.0000 </r>
       <r>   53.3124    0.0000 </r>
       <r>   57.7356    0.0000 </r>
       <r>   58.0432    0.0000 </r>
       <r>   58.8577    0.0000 </r>
       <r>   61.0968    0.0000 </r>
       <r>   63.7660    0.0000 </r>
       <r>   64.5438    0.0000 </r>
       <r>   65.7773    0.0000 </r>
       <r>   68.2785    0.0000 </r>
       <r>   68.9924    0.0000 </r>
       <r>   71.9014    0.0000 </r>
       <r>   73.3752    0.0000 </r>
       <r>   73.7084    0.0000 </r>
       <r>   75.2424    0.0000 </r>
       <r>   77.5055    0.0000 </r>
       <r>   78.6013    0.0000 </r>
       <r>   81.1935    0.0000 </r>
       <r>   82.1786    0.0000 </r>
       <r>   82.9007    0.0000 </r>
       <r>   84.2877    0.0000 </r>
       <r>   86.4352    0.0000 </r>
       <r>   86.6764    0.0000 </r>
       <r>   89.3038    0.0000 </r>
       <r>   89.5779    0.0000 </r>
      </set>
      <set comment="kpoint 9">
       <r>   -1.3707    1.0000 </r>
       <r>   11.8258    0.0000 </r>
       <r>   17.1581    0.0000 </r>
       <r>   18.7237    0.0000 </r>
       <r>   20.0286    0.0000 </r>
       <r>   23.8071    0.0000 </r>
       <r>   24.6795    0.0000 </r>
       <r>   24.7927    0.0000 </r>
       <r>   28.2697    0.0000 </r>
       <r>   28.5765    0.0000 </r>
       <r>   33.0803    0.0000 </r>
       <r>   38.1215    0.0000 </r>
       <r>   39.0505    0.0000 </r>
       <r>   40.9342    0.0000 </r>
       <r>   47.2206    0.0000 </r>
       <r>   47.4534    0.0000 </r>
       <r>   49.2251    0.0000 </r>
       <r>   54.8436    0.0000 </r>
       <r>   58.3362    0.0000 </r>
       <r>   58.5419    0.0000 </r>
       <r>   61.2510    0.0000 </r>
       <r>   62.8606    0.0000 </r>
       <r>   63.3703    0.0000 </r>
       <r>   65.1791    0.0000 </r>
       <r>   66.2977    0.0000 </r>
       <r>   69.0789    0.0000 </r>
       <r>   69.2271    0.0000 </r>
       <r>   71.8082    0.0000 </r>
       <r>   72.4163    0.0000 </r>
       <r>   73.9724    0.0000 </r>
       <r>   77.5215    0.0000 </r>
       <r>   77.9074    0.0000 </r>
       <r>   78.7576    0.0000 </r>
       <r>   80.8132    0.0000 </r>
       <r>   81.2036    0.0000 </r>
       <r>   81.7523    0.0000 </r>
       <r>   83.0409    0.0000 </r>
       <r>   86.9919    0.0000 </r>
       <r>   87.0309    0.0000 </r>
       <r>   87.2793    0.0000 </r>
      </set>
      <set comment="kpoint 10">
       <r>    0.0238    1.0000 </r>
       <r>    8.6235    0.1976 </r>
       <r>   16.9785    0.0000 </r>
       <r>   18.3850    0.0000 </r>
       <r>   18.6262    0.0000 </r>
       <r>   23.3273    0.0000 </r>
       <r>   24.4128    0.0000 </r>
       <r>   26.0622    0.0000 </r>
       <r>   27.2490    0.0000 </r>
       <r>   30.8979    0.0000 </r>
       <r>   36.3041    0.0000 </r>
       <r>   40.9191    0.0000 </r>
       <r>   43.2978    0.0000 </r>
       <r>   43.8019    0.0000 </r>
       <r>   44.2736    0.0000 </r>
       <r>   46.4724    0.0000 </r>
       <r>   50.0128    0.0000 </r>
       <r>   52.8374    0.0000 </r>
       <r>   58.7296    0.0000 </r>
       <r>   59.1004    0.0000 </r>
       <r>   59.6570    0.0000 </r>
       <r>   61.5604    0.0000 </r>
       <r>   63.4004    0.0000 </r>
       <r>   63.5784    0.0000 </r>
       <r>   65.4557    0.0000 </r>
       <r>   66.5949    0.0000 </r>
       <r>   66.8357    0.0000 </r>
       <r>   70.6271    0.0000 </r>
       <r>   70.9293    0.0000 </r>
       <r>   71.7207    0.0000 </r>
       <r>   72.6640    0.0000 </r>
       <r>   76.5828    0.0000 </r>
       <r>   77.3501    0.0000 </r>
       <r>   78.9017    0.0000 </r>
       <r>   81.4745    0.0000 </r>
       <r>   81.8232    0.0000 </r>
       <r>   83.7545    0.0000 </r>
       <r>   84.7323    0.0000 </r>
       <r>   87.4541    0.0000 </r>
       <r>   88.8184    0.0000 </r>
      </set>
      <set comment="kpoint 11">
       <r>    1.8382    1.0000 </r>
       <r>    5.7661    1.0448 </r>
       <r>   17.1542    0.0000 </r>
       <r>   17.1788    0.0000 </r>
       <r>   18.8473    0.0000 </r>
       <r>   22.1442    0.0000 </r>
       <r>   24.6690    0.0000 </r>
       <r>   25.3484    0.0000 </r>
       <r>   29.5123    0.0000 </r>
       <r>   32.7999    0.0000 </r>
       <r>   39.1324    0.0000 </r>
       <r>   39.1741    0.0000 </r>
       <r>   40.7149    0.0000 </r>
       <r>   47.2604    0.0000 </r>
       <r>   47.5397    0.0000 </r>
       <r>   49.0085    0.0000 </r>
       <r>   49.9442    0.0000 </r>
       <r>   54.8998    0.0000 </r>
       <r>   56.6244    0.0000 </r>
       <r>   58.3459    0.0000 </r>
       <r>   58.9325    0.0000 </r>
       <r>   59.0111    0.0000 </r>
       <r>   61.5935    0.0000 </r>
       <r>   62.5073    0.0000 </r>
       <r>   64.4113    0.0000 </r>
       <r>   65.2948    0.0000 </r>
       <r>   65.8243    0.0000 </r>
       <r>   66.9615    0.0000 </r>
       <r>   69.1832    0.0000 </r>
       <r>   70.8075    0.0000 </r>
       <r>   72.2965    0.0000 </r>
       <r>   75.1226    0.0000 </r>
       <r>   76.3805    0.0000 </r>
       <r>   78.8948    0.0000 </r>
       <r>   81.4895    0.0000 </r>
       <r>   81.6317    0.0000 </r>
       <r>   82.8592    0.0000 </r>
       <r>   84.1151    0.0000 </r>
       <r>   89.0273    0.0000 </r>
       <r>   89.1261    0.0000 </r>
      </set>
      <set comment="kpoint 12">
       <r>    3.2651    1.0000 </r>
       <r>    4.0777    1.0000 </r>
       <r>   16.2949    0.0000 </r>
       <r>   17.7614    0.0000 </r>
       <r>   19.4767    0.0000 </r>
       <r>   21.3195    0.0000 </r>
       <r>   24.2825    0.0000 </r>
       <r>   25.4917    0.0000 </r>
       <r>   31.7963    0.0000 </r>
       <r>   31.9647    0.0000 </r>
       <r>   38.0556    0.0000 </r>
       <r>   39.8176    0.0000 </r>
       <r>   40.5690    0.0000 </r>
       <r>   46.4746    0.0000 </r>
       <r>   49.6039    0.0000 </r>
       <r>   51.0142    0.0000 </r>
       <r>   51.5810    0.0000 </r>
       <r>   55.1713    0.0000 </r>
       <r>   55.8744    0.0000 </r>
       <r>   56.4687    0.0000 </r>
       <r>   58.5897    0.0000 </r>
       <r>   59.4171    0.0000 </r>
       <r>   61.0016    0.0000 </r>
       <r>   61.7703    0.0000 </r>
       <r>   63.2060    0.0000 </r>
       <r>   65.0443    0.0000 </r>
       <r>   66.1969    0.0000 </r>
       <r>   66.5033    0.0000 </r>
       <r>   68.9007    0.0000 </r>
       <r>   70.9125    0.0000 </r>
       <r>   72.5118    0.0000 </r>
       <r>   74.7510    0.0000 </r>
       <r>   76.5527    0.0000 </r>
       <r>   79.0232    0.0000 </r>
       <r>   81.5906    0.0000 </r>
       <r>   81.6262    0.0000 </r>
       <r>   82.2342    0.0000 </r>
       <r>   83.8786    0.0000 </r>
       <r>   89.2286    0.0000 </r>
       <r>   89.3543    0.0000 </r>
      </set>
      <set comment="kpoint 13">
       <r>    1.1878    1.0000 </r>
       <r>    6.6760    1.0101 </r>
       <r>   15.8284    0.0000 </r>
       <r>   18.7212    0.0000 </r>
       <r>   20.4857    0.0000 </r>
       <r>   20.8667    0.0000 </r>
       <r>   23.7447    0.0000 </r>
       <r>   26.4349    0.0000 </r>
       <r>   29.2742    0.0000 </r>
       <r>   31.3627    0.0000 </r>
       <r>   38.1434    0.0000 </r>
       <r>   39.3729    0.0000 </r>
       <r>   42.8626    0.0000 </r>
       <r>   45.3458    0.0000 </r>
       <r>   46.7037    0.0000 </r>
       <r>   48.9041    0.0000 </r>
       <r>   49.5455    0.0000 </r>
       <r>   54.1310    0.0000 </r>
       <r>   57.8253    0.0000 </r>
       <r>   58.3797    0.0000 </r>
       <r>   58.9550    0.0000 </r>
       <r>   60.5512    0.0000 </r>
       <r>   61.1544    0.0000 </r>
       <r>   62.9510    0.0000 </r>
       <r>   64.0062    0.0000 </r>
       <r>   65.5553    0.0000 </r>
       <r>   66.2958    0.0000 </r>
       <r>   68.7961    0.0000 </r>
       <r>   70.2373    0.0000 </r>
       <r>   70.2963    0.0000 </r>
       <r>   71.7292    0.0000 </r>
       <r>   75.5314    0.0000 </r>
       <r>   76.6670    0.0000 </r>
       <r>   79.6846    0.0000 </r>
       <r>   80.9036    0.0000 </r>
       <r>   81.8940    0.0000 </r>
       <r>   83.0484    0.0000 </r>
       <r>   83.9601    0.0000 </r>
       <r>   88.3275    0.0000 </r>
       <r>   88.6303    0.0000 </r>
      </set>
      <set comment="kpoint 14">
       <r>   -0.4884    1.0000 </r>
       <r>    9.6486   -0.0577 </r>
       <r>   15.7624    0.0000 </r>
       <r>   20.0261    0.0000 </r>
       <r>   20.8116    0.0000 </r>
       <r>   21.8585    0.0000 </r>
       <r>   23.5309    0.0000 </r>
       <r>   26.5516    0.0000 </r>
       <r>   27.4209    0.0000 </r>
       <r>   29.3912    0.0000 </r>
       <r>   35.4143    0.0000 </r>
       <r>   39.8280    0.0000 </r>
       <r>   42.3012    0.0000 </r>
       <r>   43.9050    0.0000 </r>
       <r>   44.0297    0.0000 </r>
       <r>   48.1582    0.0000 </r>
       <r>   49.0229    0.0000 </r>
       <r>   52.6051    0.0000 </r>
       <r>   58.5879    0.0000 </r>
       <r>   59.1914    0.0000 </r>
       <r>   61.0674    0.0000 </r>
       <r>   61.8929    0.0000 </r>
       <r>   63.6197    0.0000 </r>
       <r>   64.2165    0.0000 </r>
       <r>   64.2705    0.0000 </r>
       <r>   66.8747    0.0000 </r>
       <r>   68.5454    0.0000 </r>
       <r>   70.7797    0.0000 </r>
       <r>   71.0465    0.0000 </r>
       <r>   72.8584    0.0000 </r>
       <r>   75.2702    0.0000 </r>
       <r>   76.5349    0.0000 </r>
       <r>   77.8066    0.0000 </r>
       <r>   79.7542    0.0000 </r>
       <r>   79.9103    0.0000 </r>
       <r>   83.1865    0.0000 </r>
       <r>   84.5128    0.0000 </r>
       <r>   84.8425    0.0000 </r>
       <r>   86.2529    0.0000 </r>
       <r>   86.9763    0.0000 </r>
      </set>
      <set comment="kpoint 15">
       <r>   -1.7399    1.0000 </r>
       <r>   12.9316    0.0000 </r>
       <r>   16.1111    0.0000 </r>
       <r>   20.9568    0.0000 </r>
       <r>   21.7770    0.0000 </r>
       <r>   23.4539    0.0000 </r>
       <r>   23.6344    0.0000 </r>
       <r>   24.2300    0.0000 </r>
       <r>   26.3353    0.0000 </r>
       <r>   29.6446    0.0000 </r>
       <r>   32.1842    0.0000 </r>
       <r>   36.0763    0.0000 </r>
       <r>   38.4538    0.0000 </r>
       <r>   40.5090    0.0000 </r>
       <r>   46.0119    0.0000 </r>
       <r>   47.7908    0.0000 </r>
       <r>   52.0977    0.0000 </r>
       <r>   55.1032    0.0000 </r>
       <r>   58.4455    0.0000 </r>
       <r>   58.6261    0.0000 </r>
       <r>   61.0426    0.0000 </r>
       <r>   63.4718    0.0000 </r>
       <r>   63.7886    0.0000 </r>
       <r>   64.8388    0.0000 </r>
       <r>   67.4808    0.0000 </r>
       <r>   68.9073    0.0000 </r>
       <r>   70.0134    0.0000 </r>
       <r>   71.4361    0.0000 </r>
       <r>   74.5805    0.0000 </r>
       <r>   75.1680    0.0000 </r>
       <r>   77.0431    0.0000 </r>
       <r>   78.4835    0.0000 </r>
       <r>   79.2753    0.0000 </r>
       <r>   79.4739    0.0000 </r>
       <r>   82.9133    0.0000 </r>
       <r>   83.3869    0.0000 </r>
       <r>   84.8953    0.0000 </r>
       <r>   85.5224    0.0000 </r>
       <r>   87.1397    0.0000 </r>
       <r>   87.1516    0.0000 </r>
      </set>
      <set comment="kpoint 16">
       <r>   -2.5555    1.0000 </r>
       <r>   16.1537    0.0000 </r>
       <r>   17.1517    0.0000 </r>
       <r>   21.1657    0.0000 </r>
       <r>   22.2994    0.0000 </r>
       <r>   23.3819    0.0000 </r>
       <r>   24.1516    0.0000 </r>
       <r>   24.5063    0.0000 </r>
       <r>   25.5164    0.0000 </r>
       <r>   28.8349    0.0000 </r>
       <r>   30.3030    0.0000 </r>
       <r>   33.2850    0.0000 </r>
       <r>   35.6438    0.0000 </r>
       <r>   36.9959    0.0000 </r>
       <r>   43.4236    0.0000 </r>
       <r>   52.4843    0.0000 </r>
       <r>   55.9329    0.0000 </r>
       <r>   57.7647    0.0000 </r>
       <r>   58.8308    0.0000 </r>
       <r>   59.1795    0.0000 </r>
       <r>   60.9373    0.0000 </r>
       <r>   63.9127    0.0000 </r>
       <r>   64.2164    0.0000 </r>
       <r>   65.2332    0.0000 </r>
       <r>   69.2546    0.0000 </r>
       <r>   69.7692    0.0000 </r>
       <r>   70.0375    0.0000 </r>
       <r>   72.6929    0.0000 </r>
       <r>   74.0584    0.0000 </r>
       <r>   74.4128    0.0000 </r>
       <r>   80.8269    0.0000 </r>
       <r>   80.8525    0.0000 </r>
       <r>   81.1006    0.0000 </r>
       <r>   82.0639    0.0000 </r>
       <r>   82.6667    0.0000 </r>
       <r>   86.3685    0.0000 </r>
       <r>   87.0140    0.0000 </r>
       <r>   87.0360    0.0000 </r>
       <r>   87.8482    0.0000 </r>
       <r>   90.0716    0.0000 </r>
      </set>
      <set comment="kpoint 17">
       <r>   -1.9619    1.0000 </r>
       <r>   16.6374    0.0000 </r>
       <r>   16.6374    0.0000 </r>
       <r>   16.7884    0.0000 </r>
       <r>   19.6006    0.0000 </r>
       <r>   19.9659    0.0000 </r>
       <r>   27.5549    0.0000 </r>
       <r>   27.5549    0.0000 </r>
       <r>   28.4823    0.0000 </r>
       <r>   30.5610    0.0000 </r>
       <r>   32.5390    0.0000 </r>
       <r>   34.0063    0.0000 </r>
       <r>   34.0063    0.0000 </r>
       <r>   38.8164    0.0000 </r>
       <r>   46.6488    0.0000 </r>
       <r>   52.1941    0.0000 </r>
       <r>   52.1941    0.0000 </r>
       <r>   52.5587    0.0000 </r>
       <r>   57.2985    0.0000 </r>
       <r>   60.2885    0.0000 </r>
       <r>   60.5983    0.0000 </r>
       <r>   63.8873    0.0000 </r>
       <r>   63.8873    0.0000 </r>
       <r>   65.0770    0.0000 </r>
       <r>   67.4018    0.0000 </r>
       <r>   71.3695    0.0000 </r>
       <r>   71.3695    0.0000 </r>
       <r>   72.7117    0.0000 </r>
       <r>   72.7117    0.0000 </r>
       <r>   76.3640    0.0000 </r>
       <r>   76.5639    0.0000 </r>
       <r>   78.4695    0.0000 </r>
       <r>   78.7256    0.0000 </r>
       <r>   78.7256    0.0000 </r>
       <r>   82.7015    0.0000 </r>
       <r>   84.3411    0.0000 </r>
       <r>   87.5009    0.0000 </r>
       <r>   87.5009    0.0000 </r>
       <r>   89.0588    0.0000 </r>
       <r>   89.9070    0.0000 </r>
      </set>
      <set comment="kpoint 18">
       <r>   -1.1497    1.0000 </r>
       <r>   13.4191    0.0000 </r>
       <r>   15.9401    0.0000 </r>
       <r>   17.2434    0.0000 </r>
       <r>   17.5150    0.0000 </r>
       <r>   20.4972    0.0000 </r>
       <r>   27.4872    0.0000 </r>
       <r>   28.1746    0.0000 </r>
       <r>   29.8513    0.0000 </r>
       <r>   31.3976    0.0000 </r>
       <r>   33.7013    0.0000 </r>
       <r>   36.1929    0.0000 </r>
       <r>   37.4655    0.0000 </r>
       <r>   40.6221    0.0000 </r>
       <r>   47.3815    0.0000 </r>
       <r>   49.2526    0.0000 </r>
       <r>   49.6575    0.0000 </r>
       <r>   53.0214    0.0000 </r>
       <r>   56.6872    0.0000 </r>
       <r>   58.6774    0.0000 </r>
       <r>   60.6297    0.0000 </r>
       <r>   62.2710    0.0000 </r>
       <r>   63.4560    0.0000 </r>
       <r>   64.8530    0.0000 </r>
       <r>   66.9169    0.0000 </r>
       <r>   68.6279    0.0000 </r>
       <r>   69.0655    0.0000 </r>
       <r>   71.5403    0.0000 </r>
       <r>   72.0973    0.0000 </r>
       <r>   73.9528    0.0000 </r>
       <r>   77.3265    0.0000 </r>
       <r>   77.6171    0.0000 </r>
       <r>   78.3377    0.0000 </r>
       <r>   79.7007    0.0000 </r>
       <r>   82.4349    0.0000 </r>
       <r>   82.9132    0.0000 </r>
       <r>   84.9828    0.0000 </r>
       <r>   86.1537    0.0000 </r>
       <r>   87.8947    0.0000 </r>
       <r>   90.3483    0.0000 </r>
      </set>
      <set comment="kpoint 19">
       <r>    0.0966    1.0000 </r>
       <r>   10.1771   -0.0478 </r>
       <r>   15.6276    0.0000 </r>
       <r>   15.6310    0.0000 </r>
       <r>   17.2901    0.0000 </r>
       <r>   22.6264    0.0000 </r>
       <r>   26.1255    0.0000 </r>
       <r>   28.2009    0.0000 </r>
       <r>   29.9429    0.0000 </r>
       <r>   32.0109    0.0000 </r>
       <r>   37.0283    0.0000 </r>
       <r>   39.5300    0.0000 </r>
       <r>   42.2728    0.0000 </r>
       <r>   42.9550    0.0000 </r>
       <r>   43.4218    0.0000 </r>
       <r>   46.0853    0.0000 </r>
       <r>   52.7490    0.0000 </r>
       <r>   53.9425    0.0000 </r>
       <r>   55.9174    0.0000 </r>
       <r>   56.9215    0.0000 </r>
       <r>   59.0707    0.0000 </r>
       <r>   61.0699    0.0000 </r>
       <r>   63.6036    0.0000 </r>
       <r>   64.7056    0.0000 </r>
       <r>   65.1458    0.0000 </r>
       <r>   66.2656    0.0000 </r>
       <r>   67.6627    0.0000 </r>
       <r>   68.8758    0.0000 </r>
       <r>   69.9525    0.0000 </r>
       <r>   73.0740    0.0000 </r>
       <r>   75.6384    0.0000 </r>
       <r>   75.7633    0.0000 </r>
       <r>   77.9678    0.0000 </r>
       <r>   78.4655    0.0000 </r>
       <r>   81.6231    0.0000 </r>
       <r>   82.1772    0.0000 </r>
       <r>   83.7208    0.0000 </r>
       <r>   87.5035    0.0000 </r>
       <r>   88.1819    0.0000 </r>
       <r>   90.4851    0.0000 </r>
      </set>
      <set comment="kpoint 20">
       <r>    1.7646    1.0000 </r>
       <r>    7.2276    0.8255 </r>
       <r>   14.2234    0.0000 </r>
       <r>   15.6969    0.0000 </r>
       <r>   17.4412    0.0000 </r>
       <r>   24.8851    0.0000 </r>
       <r>   25.1702    0.0000 </r>
       <r>   28.0440    0.0000 </r>
       <r>   29.1599    0.0000 </r>
       <r>   33.4063    0.0000 </r>
       <r>   39.6539    0.0000 </r>
       <r>   39.9034    0.0000 </r>
       <r>   41.5096    0.0000 </r>
       <r>   44.8675    0.0000 </r>
       <r>   46.6466    0.0000 </r>
       <r>   48.1302    0.0000 </r>
       <r>   51.6320    0.0000 </r>
       <r>   54.0525    0.0000 </r>
       <r>   54.8644    0.0000 </r>
       <r>   57.0561    0.0000 </r>
       <r>   58.6709    0.0000 </r>
       <r>   60.5426    0.0000 </r>
       <r>   61.4975    0.0000 </r>
       <r>   63.0587    0.0000 </r>
       <r>   63.1864    0.0000 </r>
       <r>   64.0080    0.0000 </r>
       <r>   65.8810    0.0000 </r>
       <r>   66.9312    0.0000 </r>
       <r>   68.7232    0.0000 </r>
       <r>   70.0724    0.0000 </r>
       <r>   72.8087    0.0000 </r>
       <r>   75.3628    0.0000 </r>
       <r>   76.6600    0.0000 </r>
       <r>   77.3045    0.0000 </r>
       <r>   80.8066    0.0000 </r>
       <r>   82.0630    0.0000 </r>
       <r>   85.4672    0.0000 </r>
       <r>   87.9109    0.0000 </r>
       <r>   88.3656    0.0000 </r>
       <r>   90.5773    0.0000 </r>
      </set>
      <set comment="kpoint 21">
       <r>    3.8264    1.0000 </r>
       <r>    4.6465    1.0000 </r>
       <r>   13.2147    0.0000 </r>
       <r>   16.1499    0.0000 </r>
       <r>   17.9700    0.0000 </r>
       <r>   23.9569    0.0000 </r>
       <r>   26.4298    0.0000 </r>
       <r>   28.8240    0.0000 </r>
       <r>   29.4320    0.0000 </r>
       <r>   31.8931    0.0000 </r>
       <r>   37.9608    0.0000 </r>
       <r>   40.7634    0.0000 </r>
       <r>   42.6694    0.0000 </r>
       <r>   47.2981    0.0000 </r>
       <r>   49.3108    0.0000 </r>
       <r>   50.0228    0.0000 </r>
       <r>   50.5705    0.0000 </r>
       <r>   54.7701    0.0000 </r>
       <r>   55.2897    0.0000 </r>
       <r>   55.9912    0.0000 </r>
       <r>   57.7796    0.0000 </r>
       <r>   60.1327    0.0000 </r>
       <r>   61.1602    0.0000 </r>
       <r>   61.9188    0.0000 </r>
       <r>   62.5550    0.0000 </r>
       <r>   62.9439    0.0000 </r>
       <r>   64.2160    0.0000 </r>
       <r>   64.7153    0.0000 </r>
       <r>   68.1540    0.0000 </r>
       <r>   69.5801    0.0000 </r>
       <r>   72.7291    0.0000 </r>
       <r>   75.1894    0.0000 </r>
       <r>   76.8800    0.0000 </r>
       <r>   77.2557    0.0000 </r>
       <r>   80.1405    0.0000 </r>
       <r>   81.0523    0.0000 </r>
       <r>   85.6908    0.0000 </r>
       <r>   87.7967    0.0000 </r>
       <r>   89.3742    0.0000 </r>
       <r>   89.3918    0.0000 </r>
      </set>
      <set comment="kpoint 22">
       <r>    2.4132    1.0000 </r>
       <r>    6.3082    1.0781 </r>
       <r>   12.6209    0.0000 </r>
       <r>   16.9863    0.0000 </r>
       <r>   18.8897    0.0000 </r>
       <r>   23.3865    0.0000 </r>
       <r>   25.9956    0.0000 </r>
       <r>   28.9686    0.0000 </r>
       <r>   29.8300    0.0000 </r>
       <r>   30.7001    0.0000 </r>
       <r>   36.4326    0.0000 </r>
       <r>   41.3450    0.0000 </r>
       <r>   43.8944    0.0000 </r>
       <r>   45.0353    0.0000 </r>
       <r>   48.5195    0.0000 </r>
       <r>   50.2736    0.0000 </r>
       <r>   51.6855    0.0000 </r>
       <r>   55.3411    0.0000 </r>
       <r>   56.0450    0.0000 </r>
       <r>   56.9844    0.0000 </r>
       <r>   57.4476    0.0000 </r>
       <r>   57.8454    0.0000 </r>
       <r>   60.3985    0.0000 </r>
       <r>   62.2389    0.0000 </r>
       <r>   63.1916    0.0000 </r>
       <r>   63.8886    0.0000 </r>
       <r>   64.2885    0.0000 </r>
       <r>   65.7585    0.0000 </r>
       <r>   68.7453    0.0000 </r>
       <r>   70.7068    0.0000 </r>
       <r>   73.6509    0.0000 </r>
       <r>   74.9227    0.0000 </r>
       <r>   76.8161    0.0000 </r>
       <r>   77.7428    0.0000 </r>
       <r>   79.5984    0.0000 </r>
       <r>   81.2015    0.0000 </r>
       <r>   85.1580    0.0000 </r>
       <r>   87.8763    0.0000 </r>
       <r>   88.1430    0.0000 </r>
       <r>   89.8515    0.0000 </r>
      </set>
      <set comment="kpoint 23">
       <r>    0.6070    1.0000 </r>
       <r>    9.0954    0.0170 </r>
       <r>   12.4828    0.0000 </r>
       <r>   18.2042    0.0000 </r>
       <r>   20.1897    0.0000 </r>
       <r>   23.1652    0.0000 </r>
       <r>   25.5473    0.0000 </r>
       <r>   26.0979    0.0000 </r>
       <r>   28.8861    0.0000 </r>
       <r>   31.6699    0.0000 </r>
       <r>   36.2717    0.0000 </r>
       <r>   39.9187    0.0000 </r>
       <r>   41.9680    0.0000 </r>
       <r>   44.3103    0.0000 </r>
       <r>   46.9110    0.0000 </r>
       <r>   49.2580    0.0000 </r>
       <r>   51.5760    0.0000 </r>
       <r>   53.6846    0.0000 </r>
       <r>   55.4989    0.0000 </r>
       <r>   56.9231    0.0000 </r>
       <r>   59.8518    0.0000 </r>
       <r>   60.5347    0.0000 </r>
       <r>   61.8332    0.0000 </r>
       <r>   63.4862    0.0000 </r>
       <r>   64.1755    0.0000 </r>
       <r>   65.5613    0.0000 </r>
       <r>   66.7220    0.0000 </r>
       <r>   68.0705    0.0000 </r>
       <r>   69.2811    0.0000 </r>
       <r>   74.3346    0.0000 </r>
       <r>   74.4992    0.0000 </r>
       <r>   76.2572    0.0000 </r>
       <r>   77.2878    0.0000 </r>
       <r>   78.1882    0.0000 </r>
       <r>   79.4893    0.0000 </r>
       <r>   81.8435    0.0000 </r>
       <r>   83.9712    0.0000 </r>
       <r>   84.5736    0.0000 </r>
       <r>   88.4631    0.0000 </r>
       <r>   89.1485    0.0000 </r>
      </set>
      <set comment="kpoint 24">
       <r>   -0.7820    1.0000 </r>
       <r>   11.7709    0.0000 </r>
       <r>   13.2078    0.0000 </r>
       <r>   19.7840    0.0000 </r>
       <r>   21.8135    0.0000 </r>
       <r>   22.8912    0.0000 </r>
       <r>   23.9717    0.0000 </r>
       <r>   24.9108    0.0000 </r>
       <r>   27.2037    0.0000 </r>
       <r>   32.3311    0.0000 </r>
       <r>   33.5542    0.0000 </r>
       <r>   37.8790    0.0000 </r>
       <r>   40.8437    0.0000 </r>
       <r>   43.4702    0.0000 </r>
       <r>   44.1360    0.0000 </r>
       <r>   48.8770    0.0000 </r>
       <r>   51.3563    0.0000 </r>
       <r>   54.8205    0.0000 </r>
       <r>   55.4369    0.0000 </r>
       <r>   56.6208    0.0000 </r>
       <r>   60.8051    0.0000 </r>
       <r>   62.1799    0.0000 </r>
       <r>   63.4283    0.0000 </r>
       <r>   64.9986    0.0000 </r>
       <r>   65.1911    0.0000 </r>
       <r>   66.5603    0.0000 </r>
       <r>   67.2059    0.0000 </r>
       <r>   71.1449    0.0000 </r>
       <r>   73.4565    0.0000 </r>
       <r>   74.1107    0.0000 </r>
       <r>   76.4426    0.0000 </r>
       <r>   76.7137    0.0000 </r>
       <r>   78.1074    0.0000 </r>
       <r>   78.8987    0.0000 </r>
       <r>   82.1204    0.0000 </r>
       <r>   82.3139    0.0000 </r>
       <r>   83.4136    0.0000 </r>
       <r>   83.4408    0.0000 </r>
       <r>   85.4063    0.0000 </r>
       <r>   89.5243    0.0000 </r>
      </set>
      <set comment="kpoint 25">
       <r>   -0.4885    1.0000 </r>
       <r>   15.0567    0.0000 </r>
       <r>   15.1023    0.0000 </r>
       <r>   15.1093    0.0000 </r>
       <r>   15.1093    0.0000 </r>
       <r>   18.5979    0.0000 </r>
       <r>   29.7887    0.0000 </r>
       <r>   30.5785    0.0000 </r>
       <r>   30.5785    0.0000 </r>
       <r>   35.0636    0.0000 </r>
       <r>   35.2625    0.0000 </r>
       <r>   36.2874    0.0000 </r>
       <r>   36.2874    0.0000 </r>
       <r>   41.2596    0.0000 </r>
       <r>   47.6831    0.0000 </r>
       <r>   48.1551    0.0000 </r>
       <r>   48.1551    0.0000 </r>
       <r>   52.6719    0.0000 </r>
       <r>   54.7008    0.0000 </r>
       <r>   60.3693    0.0000 </r>
       <r>   60.8712    0.0000 </r>
       <r>   61.2013    0.0000 </r>
       <r>   62.8824    0.0000 </r>
       <r>   62.8824    0.0000 </r>
       <r>   65.4316    0.0000 </r>
       <r>   65.4316    0.0000 </r>
       <r>   68.3890    0.0000 </r>
       <r>   68.7861    0.0000 </r>
       <r>   73.1639    0.0000 </r>
       <r>   73.1639    0.0000 </r>
       <r>   77.0444    0.0000 </r>
       <r>   78.1484    0.0000 </r>
       <r>   80.4542    0.0000 </r>
       <r>   80.4542    0.0000 </r>
       <r>   80.8290    0.0000 </r>
       <r>   85.4304    0.0000 </r>
       <r>   85.4304    0.0000 </r>
       <r>   87.2814    0.0000 </r>
       <r>   88.1371    0.0000 </r>
       <r>   88.1734    0.0000 </r>
      </set>
      <set comment="kpoint 26">
       <r>    0.6055    1.0000 </r>
       <r>   12.0399    0.0000 </r>
       <r>   13.1503    0.0000 </r>
       <r>   14.6655    0.0000 </r>
       <r>   15.9578    0.0000 </r>
       <r>   19.3118    0.0000 </r>
       <r>   29.1051    0.0000 </r>
       <r>   31.1223    0.0000 </r>
       <r>   32.7577    0.0000 </r>
       <r>   34.2529    0.0000 </r>
       <r>   38.0788    0.0000 </r>
       <r>   38.7802    0.0000 </r>
       <r>   40.6693    0.0000 </r>
       <r>   42.7167    0.0000 </r>
       <r>   43.5574    0.0000 </r>
       <r>   45.8761    0.0000 </r>
       <r>   48.8744    0.0000 </r>
       <r>   53.9501    0.0000 </r>
       <r>   55.5326    0.0000 </r>
       <r>   58.5288    0.0000 </r>
       <r>   59.3539    0.0000 </r>
       <r>   60.5263    0.0000 </r>
       <r>   61.8782    0.0000 </r>
       <r>   62.0208    0.0000 </r>
       <r>   63.3307    0.0000 </r>
       <r>   64.2876    0.0000 </r>
       <r>   66.8326    0.0000 </r>
       <r>   68.3222    0.0000 </r>
       <r>   71.0849    0.0000 </r>
       <r>   72.8239    0.0000 </r>
       <r>   77.0780    0.0000 </r>
       <r>   77.1553    0.0000 </r>
       <r>   79.6563    0.0000 </r>
       <r>   80.6849    0.0000 </r>
       <r>   82.3670    0.0000 </r>
       <r>   83.0855    0.0000 </r>
       <r>   83.6467    0.0000 </r>
       <r>   85.1252    0.0000 </r>
       <r>   87.1427    0.0000 </r>
       <r>   89.7717    0.0000 </r>
      </set>
      <set comment="kpoint 27">
       <r>    2.1210    1.0000 </r>
       <r>    9.0620    0.0507 </r>
       <r>   11.5827    0.0000 </r>
       <r>   14.6059    0.0000 </r>
       <r>   16.1971    0.0000 </r>
       <r>   21.7011    0.0000 </r>
       <r>   27.9273    0.0000 </r>
       <r>   30.6019    0.0000 </r>
       <r>   33.6514    0.0000 </r>
[...]
       </set>
       <set comment="band 19">
        <r>  0.0000  0.0000  0.0000  0.0843  0.0000  0.0000  0.0000  0.0000  0.0000 </r>
       </set>
       <set comment="band 20">
        <r>  0.0000  0.0000  0.0000  0.4336  0.0000  0.0000  0.0000  0.0000  0.0000 </r>
       </set>
       <set comment="band 21">
        <r>  6.6261  0.1114  0.0898  0.0000  0.0000  0.0000  0.0000  0.0000  0.0000 </r>
       </set>
       <set comment="band 22">
        <r>  2.1909  0.6241  0.0019  0.0000  0.0000  0.0000  0.0000  0.0000  0.0000 </r>
       </set>
       <set comment="band 23">
        <r>  0.4353  0.0143  1.1880  0.0000  0.0000  0.0000  0.0000  0.0000  0.0000 </r>
       </set>
       <set comment="band 24">
        <r>  0.1290  0.7670  0.1487  0.0000  0.0000  0.0000  0.0000  0.0000  0.0000 </r>
       </set>
       <set comment="band 25">
        <r>  0.0000  0.0000  0.0000  3.1463  0.0000  0.0000  0.0000  0.0000  0.0000 </r>
       </set>
       <set comment="band 26">
        <r>  0.0539  0.0007  0.8402  0.0000  0.0000  0.0000  0.0000  0.0000  0.0000 </r>
       </set>
       <set comment="band 27">
        <r>  0.0000  0.0000  0.0000  0.1330  0.0000  0.0000  0.0000  0.0000  0.0000 </r>
       </set>
       <set comment="band 28">
        <r>  0.1213  0.5085  0.5123  0.0000  0.0000  0.0000  0.0000  0.0000  0.0000 </r>
       </set>
       <set comment="band 29">
        <r>  0.0000  0.0000  0.0000  0.4972  0.0000  0.0000  0.0000  0.0000  0.0000 </r>
       </set>
       <set comment="band 30">
        <r>  0.6159  1.6193  0.6027  0.0000  0.0000  0.0000  0.0000  0.0000  0.0000 </r>
       </set>
       <set comment="band 31">
        <r>  0.2120  0.5256  0.7761  0.0000  0.0000  0.0000  0.0000  0.0000  0.0000 </r>
       </set>
       <set comment="band 32">
        <r>  0.0000  0.0000  0.0000  0.1587  0.0000  0.0000  0.0000  0.0000  0.0000 </r>
       </set>
       <set comment="band 33">
        <r>  0.1882  0.1576  0.2116  0.0000  0.0000  0.0000  0.0000  0.0000  0.0000 </r>
       </set>
       <set comment="band 34">
        <r>  0.0000  0.0000  0.0000  0.0002  0.0000  0.0000  0.0000  0.0000  0.0000 </r>
       </set>
       <set comment="band 35">
        <r>  0.2565  0.0102  0.3680  0.0000  0.0000  0.0000  0.0000  0.0000  0.0000 </r>
       </set>
       <set comment="band 36">
        <r>  0.0000  0.0000  0.0000  0.3329  0.0000  0.0000  0.0000  0.0000  0.0000 </r>
       </set>
       <set comment="band 37">
        <r>  0.0281  0.3844  0.0086  0.0000  0.0000  0.0000  0.0000  0.0000  0.0000 </r>
       </set>
       <set comment="band 38">
        <r>  0.1221  0.0048  0.0036  0.0000  0.0000  0.0000  0.0000  0.0000  0.0000 </r>
       </set>
       <set comment="band 39">
        <r>  0.0000  0.0000  0.0000  0.0205  0.0000  0.0000  0.0000  0.0000  0.0000 </r>
       </set>
       <set comment="band 40">
        <r>  0.0614  0.0009  0.0026  0.0000  0.0000  0.0000  0.0000  0.0000  0.0000 </r>
       </set>
      </set>
      <set comment="kpoint 54">
       <set comment="band 1">
        <r>  0.1092  0.0296  0.1104  0.0017  0.0000  0.0000  0.0000  0.0000  0.0000 </r>
       </set>
       <set comment="band 2">
        <r>  0.0792  0.0243  0.0004  0.1402  0.0000  0.0000  0.0000  0.0000  0.0000 </r>
       </set>
       <set comment="band 3">
        <r>  0.0576  0.0780  0.0035  0.0636  0.0000  0.0000  0.0000  0.0000  0.0000 </r>
       </set>
       <set comment="band 4">
        <r>  0.2145  0.0066  0.1202  0.0135  0.0000  0.0000  0.0000  0.0000  0.0000 </r>
       </set>
       <set comment="band 5">
        <r>  0.0125  0.1216  0.0103  0.0655  0.0000  0.0000  0.0000  0.0000  0.0000 </r>
       </set>
       <set comment="band 6">
        <r>  0.0348  0.0890  0.0328  0.0047  0.0000  0.0000  0.0000  0.0000  0.0000 </r>
       </set>
       <set comment="band 7">
        <r>  0.0408  0.1200  0.0002  0.0393  0.0000  0.0000  0.0000  0.0000  0.0000 </r>
       </set>
       <set comment="band 8">
        <r>  0.0200  0.0415  0.0786  0.0080  0.0000  0.0000  0.0000  0.0000  0.0000 </r>
       </set>
       <set comment="band 9">
        <r>  0.0104  0.0004  0.0110  0.0564  0.0000  0.0000  0.0000  0.0000  0.0000 </r>
       </set>
       <set comment="band 10">
        <r>  0.0004  0.0034  0.0108  0.0092  0.0000  0.0000  0.0000  0.0000  0.0000 </r>
       </set>
       <set comment="band 11">
        <r>  0.0673  0.0051  0.0500  0.0000  0.0000  0.0000  0.0000  0.0000  0.0000 </r>
       </set>
       <set comment="band 12">
        <r>  0.0435  0.0029  0.0013  0.0125  0.0000  0.0000  0.0000  0.0000  0.0000 </r>
       </set>
       <set comment="band 13">
        <r>  0.0002  0.0013  0.0460  0.1098  0.0000  0.0000  0.0000  0.0000  0.0000 </r>
       </set>
       <set comment="band 14">
        <r>  0.0076  0.0086  0.0114  0.0270  0.0000  0.0000  0.0000  0.0000  0.0000 </r>
       </set>
       <set comment="band 15">
        <r>  0.0675  0.0000  0.0734  0.0310  0.0000  0.0000  0.0000  0.0000  0.0000 </r>
       </set>
       <set comment="band 16">
        <r>  0.0162  0.0320  0.0703  0.0374  0.0000  0.0000  0.0000  0.0000  0.0000 </r>
       </set>
       <set comment="band 17">
        <r>  0.0281  0.0113  0.0513  0.0003  0.0000  0.0000  0.0000  0.0000  0.0000 </r>
       </set>
       <set comment="band 18">
        <r>  0.2945  0.0098  0.0920  0.0218  0.0000  0.0000  0.0000  0.0000  0.0000 </r>
       </set>
       <set comment="band 19">
        <r>  0.1931  0.0492  0.0017  0.2885  0.0000  0.0000  0.0000  0.0000  0.0000 </r>
       </set>
       <set comment="band 20">
        <r>  1.2254  0.0013  0.0137  0.0000  0.0000  0.0000  0.0000  0.0000  0.0000 </r>
       </set>
       <set comment="band 21">
        <r>  6.7612  0.0803  0.0215  0.0256  0.0000  0.0000  0.0000  0.0000  0.0000 </r>
       </set>
       <set comment="band 22">
        <r>  0.7736  0.6436  0.0654  0.1091  0.0000  0.0000  0.0000  0.0000  0.0000 </r>
       </set>
       <set comment="band 23">
        <r>  0.2795  0.3424  0.1489  0.0515  0.0000  0.0000  0.0000  0.0000  0.0000 </r>
       </set>
       <set comment="band 24">
        <r>  0.1578  0.2408  0.0483  0.1359  0.0000  0.0000  0.0000  0.0000  0.0000 </r>
       </set>
       <set comment="band 25">
        <r>  0.0085  0.0321  0.7773  0.7989  0.0000  0.0000  0.0000  0.0000  0.0000 </r>
       </set>
       <set comment="band 26">
        <r>  0.0280  0.0017  0.5559  0.0999  0.0000  0.0000  0.0000  0.0000  0.0000 </r>
       </set>
       <set comment="band 27">
        <r>  0.2352  0.0388  1.2735  0.4939  0.0000  0.0000  0.0000  0.0000  0.0000 </r>
       </set>
       <set comment="band 28">
        <r>  0.0843  0.0854  0.0190  1.3196  0.0000  0.0000  0.0000  0.0000  0.0000 </r>
       </set>
       <set comment="band 29">
        <r>  0.0001  0.0052  0.0046  0.3168  0.0000  0.0000  0.0000  0.0000  0.0000 </r>
       </set>
       <set comment="band 30">
        <r>  0.3087  0.6312  0.0266  0.2678  0.0000  0.0000  0.0000  0.0000  0.0000 </r>
       </set>
       <set comment="band 31">
        <r>  0.0056  2.2790  0.0882  0.2690  0.0000  0.0000  0.0000  0.0000  0.0000 </r>
       </set>
       <set comment="band 32">
        <r>  0.1044  0.0141  1.1572  0.0373  0.0000  0.0000  0.0000  0.0000  0.0000 </r>
       </set>
       <set comment="band 33">
        <r>  0.0533  0.0336  0.0831  0.3182  0.0000  0.0000  0.0000  0.0000  0.0000 </r>
       </set>
       <set comment="band 34">
        <r>  0.7668  0.0188  0.2350  0.0097  0.0000  0.0000  0.0000  0.0000  0.0000 </r>
       </set>
       <set comment="band 35">
        <r>  0.0289  0.0977  0.0180  0.0109  0.0000  0.0000  0.0000  0.0000  0.0000 </r>
       </set>
       <set comment="band 36">
        <r>  0.0114  0.0418  0.0347  0.1174  0.0000  0.0000  0.0000  0.0000  0.0000 </r>
       </set>
       <set comment="band 37">
        <r>  0.0855  0.0303  0.0072  0.0650  0.0000  0.0000  0.0000  0.0000  0.0000 </r>
       </set>
       <set comment="band 38">
        <r>  0.0389  0.0932  0.0716  0.0523  0.0000  0.0000  0.0000  0.0000  0.0000 </r>
       </set>
       <set comment="band 39">
        <r>  0.0411  0.0273  0.0202  0.0002  0.0000  0.0000  0.0000  0.0000  0.0000 </r>
       </set>
       <set comment="band 40">
        <r>  0.0010  0.0073  0.0438  0.0161  0.0000  0.0000  0.0000  0.0000  0.0000 </r>
       </set>
      </set>
      <set comment="kpoint 55">
       <set comment="band 1">
        <r>  0.0825  0.0146  0.1506  0.0000  0.0000  0.0000  0.0000  0.0000  0.0000 </r>
       </set>
       <set comment="band 2">
        <r>  0.0000  0.0000  0.0000  0.2092  0.0000  0.0000  0.0000  0.0000  0.0000 </r>
       </set>
       <set comment="band 3">
        <r>  0.0780  0.0535  0.0746  0.0000  0.0000  0.0000  0.0000  0.0000  0.0000 </r>
       </set>
       <set comment="band 4">
        <r>  0.2991  0.0814  0.0098  0.0000  0.0000  0.0000  0.0000  0.0000  0.0000 </r>
       </set>
       <set comment="band 5">
        <r>  0.0000  0.0000  0.0000  0.1264  0.0000  0.0000  0.0000  0.0000  0.0000 </r>
       </set>
       <set comment="band 6">
        <r>  0.0851  0.2441  0.0042  0.0000  0.0000  0.0000  0.0000  0.0000  0.0000 </r>
       </set>
       <set comment="band 7">
        <r>  0.0252  0.0392  0.0465  0.0000  0.0000  0.0000  0.0000  0.0000  0.0000 </r>
       </set>
       <set comment="band 8">
        <r>  0.0234  0.0722  0.0387  0.0000  0.0000  0.0000  0.0000  0.0000  0.0000 </r>
       </set>
       <set comment="band 9">
        <r>  0.0000  0.0000  0.0000  0.0240  0.0000  0.0000  0.0000  0.0000  0.0000 </r>
       </set>
       <set comment="band 10">
        <r>  0.0033  0.0000  0.0031  0.0000  0.0000  0.0000  0.0000  0.0000  0.0000 </r>
       </set>
       <set comment="band 11">
        <r>  0.0595  0.0200  0.0982  0.0000  0.0000  0.0000  0.0000  0.0000  0.0000 </r>
       </set>
       <set comment="band 12">
        <r>  0.0000  0.0000  0.0000  0.0737  0.0000  0.0000  0.0000  0.0000  0.0000 </r>
       </set>
       <set comment="band 13">
        <r>  0.0000  0.0000  0.0000  0.1820  0.0000  0.0000  0.0000  0.0000  0.0000 </r>
       </set>
       <set comment="band 14">
        <r>  0.0179  0.0102  0.0473  0.0000  0.0000  0.0000  0.0000  0.0000  0.0000 </r>
       </set>
       <set comment="band 15">
        <r>  0.0969  0.0112  0.0207  0.0000  0.0000  0.0000  0.0000  0.0000  0.0000 </r>
       </set>
       <set comment="band 16">
        <r>  0.0000  0.0000  0.0000  0.0157  0.0000  0.0000  0.0000  0.0000  0.0000 </r>
       </set>
       <set comment="band 17">
        <r>  0.0648  0.0122  0.3196  0.0000  0.0000  0.0000  0.0000  0.0000  0.0000 </r>
       </set>
       <set comment="band 18">
        <r>  0.0000  0.0000  0.0000  0.0051  0.0000  0.0000  0.0000  0.0000  0.0000 </r>
       </set>
       <set comment="band 19">
        <r>  0.1649  0.0021  0.0196  0.0000  0.0000  0.0000  0.0000  0.0000  0.0000 </r>
       </set>
       <set comment="band 20">
        <r>  4.6753  0.3251  0.0309  0.0000  0.0000  0.0000  0.0000  0.0000  0.0000 </r>
       </set>
       <set comment="band 21">
        <r>  0.0000  0.0000  0.0000  0.4126  0.0000  0.0000  0.0000  0.0000  0.0000 </r>
       </set>
       <set comment="band 22">
        <r>  4.4371  0.6472  0.0352  0.0000  0.0000  0.0000  0.0000  0.0000  0.0000 </r>
       </set>
       <set comment="band 23">
        <r>  0.4518  0.0068  0.1306  0.0000  0.0000  0.0000  0.0000  0.0000  0.0000 </r>
       </set>
       <set comment="band 24">
        <r>  0.0000  0.0000  0.0000  0.8834  0.0000  0.0000  0.0000  0.0000  0.0000 </r>
       </set>
       <set comment="band 25">
        <r>  0.0023  0.1483  1.5680  0.0000  0.0000  0.0000  0.0000  0.0000  0.0000 </r>
       </set>
       <set comment="band 26">
        <r>  0.0000  0.0000  0.0000  0.1774  0.0000  0.0000  0.0000  0.0000  0.0000 </r>
       </set>
       <set comment="band 27">
        <r>  0.0230  0.6751  0.7186  0.0000  0.0000  0.0000  0.0000  0.0000  0.0000 </r>
       </set>
       <set comment="band 28">
        <r>  0.0000  0.0000  0.0000  2.7719  0.0000  0.0000  0.0000  0.0000  0.0000 </r>
       </set>
       <set comment="band 29">
        <r>  0.3166  0.0274  1.2676  0.0000  0.0000  0.0000  0.0000  0.0000  0.0000 </r>
       </set>
       <set comment="band 30">
        <r>  0.3075  2.3704  0.0116  0.0000  0.0000  0.0000  0.0000  0.0000  0.0000 </r>
       </set>
       <set comment="band 31">
        <r>  0.0000  0.0000  0.0000  0.2058  0.0000  0.0000  0.0000  0.0000  0.0000 </r>
       </set>
       <set comment="band 32">
        <r>  0.1516  0.0007  0.7625  0.0000  0.0000  0.0000  0.0000  0.0000  0.0000 </r>
       </set>
       <set comment="band 33">
        <r>  0.3866  0.3078  0.0000  0.0000  0.0000  0.0000  0.0000  0.0000  0.0000 </r>
       </set>
       <set comment="band 34">
        <r>  0.0000  0.0000  0.0000  0.0069  0.0000  0.0000  0.0000  0.0000  0.0000 </r>
       </set>
       <set comment="band 35">
        <r>  0.3276  0.0194  0.0549  0.0000  0.0000  0.0000  0.0000  0.0000  0.0000 </r>
       </set>
       <set comment="band 36">
        <r>  0.1349  0.1774  0.1652  0.0000  0.0000  0.0000  0.0000  0.0000  0.0000 </r>
       </set>
       <set comment="band 37">
        <r>  0.0000  0.0000  0.0000  0.5385  0.0000  0.0000  0.0000  0.0000  0.0000 </r>
       </set>
       <set comment="band 38">
        <r>  0.0018  0.0520  0.0126  0.0000  0.0000  0.0000  0.0000  0.0000  0.0000 </r>
       </set>
       <set comment="band 39">
        <r>  0.0000  0.0000  0.0000  0.0281  0.0000  0.0000  0.0000  0.0000  0.0000 </r>
       </set>
       <set comment="band 40">
        <r>  0.0018  0.0225  0.0133  0.0000  0.0000  0.0000  0.0000  0.0000  0.0000 </r>
       </set>
      </set>
      <set comment="kpoint 56">
       <set comment="band 1">
        <r>  0.0482  0.0367  0.0000  0.1419  0.0000  0.0000  0.0000  0.0000  0.0000 </r>
       </set>
       <set comment="band 2">
        <r>  0.0000  0.0000  0.2264  0.0000  0.0000  0.0000  0.0000  0.0000  0.0000 </r>
       </set>
       <set comment="band 3">
        <r>  0.1925  0.0659  0.0000  0.0037  0.0000  0.0000  0.0000  0.0000  0.0000 </r>
       </set>
       <set comment="band 4">
        <r>  0.2294  0.0362  0.0000  0.0760  0.0000  0.0000  0.0000  0.0000  0.0000 </r>
       </set>
       <set comment="band 5">
        <r>  0.0235  0.0859  0.0000  0.0718  0.0000  0.0000  0.0000  0.0000  0.0000 </r>
       </set>
       <set comment="band 6">
        <r>  0.0057  0.2597  0.0000  0.0287  0.0000  0.0000  0.0000  0.0000  0.0000 </r>
       </set>
       <set comment="band 7">
        <r>  0.0000  0.0000  0.0976  0.0000  0.0000  0.0000  0.0000  0.0000  0.0000 </r>
       </set>
       <set comment="band 8">
        <r>  0.0930  0.0356  0.0000  0.0180  0.0000  0.0000  0.0000  0.0000  0.0000 </r>
       </set>
       <set comment="band 9">
        <r>  0.0000  0.0000  0.0247  0.0000  0.0000  0.0000  0.0000  0.0000  0.0000 </r>
       </set>
       <set comment="band 10">
        <r>  0.0090  0.0005  0.0000  0.0334  0.0000  0.0000  0.0000  0.0000  0.0000 </r>
       </set>
       <set comment="band 11">
        <r>  0.0000  0.0000  0.0006  0.0000  0.0000  0.0000  0.0000  0.0000  0.0000 </r>
       </set>
       <set comment="band 12">
        <r>  0.0683  0.0004  0.0000  0.1213  0.0000  0.0000  0.0000  0.0000  0.0000 </r>
       </set>
       <set comment="band 13">
        <r>  0.0000  0.0000  0.1902  0.0000  0.0000  0.0000  0.0000  0.0000  0.0000 </r>
       </set>
       <set comment="band 14">
        <r>  0.0006  0.0008  0.0000  0.0056  0.0000  0.0000  0.0000  0.0000  0.0000 </r>
       </set>
       <set comment="band 15">
        <r>  0.1232  0.0049  0.0000  0.0987  0.0000  0.0000  0.0000  0.0000  0.0000 </r>
       </set>
       <set comment="band 16">
        <r>  0.0000  0.0000  0.0108  0.0000  0.0000  0.0000  0.0000  0.0000  0.0000 </r>
       </set>
       <set comment="band 17">
        <r>  0.0000  0.0000  0.2930  0.0000  0.0000  0.0000  0.0000  0.0000  0.0000 </r>
       </set>
       <set comment="band 18">
        <r>  0.0369  0.0574  0.0000  0.1881  0.0000  0.0000  0.0000  0.0000  0.0000 </r>
       </set>
       <set comment="band 19">
        <r>  6.5769  0.2220  0.0000  0.0008  0.0000  0.0000  0.0000  0.0000  0.0000 </r>
       </set>
       <set comment="band 20">
        <r>  1.2899  0.2318  0.0000  0.1293  0.0000  0.0000  0.0000  0.0000  0.0000 </r>
       </set>
       <set comment="band 21">
        <r>  1.5537  0.4950  0.0000  0.0530  0.0000  0.0000  0.0000  0.0000  0.0000 </r>
       </set>
       <set comment="band 22">
        <r>  0.0000  0.0000  0.2328  0.0000  0.0000  0.0000  0.0000  0.0000  0.0000 </r>
       </set>
       <set comment="band 23">
        <r>  0.0000  0.0000  0.0703  0.0000  0.0000  0.0000  0.0000  0.0000  0.0000 </r>
       </set>
       <set comment="band 24">
        <r>  0.1799  0.1145  0.0000  0.8395  0.0000  0.0000  0.0000  0.0000  0.0000 </r>
       </set>
       <set comment="band 25">
        <r>  0.1752  0.2644  0.0000  0.0387  0.0000  0.0000  0.0000  0.0000  0.0000 </r>
       </set>
       <set comment="band 26">
        <r>  0.0000  0.0000  0.5541  0.0000  0.0000  0.0000  0.0000  0.0000  0.0000 </r>
       </set>
       <set comment="band 27">
        <r>  0.0000  0.0000  1.4675  0.0000  0.0000  0.0000  0.0000  0.0000  0.0000 </r>
       </set>
       <set comment="band 28">
        <r>  0.0632  0.0054  0.0000  1.9695  0.0000  0.0000  0.0000  0.0000  0.0000 </r>
       </set>
       <set comment="band 29">
        <r>  0.2343  0.3566  0.0000  0.8520  0.0000  0.0000  0.0000  0.0000  0.0000 </r>
       </set>
       <set comment="band 30">
        <r>  0.0000  0.0000  2.0212  0.0000  0.0000  0.0000  0.0000  0.0000  0.0000 </r>
       </set>
       <set comment="band 31">
        <r>  0.0009  2.7598  0.0000  0.2199  0.0000  0.0000  0.0000  0.0000  0.0000 </r>
       </set>
       <set comment="band 32">
        <r>  0.4759  0.0104  0.0000  0.3358  0.0000  0.0000  0.0000  0.0000  0.0000 </r>
       </set>
       <set comment="band 33">
        <r>  0.2640  0.0695  0.0000  0.0372  0.0000  0.0000  0.0000  0.0000  0.0000 </r>
       </set>
       <set comment="band 34">
        <r>  0.4592  0.1375  0.0000  0.0004  0.0000  0.0000  0.0000  0.0000  0.0000 </r>
       </set>
       <set comment="band 35">
        <r>  0.0000  0.0000  0.2622  0.0000  0.0000  0.0000  0.0000  0.0000  0.0000 </r>
       </set>
       <set comment="band 36">
        <r>  0.1551  0.0032  0.0000  0.0313  0.0000  0.0000  0.0000  0.0000  0.0000 </r>
       </set>
       <set comment="band 37">
        <r>  0.0000  0.0000  0.0989  0.0000  0.0000  0.0000  0.0000  0.0000  0.0000 </r>
       </set>
       <set comment="band 38">
        <r>  0.0469  0.0221  0.0000  0.3976  0.0000  0.0000  0.0000  0.0000  0.0000 </r>
       </set>
       <set comment="band 39">
        <r>  0.0030  0.0263  0.0000  0.0165  0.0000  0.0000  0.0000  0.0000  0.0000 </r>
       </set>
       <set comment="band 40">
        <r>  0.0000  0.0000  0.1827  0.0000  0.0000  0.0000  0.0000  0.0000  0.0000 </r>
       </set>
      </set>
     </set>
    </set>
   </array>
  </projected>
 </calculation>
 <structure name="finalpos" >
  <crystal>
   <varray name="basis" >
    <v>       0.00000000       2.02400000       2.02400000 </v>
    <v>       2.02400000       0.00000000       2.02400000 </v>
    <v>       2.02400000       2.02400000       0.00000000 </v>
   </varray>
   <i name="volume">     16.58293965 </i>
   <varray name="rec_basis" >
    <v>      -0.24703557       0.24703557       0.24703557 </v>
    <v>       0.24703557      -0.24703557       0.24703557 </v>
    <v>       0.24703557       0.24703557      -0.24703557 </v>
   </varray>
  </crystal>
  <varray name="positions" >
   <v>       0.00000000       0.00000000       0.00000000 </v>
  </varray>
 </structure>
</modeling>
