 vasp.6.2.1 16May21 (build Aug 15 2022 14:47:30) complex                         
 executed on             LinuxGNU date 2025.12.11  13:49:20
 running on   48 total cores
 distrk:  each k-point on   48 cores,    1 groups
 distr:  one band on NCORE=   1 cores,   48 groups


--------------------------------------------------------------------------------------------------------


 INCAR:
   ALGO = Fast
   EDIFF = 5e-05
   ENCUT = 520.0
   ISMEAR = -5
   ISPIN = 2
   LASPH = True
   LCHARG = True
   LORBIT = 11
   LREAL = False
   LWAVE = False
   MAGMOM = 1*0.6
   NELM = 100
   NSW = 0
   PREC = Accurate
   SIGMA = 0.05

 POTCAR:    PAW_PBE Al 04Jan2001                  
 -----------------------------------------------------------------------------
|                                                                             |
|           W    W    AA    RRRRR   N    N  II  N    N   GGGG   !!!           |
|           W    W   A  A   R    R  NN   N  II  NN   N  G    G  !!!           |
|           W    W  A    A  R    R  N N  N  II  N N  N  G       !!!           |
|           W WW W  AAAAAA  RRRRR   N  N N  II  N  N N  G  GGG   !            |
|           WW  WW  A    A  R   R   N   NN  II  N   NN  G    G                |
|           W    W  A    A  R    R  N    N  II  N    N   GGGG   !!!           |
|                                                                             |
|     For optimal performance we recommend to set                             |
|       NCORE = 2 up to number-of-cores-per-socket                            |
|     NCORE specifies how many cores store one orbital (NPAR=cpu/NCORE).      |
|     This setting can greatly improve the performance of VASP for DFT.       |
|     The default, NCORE=1 might be grossly inefficient on modern             |
|     multi-core architectures or massively parallel machines. Do your        |
|     own testing! More info at https://www.vasp.at/wiki/index.php/NCORE      |
|     Unfortunately you need to use the default for GW and RPA                |
|     calculations (for HF NCORE is supported but not extensively tested      |
|     yet).                                                                   |
|                                                                             |
 -----------------------------------------------------------------------------

 POTCAR:    PAW_PBE Al 04Jan2001                  
   VRHFIN =Al: s2p1                                                                                 
   LEXCH  = PE                                                                                      
   EATOM  =    53.5387 eV,    3.9350 Ry                                                             
                                                                                                    
   TITEL  = PAW_PBE Al 04Jan2001                                                                    
   LULTRA =        F    use ultrasoft PP ?                                                          
   IUNSCR =        1    unscreen: 0-lin 1-nonlin 2-no                                               
   RPACOR =    1.500    partial core radius                                                         
   POMASS =   26.981; ZVAL   =    3.000    mass and valenz                                          
   RCORE  =    1.900    outmost cutoff radius                                                       
   RWIGS  =    2.650; RWIGS  =    1.402    wigner-seitz radius (au A)                               
   ENMAX  =  240.300; ENMIN  =  180.225 eV                                                          
   ICORE  =        2    local potential                                                             
   LCOR   =        T    correct aug charges                                                         
   LPAW   =        T    paw PP                                                                      
   EAUG   =  291.052                                                                                
   DEXC   =    0.000                                                                                
   RMAX   =    1.939    core radius for proj-oper                                                   
   RAUG   =    1.300    factor for augmentation sphere                                              
   RDEP   =    1.966    radius for radial grids                                                     
   RDEPT  =    1.856    core radius for aug-charge                                                  
                                                                                                    
   Atomic configuration                                                                             
    6 entries                                                                                       
     n  l   j            E        occ.                                                              
     1  0  0.50     -1511.1048   2.0000                                                             
     2  0  0.50      -108.1629   2.0000                                                             
     2  1  1.50       -69.6402   6.0000                                                             
     3  0  0.50        -7.7528   2.0000                                                             
     3  1  1.50        -2.7121   1.0000                                                             
     3  2  2.50        -2.7212   0.0000                                                             
   Description                                                                                      
     l       E           TYP  RCUT    TYP  RCUT                                                     
     0     -7.7528455     23  1.900                                                                 
     0     -3.3096929     23  1.900                                                                 
     1     -2.7120682     23  1.900                                                                 
     1     13.6058260     23  1.900                                                                 
     2     -2.7211652      7  1.900                                                                 
  local pseudopotential read in
  partial core-charges read in
  partial kinetic energy density read in
  atomic valenz-charges read in
  non local Contribution for L=           0  read in
    real space projection operators read in
  non local Contribution for L=           0  read in
    real space projection operators read in
  non local Contribution for L=           1  read in
    real space projection operators read in
  non local Contribution for L=           1  read in
    real space projection operators read in
    PAW grid and wavefunctions read in

   number of l-projection  operators is LMAX  =           4
   number of lm-projection operators is LMMAX =           8

  PAW_PBE Al 04Jan2001                  :
 energy of atom  1       EATOM=  -53.5387
 kinetic energy error for atom=    0.0002 (will be added to EATOM!!)


 POSCAR: # Generated by Masgent for k-point conve
  positions in direct lattice
  No initial velocities read in
 exchange correlation table for  LEXCH =        8
   RHO(1)=    0.500       N(1)  =     2000
   RHO(2)=  100.500       N(2)  =     4000

 VTST: version 4.2, (08/11/21)

 CHAIN: initializing optimizer
 
 OPT: Using VASP Dynamics algorithm
 CHAIN: Read ICHAIN            0

 POSCAR: # Generated by Masgent for k-point conve
  positions in direct lattice
  No initial velocities read in



--------------------------------------------------------------------------------------------------------


 ion  position               nearest neighbor table
   1  0.000  0.000  0.000-

  LATTYP: Found a face centered cubic cell.
 ALAT       =     4.0480000000
  
  Lattice vectors:
  
 A1 = (   0.0000000000,   2.0240000000,   2.0240000000)
 A2 = (   2.0240000000,   0.0000000000,   2.0240000000)
 A3 = (   2.0240000000,   2.0240000000,   0.0000000000)


Analysis of symmetry for initial positions (statically):
=====================================================================
 Subroutine PRICEL returns:
 Original cell was already a primitive cell.
 

 Routine SETGRP: Setting up the symmetry group for a 
 face centered cubic supercell.


 Subroutine GETGRP returns: Found 48 space group operations
 (whereof 48 operations were pure point group operations)
 out of a pool of 48 trial point group operations.


The static configuration has the point symmetry O_h .


Analysis of symmetry for dynamics (positions and initial velocities):
=====================================================================
 Subroutine PRICEL returns:
 Original cell was already a primitive cell.
 

 Routine SETGRP: Setting up the symmetry group for a 
 face centered cubic supercell.


 Subroutine GETGRP returns: Found 48 space group operations
 (whereof 48 operations were pure point group operations)
 out of a pool of 48 trial point group operations.


The dynamic configuration has the point symmetry O_h .


Analysis of structural, dynamic, and magnetic symmetry:
=====================================================================
 Subroutine PRICEL returns:
 Original cell was already a primitive cell.
 

 Routine SETGRP: Setting up the symmetry group for a 
 face centered cubic supercell.


 Subroutine GETGRP returns: Found 48 space group operations
 (whereof 48 operations were pure point group operations)
 out of a pool of 48 trial point group operations.


The overall configuration has the point symmetry O_h .


 Subroutine INISYM returns: Found 48 space group operations
 (whereof 48 operations are pure point group operations),
 and found     1 'primitive' translations


----------------------------------------------------------------------------------------

                                     Primitive cell                                     

  volume of cell :      16.5829

  direct lattice vectors                    reciprocal lattice vectors
     0.000000000  2.024000000  2.024000000    -0.247035573  0.247035573  0.247035573
     2.024000000  0.000000000  2.024000000     0.247035573 -0.247035573  0.247035573
     2.024000000  2.024000000  0.000000000     0.247035573  0.247035573 -0.247035573

  length of vectors
     2.862368250  2.862368250  2.862368250     0.427878164  0.427878164  0.427878164

  position of ions in fractional coordinates (direct lattice)
     0.000000000  0.000000000  0.000000000

  ion indices of the primitive-cell ions
   primitive index   ion index
                 1           1

----------------------------------------------------------------------------------------



 KPOINTS: # Generated by Masgent for k-point conve

Automatic generation of k-mesh.
 Grid dimensions read from file:
 generate k-points for:   16   16   16

 Generating k-lattice:

  Cartesian coordinates                     Fractional coordinates (reciprocal lattice)
    -0.015439723  0.015439723  0.015439723     0.062500000  0.000000000  0.000000000
     0.015439723 -0.015439723  0.015439723     0.000000000  0.062500000  0.000000000
     0.015439723  0.015439723 -0.015439723     0.000000000  0.000000000  0.062500000

  Length of vectors
     0.026742385  0.026742385  0.026742385

  Shift w.r.t. Gamma in fractional coordinates (k-lattice)
     0.000000000  0.000000000  0.000000000

 TETIRR: Found    570 inequivalent tetrahedra from    24576
 
 Subroutine IBZKPT returns following result:
 ===========================================
 
 Found    145 irreducible k-points:
 
 Following reciprocal coordinates:
            Coordinates               Weight
  0.000000  0.000000  0.000000      1.000000
  0.062500  0.000000  0.000000      8.000000
  0.125000  0.000000  0.000000      8.000000
  0.187500  0.000000  0.000000      8.000000
  0.250000  0.000000  0.000000      8.000000
  0.312500  0.000000  0.000000      8.000000
  0.375000  0.000000  0.000000      8.000000
  0.437500  0.000000  0.000000      8.000000
  0.500000  0.000000  0.000000      4.000000
  0.062500  0.062500  0.000000      6.000000
  0.125000  0.062500  0.000000     24.000000
  0.187500  0.062500  0.000000     24.000000
  0.250000  0.062500  0.000000     24.000000
  0.312500  0.062500  0.000000     24.000000
  0.375000  0.062500  0.000000     24.000000
  0.437500  0.062500  0.000000     24.000000
  0.500000  0.062500  0.000000     24.000000
 -0.437500  0.062500  0.000000     24.000000
 -0.375000  0.062500  0.000000     24.000000
 -0.312500  0.062500  0.000000     24.000000
 -0.250000  0.062500  0.000000     24.000000
 -0.187500  0.062500  0.000000     24.000000
 -0.125000  0.062500  0.000000     24.000000
 -0.062500  0.062500  0.000000     12.000000
  0.125000  0.125000  0.000000      6.000000
  0.187500  0.125000  0.000000     24.000000
  0.250000  0.125000  0.000000     24.000000
  0.312500  0.125000  0.000000     24.000000
  0.375000  0.125000  0.000000     24.000000
  0.437500  0.125000  0.000000     24.000000
  0.500000  0.125000  0.000000     24.000000
 -0.437500  0.125000  0.000000     24.000000
 -0.375000  0.125000  0.000000     24.000000
 -0.312500  0.125000  0.000000     24.000000
 -0.250000  0.125000  0.000000     24.000000
 -0.187500  0.125000  0.000000     24.000000
 -0.125000  0.125000  0.000000     12.000000
  0.187500  0.187500  0.000000      6.000000
  0.250000  0.187500  0.000000     24.000000
  0.312500  0.187500  0.000000     24.000000
  0.375000  0.187500  0.000000     24.000000
  0.437500  0.187500  0.000000     24.000000
  0.500000  0.187500  0.000000     24.000000
 -0.437500  0.187500  0.000000     24.000000
 -0.375000  0.187500  0.000000     24.000000
 -0.312500  0.187500  0.000000     24.000000
 -0.250000  0.187500  0.000000     24.000000
 -0.187500  0.187500  0.000000     12.000000
  0.250000  0.250000  0.000000      6.000000
  0.312500  0.250000  0.000000     24.000000
  0.375000  0.250000  0.000000     24.000000
  0.437500  0.250000  0.000000     24.000000
  0.500000  0.250000  0.000000     24.000000
 -0.437500  0.250000  0.000000     24.000000
 -0.375000  0.250000  0.000000     24.000000
 -0.312500  0.250000  0.000000     24.000000
 -0.250000  0.250000  0.000000     12.000000
  0.312500  0.312500  0.000000      6.000000
  0.375000  0.312500  0.000000     24.000000
  0.437500  0.312500  0.000000     24.000000
  0.500000  0.312500  0.000000     24.000000
 -0.437500  0.312500  0.000000     24.000000
 -0.375000  0.312500  0.000000     24.000000
 -0.312500  0.312500  0.000000     12.000000
  0.375000  0.375000  0.000000      6.000000
  0.437500  0.375000  0.000000     24.000000
  0.500000  0.375000  0.000000     24.000000
 -0.437500  0.375000  0.000000     24.000000
 -0.375000  0.375000  0.000000     12.000000
  0.437500  0.437500  0.000000      6.000000
  0.500000  0.437500  0.000000     24.000000
 -0.437500  0.437500  0.000000     12.000000
  0.500000  0.500000  0.000000      3.000000
  0.187500  0.125000  0.062500     24.000000
  0.250000  0.125000  0.062500     48.000000
  0.312500  0.125000  0.062500     48.000000
  0.375000  0.125000  0.062500     48.000000
  0.437500  0.125000  0.062500     48.000000
  0.500000  0.125000  0.062500     48.000000
 -0.437500  0.125000  0.062500     24.000000
  0.250000  0.187500  0.062500     24.000000
  0.312500  0.187500  0.062500     48.000000
  0.375000  0.187500  0.062500     48.000000
  0.437500  0.187500  0.062500     48.000000
  0.500000  0.187500  0.062500     48.000000
 -0.437500  0.187500  0.062500     48.000000
 -0.375000  0.187500  0.062500     48.000000
 -0.312500  0.187500  0.062500     48.000000
 -0.250000  0.187500  0.062500     48.000000
 -0.187500  0.187500  0.062500     48.000000
 -0.125000  0.187500  0.062500     24.000000
  0.312500  0.250000  0.062500     24.000000
  0.375000  0.250000  0.062500     48.000000
  0.437500  0.250000  0.062500     48.000000
  0.500000  0.250000  0.062500     48.000000
 -0.437500  0.250000  0.062500     48.000000
 -0.375000  0.250000  0.062500     48.000000
 -0.312500  0.250000  0.062500     48.000000
 -0.250000  0.250000  0.062500     48.000000
 -0.187500  0.250000  0.062500     24.000000
  0.375000  0.312500  0.062500     24.000000
  0.437500  0.312500  0.062500     48.000000
  0.500000  0.312500  0.062500     48.000000
 -0.437500  0.312500  0.062500     48.000000
 -0.375000  0.312500  0.062500     48.000000
 -0.312500  0.312500  0.062500     48.000000
 -0.250000  0.312500  0.062500     24.000000
  0.437500  0.375000  0.062500     24.000000
  0.500000  0.375000  0.062500     48.000000
 -0.437500  0.375000  0.062500     48.000000
 -0.375000  0.375000  0.062500     48.000000
 -0.312500  0.375000  0.062500     24.000000
  0.500000  0.437500  0.062500     24.000000
 -0.437500  0.437500  0.062500     48.000000
 -0.375000  0.437500  0.062500     24.000000
 -0.437500  0.500000  0.062500     12.000000
  0.375000  0.250000  0.125000     24.000000
  0.437500  0.250000  0.125000     48.000000
  0.500000  0.250000  0.125000     48.000000
 -0.437500  0.250000  0.125000     48.000000
 -0.375000  0.250000  0.125000     24.000000
  0.437500  0.312500  0.125000     24.000000
  0.500000  0.312500  0.125000     48.000000
 -0.437500  0.312500  0.125000     48.000000
 -0.375000  0.312500  0.125000     48.000000
 -0.312500  0.312500  0.125000     48.000000
 -0.250000  0.312500  0.125000     48.000000
 -0.187500  0.312500  0.125000     24.000000
  0.500000  0.375000  0.125000     24.000000
 -0.437500  0.375000  0.125000     48.000000
 -0.375000  0.375000  0.125000     48.000000
 -0.312500  0.375000  0.125000     48.000000
 -0.250000  0.375000  0.125000     24.000000
 -0.437500  0.437500  0.125000     24.000000
 -0.375000  0.437500  0.125000     48.000000
 -0.312500  0.437500  0.125000     24.000000
 -0.375000  0.500000  0.125000     12.000000
 -0.437500  0.375000  0.187500     24.000000
 -0.375000  0.375000  0.187500     48.000000
 -0.312500  0.375000  0.187500     24.000000
 -0.375000  0.437500  0.187500     24.000000
 -0.312500  0.437500  0.187500     48.000000
 -0.250000  0.437500  0.187500     24.000000
 -0.312500  0.500000  0.187500     12.000000
 -0.250000  0.500000  0.250000      6.000000
 
 Following cartesian coordinates:
            Coordinates               Weight
  0.000000  0.000000  0.000000      1.000000
 -0.015440  0.015440  0.015440      8.000000
 -0.030879  0.030879  0.030879      8.000000
 -0.046319  0.046319  0.046319      8.000000
 -0.061759  0.061759  0.061759      8.000000
 -0.077199  0.077199  0.077199      8.000000
 -0.092638  0.092638  0.092638      8.000000
 -0.108078  0.108078  0.108078      8.000000
 -0.123518  0.123518  0.123518      4.000000
  0.000000  0.000000  0.030879      6.000000
 -0.015440  0.015440  0.046319     24.000000
 -0.030879  0.030879  0.061759     24.000000
 -0.046319  0.046319  0.077199     24.000000
 -0.061759  0.061759  0.092638     24.000000
 -0.077199  0.077199  0.108078     24.000000
 -0.092638  0.092638  0.123518     24.000000
 -0.108078  0.108078  0.138958     24.000000
  0.123518 -0.123518 -0.092638     24.000000
  0.108078 -0.108078 -0.077199     24.000000
  0.092638 -0.092638 -0.061759     24.000000
  0.077199 -0.077199 -0.046319     24.000000
  0.061759 -0.061759 -0.030879     24.000000
  0.046319 -0.046319 -0.015440     24.000000
  0.030879 -0.030879  0.000000     12.000000
  0.000000  0.000000  0.061759      6.000000
 -0.015440  0.015440  0.077199     24.000000
 -0.030879  0.030879  0.092638     24.000000
 -0.046319  0.046319  0.108078     24.000000
 -0.061759  0.061759  0.123518     24.000000
 -0.077199  0.077199  0.138958     24.000000
 -0.092638  0.092638  0.154397     24.000000
  0.138958 -0.138958 -0.077199     24.000000
  0.123518 -0.123518 -0.061759     24.000000
  0.108078 -0.108078 -0.046319     24.000000
  0.092638 -0.092638 -0.030879     24.000000
  0.077199 -0.077199 -0.015440     24.000000
  0.061759 -0.061759  0.000000     12.000000
  0.000000  0.000000  0.092638      6.000000
 -0.015440  0.015440  0.108078     24.000000
 -0.030879  0.030879  0.123518     24.000000
 -0.046319  0.046319  0.138958     24.000000
 -0.061759  0.061759  0.154397     24.000000
 -0.077199  0.077199  0.169837     24.000000
  0.154397 -0.154397 -0.061759     24.000000
  0.138958 -0.138958 -0.046319     24.000000
  0.123518 -0.123518 -0.030879     24.000000
  0.108078 -0.108078 -0.015440     24.000000
  0.092638 -0.092638  0.000000     12.000000
  0.000000  0.000000  0.123518      6.000000
 -0.015440  0.015440  0.138958     24.000000
 -0.030879  0.030879  0.154397     24.000000
 -0.046319  0.046319  0.169837     24.000000
 -0.061759  0.061759  0.185277     24.000000
  0.169837 -0.169837 -0.046319     24.000000
  0.154397 -0.154397 -0.030879     24.000000
  0.138958 -0.138958 -0.015440     24.000000
  0.123518 -0.123518  0.000000     12.000000
  0.000000  0.000000  0.154397      6.000000
 -0.015440  0.015440  0.169837     24.000000
 -0.030879  0.030879  0.185277     24.000000
 -0.046319  0.046319  0.200716     24.000000
  0.185277 -0.185277 -0.030879     24.000000
  0.169837 -0.169837 -0.015440     24.000000
  0.154397 -0.154397  0.000000     12.000000
  0.000000  0.000000  0.185277      6.000000
 -0.015440  0.015440  0.200716     24.000000
 -0.030879  0.030879  0.216156     24.000000
  0.200716 -0.200716 -0.015440     24.000000
  0.185277 -0.185277  0.000000     12.000000
  0.000000  0.000000  0.216156      6.000000
 -0.015440  0.015440  0.231596     24.000000
  0.216156 -0.216156  0.000000     12.000000
  0.000000  0.000000  0.247036      3.000000
  0.000000  0.030879  0.061759     24.000000
 -0.015440  0.046319  0.077199     48.000000
 -0.030879  0.061759  0.092638     48.000000
 -0.046319  0.077199  0.108078     48.000000
 -0.061759  0.092638  0.123518     48.000000
 -0.077199  0.108078  0.138958     48.000000
  0.154397 -0.123518 -0.092638     24.000000
  0.000000  0.030879  0.092638     24.000000
 -0.015440  0.046319  0.108078     48.000000
 -0.030879  0.061759  0.123518     48.000000
 -0.046319  0.077199  0.138958     48.000000
 -0.061759  0.092638  0.154397     48.000000
  0.169837 -0.138958 -0.077199     48.000000
  0.154397 -0.123518 -0.061759     48.000000
  0.138958 -0.108078 -0.046319     48.000000
  0.123518 -0.092638 -0.030879     48.000000
  0.108078 -0.077199 -0.015440     48.000000
  0.092638 -0.061759  0.000000     24.000000
  0.000000  0.030879  0.123518     24.000000
 -0.015440  0.046319  0.138958     48.000000
 -0.030879  0.061759  0.154397     48.000000
 -0.046319  0.077199  0.169837     48.000000
  0.185277 -0.154397 -0.061759     48.000000
  0.169837 -0.138958 -0.046319     48.000000
  0.154397 -0.123518 -0.030879     48.000000
  0.138958 -0.108078 -0.015440     48.000000
  0.123518 -0.092638  0.000000     24.000000
  0.000000  0.030879  0.154397     24.000000
 -0.015440  0.046319  0.169837     48.000000
 -0.030879  0.061759  0.185277     48.000000
  0.200716 -0.169837 -0.046319     48.000000
  0.185277 -0.154397 -0.030879     48.000000
  0.169837 -0.138958 -0.015440     48.000000
  0.154397 -0.123518  0.000000     24.000000
  0.000000  0.030879  0.185277     24.000000
 -0.015440  0.046319  0.200716     48.000000
  0.216156 -0.185277 -0.030879     48.000000
  0.200716 -0.169837 -0.015440     48.000000
  0.185277 -0.154397  0.000000     24.000000
  0.000000  0.030879  0.216156     24.000000
  0.231596 -0.200716 -0.015440     48.000000
  0.216156 -0.185277  0.000000     24.000000
  0.247036 -0.216156  0.000000     12.000000
  0.000000  0.061759  0.123518     24.000000
 -0.015440  0.077199  0.138958     48.000000
 -0.030879  0.092638  0.154397     48.000000
  0.200716 -0.138958 -0.077199     48.000000
  0.185277 -0.123518 -0.061759     24.000000
  0.000000  0.061759  0.154397     24.000000
 -0.015440  0.077199  0.169837     48.000000
  0.216156 -0.154397 -0.061759     48.000000
  0.200716 -0.138958 -0.046319     48.000000
  0.185277 -0.123518 -0.030879     48.000000
  0.169837 -0.108078 -0.015440     48.000000
  0.154397 -0.092638  0.000000     24.000000
  0.000000  0.061759  0.185277     24.000000
  0.231596 -0.169837 -0.046319     48.000000
  0.216156 -0.154397 -0.030879     48.000000
  0.200716 -0.138958 -0.015440     48.000000
  0.185277 -0.123518  0.000000     24.000000
  0.247036 -0.185277 -0.030879     24.000000
  0.231596 -0.169837 -0.015440     48.000000
  0.216156 -0.154397  0.000000     24.000000
  0.247036 -0.185277  0.000000     12.000000
  0.247036 -0.154397 -0.061759     24.000000
  0.231596 -0.138958 -0.046319     48.000000
  0.216156 -0.123518 -0.030879     24.000000
  0.247036 -0.154397 -0.030879     24.000000
  0.231596 -0.138958 -0.015440     48.000000
  0.216156 -0.123518  0.000000     24.000000
  0.247036 -0.154397  0.000000     12.000000
  0.247036 -0.123518  0.000000      6.000000
 


--------------------------------------------------------------------------------------------------------




 Dimension of arrays:
   k-points           NKPTS =    145   k-points in BZ     NKDIM =    145   number of bands    NBANDS=     48
   number of dos      NEDOS =    301   number of ions     NIONS =      1
   non local maximal  LDIM  =      4   non local SUM 2l+1 LMDIM =      8
   total plane-waves  NPLWV =  13824
   max r-space proj   IRMAX =      1   max aug-charges    IRDMAX=  32640
   dimension x,y,z NGX =    24 NGY =   24 NGZ =   24
   dimension x,y,z NGXF=    48 NGYF=   48 NGZF=   48
   support grid    NGXF=    48 NGYF=   48 NGZF=   48
   ions per type =               1
   NGX,Y,Z   is equivalent  to a cutoff of  13.94, 13.94, 13.94 a.u.
   NGXF,Y,Z  is equivalent  to a cutoff of  27.88, 27.88, 27.88 a.u.

 SYSTEM =  unknown system                          
 POSCAR =  # Generated by Masgent for k-point conve

 Startparameter for this run:
   NWRITE =      2    write-flag & timer
   PREC   = accura    normal or accurate (medium, high low for compatibility)
   ISTART =      0    job   : 0-new  1-cont  2-samecut
   ICHARG =      2    charge: 1-file 2-atom 10-const
   ISPIN  =      2    spin polarized calculation?
   LNONCOLLINEAR =      F non collinear calculations
   LSORBIT =      F    spin-orbit coupling
   INIWAV =      1    electr: 0-lowe 1-rand  2-diag
   LASPH  =      T    aspherical Exc in radial PAW
 Electronic Relaxation 1
   ENCUT  =  520.0 eV  38.22 Ry    6.18 a.u.   5.32  5.32  5.32*2*pi/ulx,y,z
   ENINI  =  520.0     initial cutoff
   ENAUG  =  291.1 eV  augmentation charge cutoff
   NELM   =    100;   NELMIN=  2; NELMDL= -5     # of ELM steps 
   EDIFF  = 0.5E-04   stopping-criterion for ELM
   LREAL  =      F    real-space projection
   NLSPLINE    = F    spline interpolate recip. space projectors
   LCOMPAT=      F    compatible to vasp.4.4
   GGA_COMPAT  = T    GGA compatible to vasp.4.4-vasp.4.6
   LMAXPAW     = -100 max onsite density
   LMAXMIX     =    2 max onsite mixed and CHGCAR
   VOSKOWN=      0    Vosko Wilk Nusair interpolation
   ROPT   =    0.00000
 Ionic relaxation
   EDIFFG = 0.5E-03   stopping-criterion for IOM
   NSW    =      0    number of steps for IOM
   NBLOCK =      1;   KBLOCK =      1    inner block; outer block 
   IBRION =     -1    ionic relax: 0-MD 1-quasi-New 2-CG
   NFREE  =      0    steps in history (QN), initial steepest desc. (CG)
   ISIF   =      2    stress and relaxation
   IWAVPR =     10    prediction:  0-non 1-charg 2-wave 3-comb
   ISYM   =      2    0-nonsym 1-usesym 2-fastsym
   LCORR  =      T    Harris-Foulkes like correction to forces

   POTIM  = 0.5000    time-step for ionic-motion
   TEIN   =    0.0    initial temperature
   TEBEG  =    0.0;   TEEND  =   0.0 temperature during run
   SMASS  =  -3.00    Nose mass-parameter (am)
   estimated Nose-frequenzy (Omega)   =  0.10E-29 period in steps = 0.13E+47 mass=  -0.187E-27a.u.
   SCALEE = 1.0000    scale energy and forces
   NPACO  =    256;   APACO  = 16.0  distance and # of slots for P.C.
   PSTRESS=    0.0 pullay stress

  Mass of Ions in am
   POMASS =  26.98
  Ionic Valenz
   ZVAL   =   3.00
  Atomic Wigner-Seitz radii
   RWIGS  =  -1.00
  virtual crystal weights 
   VCA    =   1.00
   NELECT =       3.0000    total number of electrons
   NUPDOWN=      -1.0000    fix difference up-down

 DOS related values:
   EMIN   =  10.00;   EMAX   =-10.00  energy-range for DOS
   EFERMI =   0.00
   ISMEAR =    -5;   SIGMA  =   0.05  broadening in eV -4-tet -1-fermi 0-gaus

 Electronic relaxation 2 (details)
   IALGO  =     68    algorithm
   LDIAG  =      T    sub-space diagonalisation (order eigenvalues)
   LSUBROT=      F    optimize rotation matrix (better conditioning)
   TURBO    =      0    0=normal 1=particle mesh
   IRESTART =      0    0=no restart 2=restart with 2 vectors
   NREBOOT  =      0    no. of reboots
   NMIN     =      0    reboot dimension
   EREF     =   0.00    reference energy to select bands
   IMIX   =      4    mixing-type and parameters
     AMIX     =   0.40;   BMIX     =  1.00
     AMIX_MAG =   1.60;   BMIX_MAG =  1.00
     AMIN     =   0.10
     WC   =   100.;   INIMIX=   1;  MIXPRE=   1;  MAXMIX= -45

 Intra band minimization:
   WEIMIN = 0.0000     energy-eigenvalue tresh-hold
   EBREAK =  0.26E-06  absolut break condition
   DEPER  =   0.30     relativ break condition  

   TIME   =   0.40     timestep for ELM

  volume/ion in A,a.u.               =      16.58       111.91
  Fermi-wavevector in a.u.,A,eV,Ry     =   0.925894  1.749687 11.664006  0.857280
  Thomas-Fermi vector in A             =   2.051798

 Write flags
   LWAVE        =      F    write WAVECAR
   LDOWNSAMPLE  =      F    k-point downsampling of WAVECAR
   LCHARG       =      T    write CHGCAR
   LVTOT        =      F    write LOCPOT, total local potential
   LVHAR        =      F    write LOCPOT, Hartree potential only
   LELF         =      F    write electronic localiz. function (ELF)
   LORBIT       =     11    0 simple, 1 ext, 2 COOP (PROOUT), +10 PAW based schemes


 Dipole corrections
   LMONO  =      F    monopole corrections only (constant potential shift)
   LDIPOL =      F    correct potential (dipole corrections)
   IDIPOL =      0    1-x, 2-y, 3-z, 4-all directions 
   EPSILON=  1.0000000 bulk dielectric constant

 Exchange correlation treatment:
   GGA     =    --    GGA type
   LEXCH   =     8    internal setting for exchange type
   VOSKOWN=      0    Vosko Wilk Nusair interpolation
   LHFCALC =     F    Hartree Fock is set to
   LHFONE  =     F    Hartree Fock one center treatment
   AEXX    =    0.0000 exact exchange contribution

 Linear response parameters
   LEPSILON=     F    determine dielectric tensor
   LRPA    =     F    only Hartree local field effects (RPA)
   LNABLA  =     F    use nabla operator in PAW spheres
   LVEL    =     F    velocity operator in full k-point grid
   LINTERFAST=   F  fast interpolation
   KINTER  =     0    interpolate to denser k-point grid
   CSHIFT  =0.1000    complex shift for real part using Kramers Kronig
   OMEGAMAX=  -1.0    maximum frequency
   DEG_THRESHOLD= 0.2000000E-02 threshold for treating states as degnerate
   RTIME   =   -0.100 relaxation time in fs
  (WPLASMAI=    0.000 imaginary part of plasma frequency in eV, 0.658/RTIME)
   DFIELD  = 0.0000000 0.0000000 0.0000000 field for delta impulse in time

 Orbital magnetization related:
   ORBITALMAG=     F  switch on orbital magnetization
   LCHIMAG   =     F  perturbation theory with respect to B field
   DQ        =  0.001000  dq finite difference perturbation B field
   LLRAUG    =     F  two centre corrections for induced B field



--------------------------------------------------------------------------------------------------------


 Static calculation
 charge density and potential will be updated during run
 spin polarized calculation
 RMM-DIIS sequential band-by-band and
  variant of blocked Davidson during initial phase
 perform sub-space diagonalisation
    before iterative eigenvector-optimisation
 modified Broyden-mixing scheme, WC =      100.0
 initial mixing is a Kerker type mixing with AMIX =  0.4000 and BMIX =      1.0000
 Hartree-type preconditioning will be used
 using additional bands           46
 reciprocal scheme for non local part
 use partial core corrections
 calculate Harris-corrections to forces   (improved forces if not selfconsistent)
 use gradient corrections 
 use of overlap-Matrix (Vanderbilt PP)
 Fermi weights with tetrahedron method with Bloechl corrections


--------------------------------------------------------------------------------------------------------


  energy-cutoff  :      520.00
  volume of cell :       16.58
      direct lattice vectors                 reciprocal lattice vectors
     0.000000000  2.024000000  2.024000000    -0.247035573  0.247035573  0.247035573
     2.024000000  0.000000000  2.024000000     0.247035573 -0.247035573  0.247035573
     2.024000000  2.024000000  0.000000000     0.247035573  0.247035573 -0.247035573

  length of vectors
     2.862368250  2.862368250  2.862368250     0.427878164  0.427878164  0.427878164



 k-points in units of 2pi/SCALE and weight: # Generated by Masgent for k-point conve
   0.00000000  0.00000000  0.00000000       0.000
  -0.01543972  0.01543972  0.01543972       0.002
  -0.03087945  0.03087945  0.03087945       0.002
  -0.04631917  0.04631917  0.04631917       0.002
  -0.06175889  0.06175889  0.06175889       0.002
  -0.07719862  0.07719862  0.07719862       0.002
  -0.09263834  0.09263834  0.09263834       0.002
  -0.10807806  0.10807806  0.10807806       0.002
  -0.12351779  0.12351779  0.12351779       0.001
   0.00000000  0.00000000  0.03087945       0.001
  -0.01543972  0.01543972  0.04631917       0.006
  -0.03087945  0.03087945  0.06175889       0.006
  -0.04631917  0.04631917  0.07719862       0.006
  -0.06175889  0.06175889  0.09263834       0.006
  -0.07719862  0.07719862  0.10807806       0.006
  -0.09263834  0.09263834  0.12351779       0.006
  -0.10807806  0.10807806  0.13895751       0.006
   0.12351779 -0.12351779 -0.09263834       0.006
   0.10807806 -0.10807806 -0.07719862       0.006
   0.09263834 -0.09263834 -0.06175889       0.006
   0.07719862 -0.07719862 -0.04631917       0.006
   0.06175889 -0.06175889 -0.03087945       0.006
   0.04631917 -0.04631917 -0.01543972       0.006
   0.03087945 -0.03087945  0.00000000       0.003
   0.00000000  0.00000000  0.06175889       0.001
  -0.01543972  0.01543972  0.07719862       0.006
  -0.03087945  0.03087945  0.09263834       0.006
  -0.04631917  0.04631917  0.10807806       0.006
  -0.06175889  0.06175889  0.12351779       0.006
  -0.07719862  0.07719862  0.13895751       0.006
  -0.09263834  0.09263834  0.15439723       0.006
   0.13895751 -0.13895751 -0.07719862       0.006
   0.12351779 -0.12351779 -0.06175889       0.006
   0.10807806 -0.10807806 -0.04631917       0.006
   0.09263834 -0.09263834 -0.03087945       0.006
   0.07719862 -0.07719862 -0.01543972       0.006
   0.06175889 -0.06175889  0.00000000       0.003
   0.00000000  0.00000000  0.09263834       0.001
  -0.01543972  0.01543972  0.10807806       0.006
  -0.03087945  0.03087945  0.12351779       0.006
  -0.04631917  0.04631917  0.13895751       0.006
  -0.06175889  0.06175889  0.15439723       0.006
  -0.07719862  0.07719862  0.16983696       0.006
   0.15439723 -0.15439723 -0.06175889       0.006
   0.13895751 -0.13895751 -0.04631917       0.006
   0.12351779 -0.12351779 -0.03087945       0.006
   0.10807806 -0.10807806 -0.01543972       0.006
   0.09263834 -0.09263834  0.00000000       0.003
   0.00000000  0.00000000  0.12351779       0.001
  -0.01543972  0.01543972  0.13895751       0.006
  -0.03087945  0.03087945  0.15439723       0.006
  -0.04631917  0.04631917  0.16983696       0.006
  -0.06175889  0.06175889  0.18527668       0.006
   0.16983696 -0.16983696 -0.04631917       0.006
   0.15439723 -0.15439723 -0.03087945       0.006
   0.13895751 -0.13895751 -0.01543972       0.006
   0.12351779 -0.12351779  0.00000000       0.003
   0.00000000  0.00000000  0.15439723       0.001
  -0.01543972  0.01543972  0.16983696       0.006
  -0.03087945  0.03087945  0.18527668       0.006
  -0.04631917  0.04631917  0.20071640       0.006
   0.18527668 -0.18527668 -0.03087945       0.006
   0.16983696 -0.16983696 -0.01543972       0.006
   0.15439723 -0.15439723  0.00000000       0.003
   0.00000000  0.00000000  0.18527668       0.001
  -0.01543972  0.01543972  0.20071640       0.006
  -0.03087945  0.03087945  0.21615613       0.006
   0.20071640 -0.20071640 -0.01543972       0.006
   0.18527668 -0.18527668  0.00000000       0.003
   0.00000000  0.00000000  0.21615613       0.001
  -0.01543972  0.01543972  0.23159585       0.006
   0.21615613 -0.21615613  0.00000000       0.003
   0.00000000  0.00000000  0.24703557       0.001
   0.00000000  0.03087945  0.06175889       0.006
  -0.01543972  0.04631917  0.07719862       0.012
  -0.03087945  0.06175889  0.09263834       0.012
  -0.04631917  0.07719862  0.10807806       0.012
  -0.06175889  0.09263834  0.12351779       0.012
  -0.07719862  0.10807806  0.13895751       0.012
   0.15439723 -0.12351779 -0.09263834       0.006
   0.00000000  0.03087945  0.09263834       0.006
  -0.01543972  0.04631917  0.10807806       0.012
  -0.03087945  0.06175889  0.12351779       0.012
  -0.04631917  0.07719862  0.13895751       0.012
  -0.06175889  0.09263834  0.15439723       0.012
   0.16983696 -0.13895751 -0.07719862       0.012
   0.15439723 -0.12351779 -0.06175889       0.012
   0.13895751 -0.10807806 -0.04631917       0.012
   0.12351779 -0.09263834 -0.03087945       0.012
   0.10807806 -0.07719862 -0.01543972       0.012
   0.09263834 -0.06175889  0.00000000       0.006
   0.00000000  0.03087945  0.12351779       0.006
  -0.01543972  0.04631917  0.13895751       0.012
  -0.03087945  0.06175889  0.15439723       0.012
  -0.04631917  0.07719862  0.16983696       0.012
   0.18527668 -0.15439723 -0.06175889       0.012
   0.16983696 -0.13895751 -0.04631917       0.012
   0.15439723 -0.12351779 -0.03087945       0.012
   0.13895751 -0.10807806 -0.01543972       0.012
   0.12351779 -0.09263834  0.00000000       0.006
   0.00000000  0.03087945  0.15439723       0.006
  -0.01543972  0.04631917  0.16983696       0.012
  -0.03087945  0.06175889  0.18527668       0.012
   0.20071640 -0.16983696 -0.04631917       0.012
   0.18527668 -0.15439723 -0.03087945       0.012
   0.16983696 -0.13895751 -0.01543972       0.012
   0.15439723 -0.12351779  0.00000000       0.006
   0.00000000  0.03087945  0.18527668       0.006
  -0.01543972  0.04631917  0.20071640       0.012
   0.21615613 -0.18527668 -0.03087945       0.012
   0.20071640 -0.16983696 -0.01543972       0.012
   0.18527668 -0.15439723  0.00000000       0.006
   0.00000000  0.03087945  0.21615613       0.006
   0.23159585 -0.20071640 -0.01543972       0.012
   0.21615613 -0.18527668  0.00000000       0.006
   0.24703557 -0.21615613  0.00000000       0.003
   0.00000000  0.06175889  0.12351779       0.006
  -0.01543972  0.07719862  0.13895751       0.012
  -0.03087945  0.09263834  0.15439723       0.012
   0.20071640 -0.13895751 -0.07719862       0.012
   0.18527668 -0.12351779 -0.06175889       0.006
   0.00000000  0.06175889  0.15439723       0.006
  -0.01543972  0.07719862  0.16983696       0.012
   0.21615613 -0.15439723 -0.06175889       0.012
   0.20071640 -0.13895751 -0.04631917       0.012
   0.18527668 -0.12351779 -0.03087945       0.012
   0.16983696 -0.10807806 -0.01543972       0.012
   0.15439723 -0.09263834  0.00000000       0.006
   0.00000000  0.06175889  0.18527668       0.006
   0.23159585 -0.16983696 -0.04631917       0.012
   0.21615613 -0.15439723 -0.03087945       0.012
   0.20071640 -0.13895751 -0.01543972       0.012
   0.18527668 -0.12351779  0.00000000       0.006
   0.24703557 -0.18527668 -0.03087945       0.006
   0.23159585 -0.16983696 -0.01543972       0.012
   0.21615613 -0.15439723  0.00000000       0.006
   0.24703557 -0.18527668  0.00000000       0.003
   0.24703557 -0.15439723 -0.06175889       0.006
   0.23159585 -0.13895751 -0.04631917       0.012
   0.21615613 -0.12351779 -0.03087945       0.006
   0.24703557 -0.15439723 -0.03087945       0.006
   0.23159585 -0.13895751 -0.01543972       0.012
   0.21615613 -0.12351779  0.00000000       0.006
   0.24703557 -0.15439723  0.00000000       0.003
   0.24703557 -0.12351779  0.00000000       0.001

 k-points in reciprocal lattice and weights: # Generated by Masgent for k-point conve
   0.00000000  0.00000000  0.00000000       0.000
   0.06250000  0.00000000  0.00000000       0.002
   0.12500000  0.00000000  0.00000000       0.002
   0.18750000  0.00000000  0.00000000       0.002
   0.25000000  0.00000000  0.00000000       0.002
   0.31250000  0.00000000  0.00000000       0.002
   0.37500000  0.00000000  0.00000000       0.002
   0.43750000  0.00000000  0.00000000       0.002
   0.50000000  0.00000000  0.00000000       0.001
   0.06250000  0.06250000  0.00000000       0.001
   0.12500000  0.06250000  0.00000000       0.006
   0.18750000  0.06250000  0.00000000       0.006
   0.25000000  0.06250000  0.00000000       0.006
   0.31250000  0.06250000  0.00000000       0.006
   0.37500000  0.06250000  0.00000000       0.006
   0.43750000  0.06250000  0.00000000       0.006
   0.50000000  0.06250000  0.00000000       0.006
  -0.43750000  0.06250000  0.00000000       0.006
  -0.37500000  0.06250000  0.00000000       0.006
  -0.31250000  0.06250000  0.00000000       0.006
  -0.25000000  0.06250000  0.00000000       0.006
  -0.18750000  0.06250000  0.00000000       0.006
  -0.12500000  0.06250000  0.00000000       0.006
  -0.06250000  0.06250000  0.00000000       0.003
   0.12500000  0.12500000  0.00000000       0.001
   0.18750000  0.12500000  0.00000000       0.006
   0.25000000  0.12500000  0.00000000       0.006
   0.31250000  0.12500000  0.00000000       0.006
   0.37500000  0.12500000  0.00000000       0.006
   0.43750000  0.12500000  0.00000000       0.006
   0.50000000  0.12500000  0.00000000       0.006
  -0.43750000  0.12500000  0.00000000       0.006
  -0.37500000  0.12500000  0.00000000       0.006
  -0.31250000  0.12500000  0.00000000       0.006
  -0.25000000  0.12500000  0.00000000       0.006
  -0.18750000  0.12500000  0.00000000       0.006
  -0.12500000  0.12500000  0.00000000       0.003
   0.18750000  0.18750000  0.00000000       0.001
   0.25000000  0.18750000  0.00000000       0.006
   0.31250000  0.18750000  0.00000000       0.006
   0.37500000  0.18750000  0.00000000       0.006
   0.43750000  0.18750000  0.00000000       0.006
   0.50000000  0.18750000  0.00000000       0.006
  -0.43750000  0.18750000  0.00000000       0.006
  -0.37500000  0.18750000  0.00000000       0.006
  -0.31250000  0.18750000  0.00000000       0.006
  -0.25000000  0.18750000  0.00000000       0.006
  -0.18750000  0.18750000  0.00000000       0.003
   0.25000000  0.25000000  0.00000000       0.001
   0.31250000  0.25000000  0.00000000       0.006
   0.37500000  0.25000000  0.00000000       0.006
   0.43750000  0.25000000  0.00000000       0.006
   0.50000000  0.25000000  0.00000000       0.006
  -0.43750000  0.25000000  0.00000000       0.006
  -0.37500000  0.25000000  0.00000000       0.006
  -0.31250000  0.25000000  0.00000000       0.006
  -0.25000000  0.25000000  0.00000000       0.003
   0.31250000  0.31250000  0.00000000       0.001
   0.37500000  0.31250000  0.00000000       0.006
   0.43750000  0.31250000  0.00000000       0.006
   0.50000000  0.31250000  0.00000000       0.006
  -0.43750000  0.31250000  0.00000000       0.006
  -0.37500000  0.31250000  0.00000000       0.006
  -0.31250000  0.31250000  0.00000000       0.003
   0.37500000  0.37500000  0.00000000       0.001
   0.43750000  0.37500000  0.00000000       0.006
   0.50000000  0.37500000  0.00000000       0.006
  -0.43750000  0.37500000  0.00000000       0.006
  -0.37500000  0.37500000  0.00000000       0.003
   0.43750000  0.43750000  0.00000000       0.001
   0.50000000  0.43750000  0.00000000       0.006
  -0.43750000  0.43750000  0.00000000       0.003
   0.50000000  0.50000000  0.00000000       0.001
   0.18750000  0.12500000  0.06250000       0.006
   0.25000000  0.12500000  0.06250000       0.012
   0.31250000  0.12500000  0.06250000       0.012
   0.37500000  0.12500000  0.06250000       0.012
   0.43750000  0.12500000  0.06250000       0.012
   0.50000000  0.12500000  0.06250000       0.012
  -0.43750000  0.12500000  0.06250000       0.006
   0.25000000  0.18750000  0.06250000       0.006
   0.31250000  0.18750000  0.06250000       0.012
   0.37500000  0.18750000  0.06250000       0.012
   0.43750000  0.18750000  0.06250000       0.012
   0.50000000  0.18750000  0.06250000       0.012
  -0.43750000  0.18750000  0.06250000       0.012
  -0.37500000  0.18750000  0.06250000       0.012
  -0.31250000  0.18750000  0.06250000       0.012
  -0.25000000  0.18750000  0.06250000       0.012
  -0.18750000  0.18750000  0.06250000       0.012
  -0.12500000  0.18750000  0.06250000       0.006
   0.31250000  0.25000000  0.06250000       0.006
   0.37500000  0.25000000  0.06250000       0.012
   0.43750000  0.25000000  0.06250000       0.012
   0.50000000  0.25000000  0.06250000       0.012
  -0.43750000  0.25000000  0.06250000       0.012
  -0.37500000  0.25000000  0.06250000       0.012
  -0.31250000  0.25000000  0.06250000       0.012
  -0.25000000  0.25000000  0.06250000       0.012
  -0.18750000  0.25000000  0.06250000       0.006
   0.37500000  0.31250000  0.06250000       0.006
   0.43750000  0.31250000  0.06250000       0.012
   0.50000000  0.31250000  0.06250000       0.012
  -0.43750000  0.31250000  0.06250000       0.012
  -0.37500000  0.31250000  0.06250000       0.012
  -0.31250000  0.31250000  0.06250000       0.012
  -0.25000000  0.31250000  0.06250000       0.006
   0.43750000  0.37500000  0.06250000       0.006
   0.50000000  0.37500000  0.06250000       0.012
  -0.43750000  0.37500000  0.06250000       0.012
  -0.37500000  0.37500000  0.06250000       0.012
  -0.31250000  0.37500000  0.06250000       0.006
   0.50000000  0.43750000  0.06250000       0.006
  -0.43750000  0.43750000  0.06250000       0.012
  -0.37500000  0.43750000  0.06250000       0.006
  -0.43750000  0.50000000  0.06250000       0.003
   0.37500000  0.25000000  0.12500000       0.006
   0.43750000  0.25000000  0.12500000       0.012
   0.50000000  0.25000000  0.12500000       0.012
  -0.43750000  0.25000000  0.12500000       0.012
  -0.37500000  0.25000000  0.12500000       0.006
   0.43750000  0.31250000  0.12500000       0.006
   0.50000000  0.31250000  0.12500000       0.012
  -0.43750000  0.31250000  0.12500000       0.012
  -0.37500000  0.31250000  0.12500000       0.012
  -0.31250000  0.31250000  0.12500000       0.012
  -0.25000000  0.31250000  0.12500000       0.012
  -0.18750000  0.31250000  0.12500000       0.006
   0.50000000  0.37500000  0.12500000       0.006
  -0.43750000  0.37500000  0.12500000       0.012
  -0.37500000  0.37500000  0.12500000       0.012
  -0.31250000  0.37500000  0.12500000       0.012
  -0.25000000  0.37500000  0.12500000       0.006
  -0.43750000  0.43750000  0.12500000       0.006
  -0.37500000  0.43750000  0.12500000       0.012
  -0.31250000  0.43750000  0.12500000       0.006
  -0.37500000  0.50000000  0.12500000       0.003
  -0.43750000  0.37500000  0.18750000       0.006
  -0.37500000  0.37500000  0.18750000       0.012
  -0.31250000  0.37500000  0.18750000       0.006
  -0.37500000  0.43750000  0.18750000       0.006
  -0.31250000  0.43750000  0.18750000       0.012
  -0.25000000  0.43750000  0.18750000       0.006
  -0.31250000  0.50000000  0.18750000       0.003
  -0.25000000  0.50000000  0.25000000       0.001

 position of ions in fractional coordinates (direct lattice) 
   0.00000000  0.00000000  0.00000000

 position of ions in cartesian coordinates  (Angst):
   0.00000000  0.00000000  0.00000000



--------------------------------------------------------------------------------------------------------


 k-point   1 :   0.0000 0.0000 0.0000  plane waves:     459
 k-point   2 :   0.0625 0.0000 0.0000  plane waves:     447
 k-point   3 :   0.1250 0.0000 0.0000  plane waves:     450
 k-point   4 :   0.1875 0.0000 0.0000  plane waves:     459
 k-point   5 :   0.2500 0.0000 0.0000  plane waves:     450
 k-point   6 :   0.3125 0.0000 0.0000  plane waves:     450
 k-point   7 :   0.3750 0.0000 0.0000  plane waves:     443
 k-point   8 :   0.4375 0.0000 0.0000  plane waves:     449
 k-point   9 :   0.5000 0.0000 0.0000  plane waves:     434
 k-point  10 :   0.0625 0.0625 0.0000  plane waves:     443
 k-point  11 :   0.1250 0.0625 0.0000  plane waves:     447
 k-point  12 :   0.1875 0.0625 0.0000  plane waves:     458
 k-point  13 :   0.2500 0.0625 0.0000  plane waves:     452
 k-point  14 :   0.3125 0.0625 0.0000  plane waves:     449
 k-point  15 :   0.3750 0.0625 0.0000  plane waves:     443
 k-point  16 :   0.4375 0.0625 0.0000  plane waves:     447
 k-point  17 :   0.5000 0.0625 0.0000  plane waves:     449
 k-point  18 :  -0.4375 0.0625 0.0000  plane waves:     449
 k-point  19 :  -0.3750 0.0625 0.0000  plane waves:     443
 k-point  20 :  -0.3125 0.0625 0.0000  plane waves:     445
 k-point  21 :  -0.2500 0.0625 0.0000  plane waves:     451
 k-point  22 :  -0.1875 0.0625 0.0000  plane waves:     457
 k-point  23 :  -0.1250 0.0625 0.0000  plane waves:     453
 k-point  24 :  -0.0625 0.0625 0.0000  plane waves:     449
 k-point  25 :   0.1250 0.1250 0.0000  plane waves:     451
 k-point  26 :   0.1875 0.1250 0.0000  plane waves:     456
 k-point  27 :   0.2500 0.1250 0.0000  plane waves:     451
 k-point  28 :   0.3125 0.1250 0.0000  plane waves:     449
 k-point  29 :   0.3750 0.1250 0.0000  plane waves:     450
 k-point  30 :   0.4375 0.1250 0.0000  plane waves:     445
 k-point  31 :   0.5000 0.1250 0.0000  plane waves:     447
 k-point  32 :  -0.4375 0.1250 0.0000  plane waves:     447
 k-point  33 :  -0.3750 0.1250 0.0000  plane waves:     447
 k-point  34 :  -0.3125 0.1250 0.0000  plane waves:     444
 k-point  35 :  -0.2500 0.1250 0.0000  plane waves:     451
 k-point  36 :  -0.1875 0.1250 0.0000  plane waves:     453
 k-point  37 :  -0.1250 0.1250 0.0000  plane waves:     451
 k-point  38 :   0.1875 0.1875 0.0000  plane waves:     451
 k-point  39 :   0.2500 0.1875 0.0000  plane waves:     450
 k-point  40 :   0.3125 0.1875 0.0000  plane waves:     447
 k-point  41 :   0.3750 0.1875 0.0000  plane waves:     445
 k-point  42 :   0.4375 0.1875 0.0000  plane waves:     444
 k-point  43 :   0.5000 0.1875 0.0000  plane waves:     445
 k-point  44 :  -0.4375 0.1875 0.0000  plane waves:     445
 k-point  45 :  -0.3750 0.1875 0.0000  plane waves:     444
 k-point  46 :  -0.3125 0.1875 0.0000  plane waves:     442
 k-point  47 :  -0.2500 0.1875 0.0000  plane waves:     443
 k-point  48 :  -0.1875 0.1875 0.0000  plane waves:     449
 k-point  49 :   0.2500 0.2500 0.0000  plane waves:     456
 k-point  50 :   0.3125 0.2500 0.0000  plane waves:     445
 k-point  51 :   0.3750 0.2500 0.0000  plane waves:     447
 k-point  52 :   0.4375 0.2500 0.0000  plane waves:     444
 k-point  53 :   0.5000 0.2500 0.0000  plane waves:     447
 k-point  54 :  -0.4375 0.2500 0.0000  plane waves:     446
 k-point  55 :  -0.3750 0.2500 0.0000  plane waves:     449
 k-point  56 :  -0.3125 0.2500 0.0000  plane waves:     441
 k-point  57 :  -0.2500 0.2500 0.0000  plane waves:     443
 k-point  58 :   0.3125 0.3125 0.0000  plane waves:     444
 k-point  59 :   0.3750 0.3125 0.0000  plane waves:     444
 k-point  60 :   0.4375 0.3125 0.0000  plane waves:     446
 k-point  61 :   0.5000 0.3125 0.0000  plane waves:     449
 k-point  62 :  -0.4375 0.3125 0.0000  plane waves:     446
 k-point  63 :  -0.3750 0.3125 0.0000  plane waves:     448
 k-point  64 :  -0.3125 0.3125 0.0000  plane waves:     443
 k-point  65 :   0.3750 0.3750 0.0000  plane waves:     448
 k-point  66 :   0.4375 0.3750 0.0000  plane waves:     451
 k-point  67 :   0.5000 0.3750 0.0000  plane waves:     452
 k-point  68 :  -0.4375 0.3750 0.0000  plane waves:     445
 k-point  69 :  -0.3750 0.3750 0.0000  plane waves:     440
 k-point  70 :   0.4375 0.4375 0.0000  plane waves:     452
 k-point  71 :   0.5000 0.4375 0.0000  plane waves:     452
 k-point  72 :  -0.4375 0.4375 0.0000  plane waves:     450
 k-point  73 :   0.5000 0.5000 0.0000  plane waves:     444
 k-point  74 :   0.1875 0.1250 0.0625  plane waves:     457
 k-point  75 :   0.2500 0.1250 0.0625  plane waves:     458
 k-point  76 :   0.3125 0.1250 0.0625  plane waves:     449
 k-point  77 :   0.3750 0.1250 0.0625  plane waves:     445
 k-point  78 :   0.4375 0.1250 0.0625  plane waves:     441
 k-point  79 :   0.5000 0.1250 0.0625  plane waves:     446
 k-point  80 :  -0.4375 0.1250 0.0625  plane waves:     446
 k-point  81 :   0.2500 0.1875 0.0625  plane waves:     449
 k-point  82 :   0.3125 0.1875 0.0625  plane waves:     450
 k-point  83 :   0.3750 0.1875 0.0625  plane waves:     448
 k-point  84 :   0.4375 0.1875 0.0625  plane waves:     445
 k-point  85 :   0.5000 0.1875 0.0625  plane waves:     443
 k-point  86 :  -0.4375 0.1875 0.0625  plane waves:     446
 k-point  87 :  -0.3750 0.1875 0.0625  plane waves:     441
 k-point  88 :  -0.3125 0.1875 0.0625  plane waves:     443
 k-point  89 :  -0.2500 0.1875 0.0625  plane waves:     444
 k-point  90 :  -0.1875 0.1875 0.0625  plane waves:     449
 k-point  91 :  -0.1250 0.1875 0.0625  plane waves:     451
 k-point  92 :   0.3125 0.2500 0.0625  plane waves:     451
 k-point  93 :   0.3750 0.2500 0.0625  plane waves:     448
 k-point  94 :   0.4375 0.2500 0.0625  plane waves:     448
 k-point  95 :   0.5000 0.2500 0.0625  plane waves:     444
 k-point  96 :  -0.4375 0.2500 0.0625  plane waves:     447
 k-point  97 :  -0.3750 0.2500 0.0625  plane waves:     445
 k-point  98 :  -0.3125 0.2500 0.0625  plane waves:     438
 k-point  99 :  -0.2500 0.2500 0.0625  plane waves:     443
 k-point 100 :  -0.1875 0.2500 0.0625  plane waves:     446
 k-point 101 :   0.3750 0.3125 0.0625  plane waves:     445
 k-point 102 :   0.4375 0.3125 0.0625  plane waves:     449
 k-point 103 :   0.5000 0.3125 0.0625  plane waves:     447
 k-point 104 :  -0.4375 0.3125 0.0625  plane waves:     444
 k-point 105 :  -0.3750 0.3125 0.0625  plane waves:     449
 k-point 106 :  -0.3125 0.3125 0.0625  plane waves:     445
 k-point 107 :  -0.2500 0.3125 0.0625  plane waves:     442
 k-point 108 :   0.4375 0.3750 0.0625  plane waves:     449
 k-point 109 :   0.5000 0.3750 0.0625  plane waves:     449
 k-point 110 :  -0.4375 0.3750 0.0625  plane waves:     443
 k-point 111 :  -0.3750 0.3750 0.0625  plane waves:     444
 k-point 112 :  -0.3125 0.3750 0.0625  plane waves:     445
 k-point 113 :   0.5000 0.4375 0.0625  plane waves:     452
 k-point 114 :  -0.4375 0.4375 0.0625  plane waves:     449
 k-point 115 :  -0.3750 0.4375 0.0625  plane waves:     447
 k-point 116 :  -0.4375 0.5000 0.0625  plane waves:     454
 k-point 117 :   0.3750 0.2500 0.1250  plane waves:     448
 k-point 118 :   0.4375 0.2500 0.1250  plane waves:     445
 k-point 119 :   0.5000 0.2500 0.1250  plane waves:     442
 k-point 120 :  -0.4375 0.2500 0.1250  plane waves:     446
 k-point 121 :  -0.3750 0.2500 0.1250  plane waves:     442
 k-point 122 :   0.4375 0.3125 0.1250  plane waves:     445
 k-point 123 :   0.5000 0.3125 0.1250  plane waves:     444
 k-point 124 :  -0.4375 0.3125 0.1250  plane waves:     443
 k-point 125 :  -0.3750 0.3125 0.1250  plane waves:     445
 k-point 126 :  -0.3125 0.3125 0.1250  plane waves:     443
 k-point 127 :  -0.2500 0.3125 0.1250  plane waves:     439
 k-point 128 :  -0.1875 0.3125 0.1250  plane waves:     445
 k-point 129 :   0.5000 0.3750 0.1250  plane waves:     454
 k-point 130 :  -0.4375 0.3750 0.1250  plane waves:     444
 k-point 131 :  -0.3750 0.3750 0.1250  plane waves:     444
 k-point 132 :  -0.3125 0.3750 0.1250  plane waves:     444
 k-point 133 :  -0.2500 0.3750 0.1250  plane waves:     440
 k-point 134 :  -0.4375 0.4375 0.1250  plane waves:     448
 k-point 135 :  -0.3750 0.4375 0.1250  plane waves:     445
 k-point 136 :  -0.3125 0.4375 0.1250  plane waves:     441
 k-point 137 :  -0.3750 0.5000 0.1250  plane waves:     452
 k-point 138 :  -0.4375 0.3750 0.1875  plane waves:     442
 k-point 139 :  -0.3750 0.3750 0.1875  plane waves:     448
 k-point 140 :  -0.3125 0.3750 0.1875  plane waves:     446
 k-point 141 :  -0.3750 0.4375 0.1875  plane waves:     445
 k-point 142 :  -0.3125 0.4375 0.1875  plane waves:     449
 k-point 143 :  -0.2500 0.4375 0.1875  plane waves:     447
 k-point 144 :  -0.3125 0.5000 0.1875  plane waves:     450
 k-point 145 :  -0.2500 0.5000 0.2500  plane waves:     444

 maximum and minimum number of plane-waves per node :       459      434

 maximum number of plane-waves:       459
 maximum index in each direction: 
   IXMAX=    5   IYMAX=    5   IZMAX=    5
   IXMIN=   -5   IYMIN=   -5   IZMIN=   -5


 serial   3D FFT for wavefunctions
 parallel 3D FFT for charge:
    minimum data exchange during FFTs selected (reduces bandwidth)


 total amount of memory used by VASP MPI-rank0    38362. kBytes
=======================================================================

   base      :      30000. kBytes
   nonl-proj :       4462. kBytes
   fftplans  :        150. kBytes
   grid      :       1295. kBytes
   one-center:          6. kBytes
   wavefun   :       2449. kBytes

     INWAV:  cpu time    0.0000: real time    0.0001
 Broyden mixing: mesh for mixing (old mesh)
   NGX = 11   NGY = 11   NGZ = 11
  (NGX  = 48   NGY  = 48   NGZ  = 48)
  gives a total of   1331 points

 initial charge density was supplied:
 charge density of overlapping atoms calculated
 number of electron       3.0000000 magnetization       0.6000000
 keeping initial charge density in first step


--------------------------------------------------------------------------------------------------------


 Maximum index for augmentation-charges         1111 (set IRDMAX)


--------------------------------------------------------------------------------------------------------


 First call to EWALD:  gamma=   0.695
 Maximum number of real-space cells 3x 3x 3
 Maximum number of reciprocal cells 3x 3x 3

    FEWALD:  cpu time    0.0006: real time    0.0007


--------------------------------------- Iteration      1(   1)  ---------------------------------------


    POTLOK:  cpu time    0.0162: real time    0.0167
    SETDIJ:  cpu time    0.1731: real time    0.1735
     EDDAV:  cpu time   23.6825: real time   23.6835
 BZINTS: Fermi energy:    8.043776;    3.000000 electrons
         Band energy: 0.107736E+02;  BLOECHL correction:   -0.060727
       DOS:  cpu time    0.1265: real time    0.1268
    --------------------------------------------
      LOOP:  cpu time   23.9982: real time   24.0005

 eigenvalue-minimisations  : 39696
 total energy-change (2. order) :-0.3628449E+01  (-0.8986957E+02)
 number of electron       3.0000000 magnetization       0.6000000
 augmentation part        3.0000000 magnetization       0.6000000

 Free energy of the ion-electron system (eV)
  ---------------------------------------------------
  alpha Z        PSCENC =        -0.20254611
  Ewald energy   TEWEN  =       -73.39295237
  -Hartree energ DENC   =        -0.10329695
  -exchange      EXHF   =         0.00000000
  -V(xc)+E(xc)   XCENC  =       -26.19545267
  PAW double counting   =        66.16230985      -34.20858819
  entropy T*S    EENTRO =         0.00000000
  eigenvalues    EBANDS =        10.77362002
  atomic energy  EATOM  =        53.53845706
  Solvation  Ediel_sol  =         0.00000000
  ---------------------------------------------------
  free energy    TOTEN  =        -3.62844936 eV

  energy without entropy =       -3.62844936  energy(sigma->0) =       -3.62844936


--------------------------------------------------------------------------------------------------------




--------------------------------------- Iteration      1(   2)  ---------------------------------------


     EDDAV:  cpu time   19.6640: real time   19.6642
 BZINTS: Fermi energy:    8.015890;    3.000000 electrons
         Band energy: 0.107190E+02;  BLOECHL correction:   -0.060977
       DOS:  cpu time    0.1461: real time    0.1462
    --------------------------------------------
      LOOP:  cpu time   19.8101: real time   19.8104

 eigenvalue-minimisations  : 35184
 total energy-change (2. order) :-0.5458794E-01  (-0.5450059E-01)
 number of electron       3.0000000 magnetization       0.6000000
 augmentation part        3.0000000 magnetization       0.6000000

 Free energy of the ion-electron system (eV)
  ---------------------------------------------------
  alpha Z        PSCENC =        -0.20254611
  Ewald energy   TEWEN  =       -73.39295237
  -Hartree energ DENC   =        -0.10329695
  -exchange      EXHF   =         0.00000000
  -V(xc)+E(xc)   XCENC  =       -26.19545267
  PAW double counting   =        66.16230985      -34.20858819
  entropy T*S    EENTRO =         0.00000000
  eigenvalues    EBANDS =        10.71903208
  atomic energy  EATOM  =        53.53845706
  Solvation  Ediel_sol  =         0.00000000
  ---------------------------------------------------
  free energy    TOTEN  =        -3.68303730 eV

  energy without entropy =       -3.68303730  energy(sigma->0) =       -3.68303730


--------------------------------------------------------------------------------------------------------




--------------------------------------- Iteration      1(   3)  ---------------------------------------


     EDDAV:  cpu time   33.2645: real time   33.2646
 BZINTS: Fermi energy:    8.015888;    3.000000 electrons
         Band energy: 0.107190E+02;  BLOECHL correction:   -0.060977
       DOS:  cpu time    0.1385: real time    0.1387
    --------------------------------------------
      LOOP:  cpu time   33.4030: real time   33.4033

 eigenvalue-minimisations  : 42576
 total energy-change (2. order) :-0.2651616E-05  (-0.2655502E-05)
 number of electron       3.0000000 magnetization       0.6000000
 augmentation part        3.0000000 magnetization       0.6000000

 Free energy of the ion-electron system (eV)
  ---------------------------------------------------
  alpha Z        PSCENC =        -0.20254611
  Ewald energy   TEWEN  =       -73.39295237
  -Hartree energ DENC   =        -0.10329695
  -exchange      EXHF   =         0.00000000
  -V(xc)+E(xc)   XCENC  =       -26.19545267
  PAW double counting   =        66.16230985      -34.20858819
  entropy T*S    EENTRO =         0.00000000
  eigenvalues    EBANDS =        10.71902943
  atomic energy  EATOM  =        53.53845706
  Solvation  Ediel_sol  =         0.00000000
  ---------------------------------------------------
  free energy    TOTEN  =        -3.68303995 eV

  energy without entropy =       -3.68303995  energy(sigma->0) =       -3.68303995


--------------------------------------------------------------------------------------------------------




--------------------------------------- Iteration      1(   4)  ---------------------------------------


     EDDAV:  cpu time   27.3893: real time   27.3894
 BZINTS: Fermi energy:    8.015888;    3.000000 electrons
         Band energy: 0.107190E+02;  BLOECHL correction:   -0.060977
       DOS:  cpu time    0.1328: real time    0.1329
    --------------------------------------------
      LOOP:  cpu time   27.5221: real time   27.5224

 eigenvalue-minimisations  : 39360
 total energy-change (2. order) :-0.1961098E-11  (-0.1418288E-10)
 number of electron       3.0000000 magnetization       0.6000000
 augmentation part        3.0000000 magnetization       0.6000000

 Free energy of the ion-electron system (eV)
  ---------------------------------------------------
  alpha Z        PSCENC =        -0.20254611
  Ewald energy   TEWEN  =       -73.39295237
  -Hartree energ DENC   =        -0.10329695
  -exchange      EXHF   =         0.00000000
  -V(xc)+E(xc)   XCENC  =       -26.19545267
  PAW double counting   =        66.16230985      -34.20858819
  entropy T*S    EENTRO =         0.00000000
  eigenvalues    EBANDS =        10.71902943
  atomic energy  EATOM  =        53.53845706
  Solvation  Ediel_sol  =         0.00000000
  ---------------------------------------------------
  free energy    TOTEN  =        -3.68303995 eV

  energy without entropy =       -3.68303995  energy(sigma->0) =       -3.68303995


--------------------------------------------------------------------------------------------------------




--------------------------------------- Iteration      1(   5)  ---------------------------------------


     EDDAV:  cpu time   30.2368: real time   30.2369
 BZINTS: Fermi energy:    8.015888;    3.000000 electrons
         Band energy: 0.107190E+02;  BLOECHL correction:   -0.060977
       DOS:  cpu time    0.1462: real time    0.1463
    CHARGE:  cpu time    0.1018: real time    0.1021
    MIXING:  cpu time    0.0008: real time    0.0010
    --------------------------------------------
      LOOP:  cpu time   30.4856: real time   30.4864

 eigenvalue-minimisations  : 40608
 total energy-change (2. order) :-0.9955414E-09  (-0.6871767E-13)
 number of electron       3.0000000 magnetization      -0.0527685
 augmentation part       -0.0371187 magnetization      -0.1883129

 Broyden mixing:
  rms(total) = 0.17470E+00    rms(broyden)= 0.17470E+00
  rms(prec ) = 0.38059E+00
  weight for this iteration     100.00

 Free energy of the ion-electron system (eV)
  ---------------------------------------------------
  alpha Z        PSCENC =        -0.20254611
  Ewald energy   TEWEN  =       -73.39295237
  -Hartree energ DENC   =        -0.10329695
  -exchange      EXHF   =         0.00000000
  -V(xc)+E(xc)   XCENC  =       -26.19545267
  PAW double counting   =        66.16230985      -34.20858819
  entropy T*S    EENTRO =         0.00000000
  eigenvalues    EBANDS =        10.71902943
  atomic energy  EATOM  =        53.53845706
  Solvation  Ediel_sol  =         0.00000000
  ---------------------------------------------------
  free energy    TOTEN  =        -3.68303995 eV

  energy without entropy =       -3.68303995  energy(sigma->0) =       -3.68303995


--------------------------------------------------------------------------------------------------------




--------------------------------------- Iteration      1(   6)  ---------------------------------------


    POTLOK:  cpu time    0.0074: real time    0.0076
    SETDIJ:  cpu time    0.1719: real time    0.1719
    EDDIAG:  cpu time    0.9618: real time    0.9633
  RMM-DIIS:  cpu time    0.5770: real time    0.5770
    ORTHCH:  cpu time    0.1215: real time    0.1215
 BZINTS: Fermi energy:    8.005356;    3.000000 electrons
         Band energy: 0.106498E+02;  BLOECHL correction:   -0.057893
       DOS:  cpu time    0.1395: real time    0.1397
    CHARGE:  cpu time    0.0964: real time    0.0964
    MIXING:  cpu time    0.0004: real time    0.0004
    --------------------------------------------
      LOOP:  cpu time    2.0760: real time    2.0779

 eigenvalue-minimisations  : 27846
 total energy-change (2. order) :-0.7182741E-01  (-0.2431479E-03)
 number of electron       3.0000000 magnetization       0.0566239
 augmentation part       -0.0374040 magnetization       0.0651281

 Broyden mixing:
  rms(total) = 0.82592E-01    rms(broyden)= 0.82592E-01
  rms(prec ) = 0.23046E+00
  weight for this iteration     100.00

 eigenvalues of (default mixing * dielectric matrix)
  average eigenvalue GAMMA=   0.8996
  0.8996

 Free energy of the ion-electron system (eV)
  ---------------------------------------------------
  alpha Z        PSCENC =        -0.20254611
  Ewald energy   TEWEN  =       -73.39295237
  -Hartree energ DENC   =        -0.08614289
  -exchange      EXHF   =         0.00000000
  -V(xc)+E(xc)   XCENC  =       -26.21301915
  PAW double counting   =        94.43512237      -62.48353820
  entropy T*S    EENTRO =         0.00000000
  eigenvalues    EBANDS =        10.64975193
  atomic energy  EATOM  =        53.53845706
  Solvation  Ediel_sol  =         0.00000000
  ---------------------------------------------------
  free energy    TOTEN  =        -3.75486736 eV

  energy without entropy =       -3.75486736  energy(sigma->0) =       -3.75486736


--------------------------------------------------------------------------------------------------------




--------------------------------------- Iteration      1(   7)  ---------------------------------------


    POTLOK:  cpu time    0.0071: real time    0.0074
    SETDIJ:  cpu time    0.1713: real time    0.1713
    EDDIAG:  cpu time    0.9476: real time    0.9476
  RMM-DIIS:  cpu time    0.6544: real time    0.6543
    ORTHCH:  cpu time    0.1218: real time    0.1218
 BZINTS: Fermi energy:    7.994176;    3.000000 electrons
         Band energy: 0.106202E+02;  BLOECHL correction:   -0.058025
       DOS:  cpu time    0.1393: real time    0.1394
    CHARGE:  cpu time    0.0966: real time    0.0966
    MIXING:  cpu time    0.0003: real time    0.0003
    --------------------------------------------
      LOOP:  cpu time    2.1383: real time    2.1387

 eigenvalue-minimisations  : 28931
 total energy-change (2. order) : 0.8417830E-02  (-0.9212969E-04)
 number of electron       3.0000000 magnetization       0.0127742
 augmentation part       -0.0380987 magnetization       0.0042558

 Broyden mixing:
  rms(total) = 0.66610E-01    rms(broyden)= 0.66610E-01
  rms(prec ) = 0.98895E-01
  weight for this iteration     100.00

 eigenvalues of (default mixing * dielectric matrix)
  average eigenvalue GAMMA=   0.9298
  1.1856  0.6740

 Free energy of the ion-electron system (eV)
  ---------------------------------------------------
  alpha Z        PSCENC =        -0.20254611
  Ewald energy   TEWEN  =       -73.39295237
  -Hartree energ DENC   =        -0.09071099
  -exchange      EXHF   =         0.00000000
  -V(xc)+E(xc)   XCENC  =       -26.16662797
  PAW double counting   =       130.45966234      -98.51192399
  entropy T*S    EENTRO =         0.00000000
  eigenvalues    EBANDS =        10.62019250
  atomic energy  EATOM  =        53.53845706
  Solvation  Ediel_sol  =         0.00000000
  ---------------------------------------------------
  free energy    TOTEN  =        -3.74644953 eV

  energy without entropy =       -3.74644953  energy(sigma->0) =       -3.74644953


--------------------------------------------------------------------------------------------------------




--------------------------------------- Iteration      1(   8)  ---------------------------------------


    POTLOK:  cpu time    0.0071: real time    0.0073
    SETDIJ:  cpu time    0.1695: real time    0.1695
    EDDIAG:  cpu time    0.9508: real time    0.9508
  RMM-DIIS:  cpu time    0.6902: real time    0.6902
    ORTHCH:  cpu time    0.1211: real time    0.1211
 BZINTS: Fermi energy:    7.990930;    3.000000 electrons
         Band energy: 0.106117E+02;  BLOECHL correction:   -0.058063
       DOS:  cpu time    0.1462: real time    0.1464
    CHARGE:  cpu time    0.0975: real time    0.0975
    MIXING:  cpu time    0.0003: real time    0.0003
    --------------------------------------------
      LOOP:  cpu time    2.1825: real time    2.1829

 eigenvalue-minimisations  : 28839
 total energy-change (2. order) : 0.2713111E-03  (-0.1943981E-04)
 number of electron       3.0000000 magnetization      -0.0017063
 augmentation part       -0.0383980 magnetization      -0.0047780

 Broyden mixing:
  rms(total) = 0.21306E-01    rms(broyden)= 0.21306E-01
  rms(prec ) = 0.25572E-01
  weight for this iteration     100.00

 eigenvalues of (default mixing * dielectric matrix)
  average eigenvalue GAMMA=   1.2715
  2.2768  0.9142  0.6234

 Free energy of the ion-electron system (eV)
  ---------------------------------------------------
  alpha Z        PSCENC =        -0.20254611
  Ewald energy   TEWEN  =       -73.39295237
  -Hartree energ DENC   =        -0.10034050
  -exchange      EXHF   =         0.00000000
  -V(xc)+E(xc)   XCENC  =       -26.14624254
  PAW double counting   =       144.82401702     -112.87828061
  entropy T*S    EENTRO =         0.00000000
  eigenvalues    EBANDS =        10.61170983
  atomic energy  EATOM  =        53.53845706
  Solvation  Ediel_sol  =         0.00000000
  ---------------------------------------------------
  free energy    TOTEN  =        -3.74617822 eV

  energy without entropy =       -3.74617822  energy(sigma->0) =       -3.74617822


--------------------------------------------------------------------------------------------------------




--------------------------------------- Iteration      1(   9)  ---------------------------------------


    POTLOK:  cpu time    0.0071: real time    0.0074
    SETDIJ:  cpu time    0.1721: real time    0.1721
    EDDIAG:  cpu time    0.9581: real time    0.9581
  RMM-DIIS:  cpu time    0.8345: real time    0.8345
    ORTHCH:  cpu time    0.1218: real time    0.1218
 BZINTS: Fermi energy:    7.990451;    3.000000 electrons
         Band energy: 0.106106E+02;  BLOECHL correction:   -0.058074
       DOS:  cpu time    0.1390: real time    0.1391
    --------------------------------------------
      LOOP:  cpu time    2.2326: real time    2.2330

 eigenvalue-minimisations  : 30179
 total energy-change (2. order) : 0.7151254E-05  (-0.2716010E-05)
 number of electron       3.0000000 magnetization      -0.0017063
 augmentation part       -0.0383980 magnetization      -0.0047780

 Free energy of the ion-electron system (eV)
  ---------------------------------------------------
  alpha Z        PSCENC =        -0.20254611
  Ewald energy   TEWEN  =       -73.39295237
  -Hartree energ DENC   =        -0.10327500
  -exchange      EXHF   =         0.00000000
  -V(xc)+E(xc)   XCENC  =       -26.14121680
  PAW double counting   =       145.19831301     -113.25356864
  entropy T*S    EENTRO =         0.00000000
  eigenvalues    EBANDS =        10.61061777
  atomic energy  EATOM  =        53.53845706
  Solvation  Ediel_sol  =         0.00000000
  ---------------------------------------------------
  free energy    TOTEN  =        -3.74617107 eV

  energy without entropy =       -3.74617107  energy(sigma->0) =       -3.74617107


--------------------------------------------------------------------------------------------------------




 average (electrostatic) potential at core
  the test charge radii are     1.0406
  (the norm of the test charge is              1.0000)
       1 -72.6897



 E-fermi :   7.9905     XC(G=0): -10.1785     alpha+bet :-14.8020

 Fermi energy:         7.9904512176

 spin component 1

 k-point     1 :       0.0000    0.0000    0.0000
  band No.  band energies     occupation 
      1      -3.1518      1.00000
      2      20.5398      0.00000
      3      20.5398      0.00000
      4      20.5398      0.00000
      5      21.9946      0.00000
      6      21.9946      0.00000
      7      21.9946      0.00000
      8      24.3766      0.00000
      9      27.3143      0.00000
     10      27.3143      0.00000
     11      30.1610      0.00000
     12      32.5109      0.00000
     13      32.5109      0.00000
     14      32.5109      0.00000
     15      41.0624      0.00000
     16      56.0207      0.00000
     17      56.0207      0.00000
     18      56.0207      0.00000
     19      56.0571      0.00000
     20      59.2139      0.00000
     21      59.2139      0.00000
     22      59.2139      0.00000
     23      62.8336      0.00000
     24      62.8336      0.00000
     25      65.0768      0.00000
     26      65.0768      0.00000
     27      65.0768      0.00000
     28      73.1778      0.00000
     29      73.1778      0.00000
     30      73.1778      0.00000
     31      80.8190      0.00000
     32      83.0781      0.00000
     33      83.0781      0.00000
     34      87.2061      0.00000
     35      87.2061      0.00000
     36      87.2061      0.00000
     37      90.0884      0.00000
     38      90.0884      0.00000
     39      90.0884      0.00000
     40      90.8968      0.00000
     41      93.4600      0.00000
     42      93.4600      0.00000
     43      93.4600      0.00000
     44      93.9346      0.00000
     45      93.9346      0.00000
     46      93.9346      0.00000
     47      96.3737      0.00000
     48      96.3737      0.00000

 k-point     2 :       0.0625    0.0000    0.0000
  band No.  band energies     occupation 
      1      -3.0459      1.00000
      2      18.7502      0.00000
      3      20.1596      0.00000
      4      20.1596      0.00000
      5      22.5387      0.00000
      6      22.5387      0.00000
      7      22.6159      0.00000
      8      25.4701      0.00000
      9      26.7140      0.00000
     10      26.7140      0.00000
     11      29.7730      0.00000
     12      33.0507      0.00000
     13      33.3240      0.00000
     14      33.3240      0.00000
     15      41.4882      0.00000
     16      55.5950      0.00000
     17      55.9014      0.00000
     18      55.9014      0.00000
     19      56.2914      0.00000
     20      58.0941      0.00000
     21      58.0941      0.00000
     22      59.2211      0.00000
     23      61.7868      0.00000
     24      61.7868      0.00000
     25      65.1717      0.00000
     26      67.4487      0.00000
     27      67.4487      0.00000
     28      72.2938      0.00000
     29      73.0798      0.00000
     30      73.0798      0.00000
     31      81.8289      0.00000
     32      82.5101      0.00000
     33      82.5101      0.00000
     34      85.0094      0.00000
     35      86.4184      0.00000
     36      86.4184      0.00000
     37      88.9639      0.00000
     38      88.9639      0.00000
     39      90.2668      0.00000
     40      90.4152      0.00000
     41      91.9674      0.00000
     42      91.9674      0.00000
     43      92.2826      0.00000
     44      95.2306      0.00000
     45      95.2306      0.00000
     46      95.9739      0.00000
     47      95.9739      0.00000
     48      97.2064      0.00000

 k-point     3 :       0.1250    0.0000    0.0000
  band No.  band energies     occupation 
      1      -2.7289      1.00000
      2      16.2397      0.00000
      3      19.5872      0.00000
      4      19.5872      0.00000
      5      22.6140      0.00000
      6      23.5413      0.00000
      7      23.5413      0.00000
      8      25.5678      0.00000
      9      25.5678      0.00000
     10      27.7804      0.00000
     11      28.8839      0.00000
     12      34.4842      0.00000
     13      35.1645      0.00000
     14      35.1645      0.00000
     15      42.6467      0.00000
     16      54.4638      0.00000
     17      54.4638      0.00000
     18      54.8370      0.00000
     19      56.4359      0.00000
     20      56.6004      0.00000
     21      56.6004      0.00000
     22      59.1446      0.00000
     23      61.5463      0.00000
     24      61.5463      0.00000
     25      65.4547      0.00000
     26      70.5369      0.00000
     27      70.5489      0.00000
     28      70.5489      0.00000
     29      72.8975      0.00000
     30      72.8975      0.00000
     31      80.7260      0.00000
     32      80.7260      0.00000
     33      81.2611      0.00000
     34      84.8367      0.00000
     35      84.8602      0.00000
     36      84.8602      0.00000
     37      87.0402      0.00000
     38      87.0402      0.00000
     39      87.3771      0.00000
     40      89.8243      0.00000
     41      90.6836      0.00000
     42      90.6836      0.00000
     43      91.0521      0.00000
     44      93.9530      0.00000
     45      96.4219      0.00000
     46      96.4219      0.00000
     47      98.2444      0.00000
     48      98.2444      0.00000

 k-point     4 :       0.1875    0.0000    0.0000
  band No.  band energies     occupation 
      1      -2.2021      1.00000
      2      13.7515      0.00000
[...]
     15      47.0701      0.00000
     16      49.1426      0.00000
     17      51.5612      0.00000
     18      52.3336      0.00000
     19      54.7921      0.00000
     20      54.9497      0.00000
     21      55.4204      0.00000
     22      56.0794      0.00000
     23      58.1822      0.00000
     24      58.6498      0.00000
     25      59.2390      0.00000
     26      60.5900      0.00000
     27      63.7189      0.00000
     28      63.9652      0.00000
     29      65.7940      0.00000
     30      66.3465      0.00000
     31      66.7635      0.00000
     32      71.6590      0.00000
     33      72.3158      0.00000
     34      77.3119      0.00000
     35      82.8235      0.00000
     36      85.3341      0.00000
     37      87.5607      0.00000
     38      88.0322      0.00000
     39      90.4977      0.00000
     40      91.2011      0.00000
     41      93.7337      0.00000
     42      95.1515      0.00000
     43      96.9841      0.00000
     44      99.7703      0.00000
     45     100.9852      0.00000
     46     101.4372      0.00000
     47     104.3793      0.00000
     48     104.6348      0.00000

 k-point   141 :      -0.3750    0.4375    0.1875
  band No.  band energies     occupation 
      1       4.7642      1.00000
      2       8.4058      0.35493
      3       9.1205      0.00000
      4      10.0816      0.00000
      5      20.9016      0.00000
      6      22.5542      0.00000
      7      25.6730      0.00000
      8      29.4285      0.00000
      9      34.2289      0.00000
     10      38.1495      0.00000
     11      40.7704      0.00000
     12      40.8018      0.00000
     13      43.0281      0.00000
     14      43.6435      0.00000
     15      46.3326      0.00000
     16      48.6666      0.00000
     17      50.4018      0.00000
     18      51.9948      0.00000
     19      53.5420      0.00000
     20      54.1197      0.00000
     21      54.9473      0.00000
     22      55.4116      0.00000
     23      58.2171      0.00000
     24      59.2309      0.00000
     25      60.6066      0.00000
     26      61.8211      0.00000
     27      63.2218      0.00000
     28      64.3170      0.00000
     29      64.8909      0.00000
     30      66.1795      0.00000
     31      68.9614      0.00000
     32      71.2536      0.00000
     33      75.2868      0.00000
     34      79.3401      0.00000
     35      79.4435      0.00000
     36      84.2080      0.00000
     37      87.2067      0.00000
     38      88.5118      0.00000
     39      90.2313      0.00000
     40      92.0291      0.00000
     41      94.7262      0.00000
     42      94.9030      0.00000
     43      95.6419      0.00000
     44      98.4971      0.00000
     45      99.3269      0.00000
     46     100.4147      0.00000
     47     102.8160      0.00000
     48     106.8110      0.00000

 k-point   142 :      -0.3125    0.4375    0.1875
  band No.  band energies     occupation 
      1       6.1003      1.00000
      2       7.1544      1.01455
      3       8.6111     -0.00398
      4       9.8768      0.00000
      5      21.8095      0.00000
      6      24.0201      0.00000
      7      25.0172      0.00000
      8      27.3888      0.00000
      9      34.4885      0.00000
     10      38.5249      0.00000
     11      41.4708      0.00000
     12      42.0684      0.00000
     13      42.8034      0.00000
     14      43.5927      0.00000
     15      45.1193      0.00000
     16      46.9510      0.00000
     17      51.3896      0.00000
     18      52.9261      0.00000
     19      54.2631      0.00000
     20      54.9876      0.00000
     21      55.8932      0.00000
     22      57.0667      0.00000
     23      57.8300      0.00000
     24      59.0568      0.00000
     25      60.2822      0.00000
     26      60.7252      0.00000
     27      62.2179      0.00000
     28      63.1076      0.00000
     29      64.7290      0.00000
     30      65.4192      0.00000
     31      66.8853      0.00000
     32      72.7565      0.00000
     33      73.9439      0.00000
     34      78.0663      0.00000
     35      80.5896      0.00000
     36      82.9531      0.00000
     37      88.2561      0.00000
     38      88.7188      0.00000
     39      91.8082      0.00000
     40      93.0200      0.00000
     41      95.2649      0.00000
     42      96.1303      0.00000
     43      97.6433      0.00000
     44      98.1317      0.00000
     45     100.0893      0.00000
     46     100.4102      0.00000
     47     102.7439      0.00000
     48     103.8807      0.00000

 k-point   143 :      -0.2500    0.4375    0.1875
  band No.  band energies     occupation 
      1       5.6885      1.00000
      2       7.2370      1.00499
      3       8.6414     -0.00123
      4      10.3017      0.00000
      5      22.4410      0.00000
      6      23.8464      0.00000
      7      24.9988      0.00000
      8      27.0634      0.00000
      9      34.0301      0.00000
     10      37.8485      0.00000
     11      40.7262      0.00000
     12      41.0887      0.00000
     13      43.1616      0.00000
     14      44.4986      0.00000
     15      45.8783      0.00000
     16      47.8900      0.00000
     17      51.8739      0.00000
     18      52.1508      0.00000
     19      54.5089      0.00000
     20      54.9525      0.00000
     21      55.7400      0.00000
     22      57.3180      0.00000
     23      58.0750      0.00000
     24      59.4368      0.00000
     25      59.6238      0.00000
     26      60.3844      0.00000
     27      62.8453      0.00000
     28      63.7831      0.00000
     29      64.3529      0.00000
     30      65.7702      0.00000
     31      66.1635      0.00000
     32      71.7756      0.00000
     33      73.9399      0.00000
     34      78.8950      0.00000
     35      79.4170      0.00000
     36      84.6217      0.00000
     37      88.0732      0.00000
     38      88.6218      0.00000
     39      91.3983      0.00000
     40      93.3812      0.00000
     41      95.1252      0.00000
     42      95.1280      0.00000
     43      97.5627      0.00000
     44      98.5070      0.00000
     45      99.7287      0.00000
     46     100.7333      0.00000
     47     103.0783      0.00000
     48     104.4417      0.00000

 k-point   144 :      -0.3125    0.5000    0.1875
  band No.  band energies     occupation 
      1       6.1998      1.00000
      2       7.5344      1.01013
      3       8.2759      0.00516
      4       9.8572      0.00000
      5      20.7766      0.00000
      6      22.4646      0.00000
      7      26.8660      0.00000
      8      28.1390      0.00000
      9      34.9639      0.00000
     10      39.7701      0.00000
     11      41.8853      0.00000
     12      42.2016      0.00000
     13      42.9003      0.00000
     14      44.0289      0.00000
     15      44.2675      0.00000
     16      45.2177      0.00000
     17      50.6211      0.00000
     18      53.7679      0.00000
     19      53.9013      0.00000
     20      54.7280      0.00000
     21      55.8885      0.00000
     22      56.3020      0.00000
     23      56.8998      0.00000
     24      57.4642      0.00000
     25      59.5041      0.00000
     26      61.8077      0.00000
     27      62.6649      0.00000
     28      63.5147      0.00000
     29      65.6513      0.00000
     30      65.7481      0.00000
     31      68.5897      0.00000
     32      72.7704      0.00000
     33      75.5571      0.00000
     34      79.1783      0.00000
     35      79.2880      0.00000
     36      81.5572      0.00000
     37      87.9879      0.00000
     38      88.8294      0.00000
     39      90.1618      0.00000
     40      92.1885      0.00000
     41      94.6345      0.00000
     42      95.9494      0.00000
     43      96.9572      0.00000
     44      99.3737      0.00000
     45     100.8845      0.00000
     46     102.6317      0.00000
     47     102.8858      0.00000
     48     102.9944      0.00000

 k-point   145 :      -0.2500    0.5000    0.2500
  band No.  band energies     occupation 
      1       7.1072      1.00000
      2       7.1073      1.00000
      3       8.1258      0.00000
      4       9.0245      0.00000
      5      23.7262      0.00000
      6      23.7262      0.00000
      7      24.2522      0.00000
      8      26.2912      0.00000
      9      34.9974      0.00000
     10      39.7984      0.00000
     11      42.3422      0.00000
     12      42.3422      0.00000
     13      43.1562      0.00000
     14      43.1562      0.00000
     15      43.8799      0.00000
     16      44.9353      0.00000
     17      52.5092      0.00000
     18      52.5092      0.00000
     19      54.1792      0.00000
     20      54.8177      0.00000
     21      57.7021      0.00000
     22      57.7021      0.00000
     23      58.9400      0.00000
     24      59.2959      0.00000
     25      59.8729      0.00000
     26      60.2298      0.00000
     27      62.1212      0.00000
     28      62.1212      0.00000
     29      64.6193      0.00000
     30      64.6193      0.00000
     31      64.9196      0.00000
     32      73.0277      0.00000
     33      74.8249      0.00000
     34      79.3411      0.00000
     35      79.3411      0.00000
     36      80.9972      0.00000
     37      89.2508      0.00000
     38      89.2508      0.00000
     39      94.3661      0.00000
     40      94.5557      0.00000
     41      96.1690      0.00000
     42      96.3112      0.00000
     43      97.4400      0.00000
     44      97.4400      0.00000
     45      99.1016      0.00000
     46      99.1016      0.00000
     47     102.5103      0.00000
     48     102.5142      0.00000


--------------------------------------------------------------------------------------------------------


 soft charge-density along one line, spin component           1
         0         1         2         3         4         5         6         7         8         9
 total charge-density along one line

 soft charge-density along one line, spin component           2
         0         1         2         3         4         5         6         7         8         9
 total charge-density along one line

 pseudopotential strength for first ion, spin component:           1
  8.445  14.393   0.000   0.000  -0.000   0.000   0.000   0.000
 14.393  24.530   0.000   0.000  -0.000   0.000  -0.000  -0.000
  0.000   0.000   1.987  -0.000  -0.000   5.730  -0.000  -0.000
  0.000   0.000  -0.000   1.987  -0.000  -0.000   5.730  -0.000
 -0.000  -0.000  -0.000  -0.000   1.987  -0.000  -0.000   5.730
  0.000   0.000   5.730  -0.000  -0.000  16.434  -0.000  -0.000
  0.000  -0.000  -0.000   5.730  -0.000  -0.000  16.434  -0.000
  0.000  -0.000  -0.000  -0.000   5.730  -0.000  -0.000  16.434
 pseudopotential strength for first ion, spin component:           2
  8.445  14.393   0.000   0.000  -0.000   0.000   0.000   0.000
 14.393  24.530   0.000   0.000  -0.000   0.000  -0.000  -0.000
  0.000   0.000   1.987  -0.000  -0.000   5.730  -0.000  -0.000
  0.000   0.000  -0.000   1.987  -0.000  -0.000   5.730  -0.000
 -0.000  -0.000  -0.000  -0.000   1.987  -0.000  -0.000   5.730
  0.000   0.000   5.730  -0.000  -0.000  16.434  -0.000  -0.000
  0.000  -0.000  -0.000   5.730  -0.000  -0.000  16.434  -0.000
  0.000  -0.000  -0.000  -0.000   5.730  -0.000  -0.000  16.434
 total augmentation occupancy for first ion, spin component:           1
  3.357  -0.827   0.000   0.000   0.000   0.000   0.000   0.000
 -0.827   0.269   0.000   0.000   0.000   0.000   0.000   0.000
  0.000   0.000   1.099   0.000   0.000  -0.070   0.000  -0.000
  0.000   0.000   0.000   1.099  -0.000   0.000  -0.070   0.000
  0.000   0.000   0.000  -0.000   1.099  -0.000   0.000  -0.070
  0.000   0.000  -0.070   0.000  -0.000   0.005  -0.000  -0.000
  0.000   0.000   0.000  -0.070   0.000   0.000   0.005   0.000
  0.000   0.000  -0.000   0.000  -0.070   0.000   0.000   0.005
 total augmentation occupancy for first ion, spin component:           2
  0.018  -0.007   0.000   0.000   0.000   0.000   0.000   0.000
 -0.007   0.002   0.000   0.000   0.000   0.000   0.000   0.000
  0.000   0.000   0.003   0.000   0.000  -0.000   0.000   0.000
  0.000   0.000   0.000   0.003   0.000   0.000  -0.000   0.000
  0.000   0.000   0.000   0.000   0.003   0.000   0.000  -0.000
  0.000   0.000  -0.000   0.000   0.000   0.000   0.000   0.000
  0.000   0.000   0.000  -0.000   0.000   0.000   0.000   0.000
  0.000   0.000   0.000   0.000  -0.000   0.000   0.000   0.000


------------------------ aborting loop because EDIFF is reached ----------------------------------------





 total charge

# of ion       s       p       d       tot
------------------------------------------
    1        0.426   0.338   0.000   0.765



 magnetization (x)

# of ion       s       p       d       tot
------------------------------------------
    1       -0.000  -0.000   0.000  -0.000

    CHARGE:  cpu time    0.0957: real time    0.0957
    FORLOC:  cpu time    0.0002: real time    0.0002
    FORNL :  cpu time    0.0150: real time    0.0151
    STRESS:  cpu time    0.2212: real time    0.2213
    FORCOR:  cpu time    0.0056: real time    0.0056
    FORHAR:  cpu time    0.0008: real time    0.0008
    MIXING:  cpu time    0.0003: real time    0.0003
    OFIELD:  cpu time    0.0000: real time    0.0000

  FORCE on cell =-STRESS in cart. coord.  units (eV):
  Direction    XX          YY          ZZ          XY          YZ          ZX
  --------------------------------------------------------------------------------------
  Alpha Z    -0.20255    -0.20255    -0.20255
  Ewald     -24.46432   -24.46432   -24.46432    -0.00000    -0.00000     0.00000
  Hartree     0.03495     0.03495     0.03495     0.00000     0.00000     0.00000
  E(xc)      -8.54950    -8.54950    -8.54950     0.00000     0.00000     0.00000
  Local       0.34086     0.34086     0.34086    -0.00000    -0.00000    -0.00000
  n-local    18.88463    18.56206    18.99515     0.46867    -0.58827     0.52060
  augment    -1.02586    -1.02586    -1.02586     0.00000     0.00000     0.00000
  Kinetic    12.27420    10.93668    21.69567    -9.59216     8.32334    -6.21083
  Fock        0.00000     0.00000     0.00000     0.00000     0.00000     0.00000
  -------------------------------------------------------------------------------------
  Total      -0.08362    -0.08362    -0.08362    -0.00000     0.00000    -0.00000
  in kB      -8.07859    -8.07859    -8.07859    -0.00000     0.00000    -0.00000
  external pressure =       -8.08 kB  Pullay stress =        0.00 kB


 VOLUME and BASIS-vectors are now :
 -----------------------------------------------------------------------------
  energy-cutoff  :      520.00
  volume of cell :       16.58
      direct lattice vectors                 reciprocal lattice vectors
     0.000000000  2.024000000  2.024000000    -0.247035573  0.247035573  0.247035573
     2.024000000  0.000000000  2.024000000     0.247035573 -0.247035573  0.247035573
     2.024000000  2.024000000  0.000000000     0.247035573  0.247035573 -0.247035573

  length of vectors
     2.862368250  2.862368250  2.862368250     0.427878164  0.427878164  0.427878164


 FORCES acting on ions
    electron-ion (+dipol)            ewald-force                    non-local-force                 convergence-correction
 -----------------------------------------------------------------------------------------------
   0.994E-16 0.109E-14 0.245E-14   0.817E-16 0.470E-16 -.229E-15   0.388E-25 0.388E-25 0.258E-25   -.613E-18 0.361E-17 0.773E-17
 -----------------------------------------------------------------------------------------------
   0.994E-16 0.109E-14 0.245E-14   0.817E-16 0.470E-16 -.229E-15   0.388E-25 0.388E-25 0.258E-25   -.613E-18 0.361E-17 0.773E-17


 POSITION                                       TOTAL-FORCE (eV/Angst)
 -----------------------------------------------------------------------------------
      0.00000      0.00000      0.00000         0.000000      0.000000      0.000000
 -----------------------------------------------------------------------------------
    total drift:                                0.000000      0.000000      0.000000


--------------------------------------------------------------------------------------------------------



  FREE ENERGIE OF THE ION-ELECTRON SYSTEM (eV)
  ---------------------------------------------------
  free  energy   TOTEN  =        -3.74617107 eV

  energy  without entropy=       -3.74617107  energy(sigma->0) =       -3.74617107



--------------------------------------------------------------------------------------------------------


    POTLOK:  cpu time    0.1759: real time    0.1769


--------------------------------------------------------------------------------------------------------


 stress matrix after NEB project (eV)
     -0.08362     -0.00000     -0.00000
     -0.00000     -0.08362      0.00000
      0.00000      0.00000     -0.08362
  FORCES: max atom, RMS     0.000000    0.000000
  FORCE total and by dimension    0.000000    0.000000
  Stress total and by dimension    0.144826    0.083615
     LOOP+:  cpu time  144.7008: real time  144.7127
 -----------------------------------------------------------------------------
|                                                                             |
|           W    W    AA    RRRRR   N    N  II  N    N   GGGG   !!!           |
|           W    W   A  A   R    R  NN   N  II  NN   N  G    G  !!!           |
|           W    W  A    A  R    R  N N  N  II  N N  N  G       !!!           |
|           W WW W  AAAAAA  RRRRR   N  N N  II  N  N N  G  GGG   !            |
|           WW  WW  A    A  R   R   N   NN  II  N   NN  G    G                |
|           W    W  A    A  R    R  N    N  II  N    N   GGGG   !!!           |
|                                                                             |
|     Tetrahedron method does not include variations of the Fermi             |
|     occupations, so forces and stress will be inaccurate. We suggest        |
|     using a different smearing scheme ISMEAR = 1 or 2 for metals in         |
|     relaxations.                                                            |
|                                                                             |
 -----------------------------------------------------------------------------

    4ORBIT:  cpu time    0.0000: real time    0.0000



 total charge

# of ion       s       p       d       tot
------------------------------------------
    1        0.426   0.338   0.000   0.765



 magnetization (x)

# of ion       s       p       d       tot
------------------------------------------
    1       -0.000  -0.000   0.000  -0.000

 BZINTS: Fermi energy:    7.990451;    3.000000 electrons
         Band energy: 0.106106E+02;  BLOECHL correction:   -0.058074

 total amount of memory used by VASP MPI-rank0    38362. kBytes
=======================================================================

   base      :      30000. kBytes
   nonl-proj :       4462. kBytes
   fftplans  :        150. kBytes
   grid      :       1295. kBytes
   one-center:          6. kBytes
   wavefun   :       2449. kBytes

  
  
 General timing and accounting informations for this job:
 ========================================================
  
                  Total CPU time used (sec):      148.384
                            User time (sec):      146.564
                          System time (sec):        1.820
                         Elapsed time (sec):      148.343
  
                   Maximum memory used (kb):       58024.
                   Average memory used (kb):          N/A
  
                          Minor page faults:        42727
                          Major page faults:          420
                 Voluntary context switches:         2145
