       N       E                     dE             d eps       ncg     rms          rms(c)
DAV:   1    -0.363579486120E+01   -0.36358E+01   -0.85759E+02 32832   0.336E+01
DAV:   2    -0.368317636614E+01   -0.47382E-01   -0.47278E-01 30000   0.106E+00
DAV:   3    -0.368317838503E+01   -0.20189E-05   -0.20263E-05 34032   0.627E-03
DAV:   4    -0.368317838502E+01    0.17437E-10   -0.97213E-11 33744   0.924E-06
DAV:   5    -0.368317838488E+01    0.13725E-09    0.35023E-13 32976   0.439E-09    0.174E+00
RMM:   6    -0.375083544219E+01   -0.67657E-01   -0.24098E-03 23045   0.767E-02    0.825E-01
RMM:   7    -0.374222057286E+01    0.86149E-02   -0.93197E-04 24080   0.454E-02    0.663E-01
RMM:   8    -0.374201985999E+01    0.20071E-03   -0.19952E-04 23842   0.240E-02    0.205E-01
RMM:   9    -0.374200580748E+01    0.14053E-04   -0.27145E-05 24950   0.799E-03
   1 F= -.37420058E+01 E0= -.37420058E+01  d E =0.000000E+00  mag=     0.0014
