   57   57  200    2
  0.1326576E+02  0.7779113E-09  0.7778912E-09  0.1249563E-08  0.0000000E+00
   1.0000000000000000E-004
  CAR 
 unknown system                          
    502     10    324

  0.1262379E-14  0.1262379E-14  0.1262379E-14  0.5555556E-01
    1      -57.259145    -55.160162   1.000000   1.000000
    2      -57.155188    -55.155361   1.000000   1.000000
    3      -57.145461    -55.141410   1.000000   1.000000
    4      -57.137676    -55.109118   1.000000   1.000000
    5      -57.124965    -55.100546   1.000000   1.000000
    6      -57.104969    -55.095755   1.000000   1.000000
    7      -57.091636    -55.095642   1.000000   1.000000
    8      -57.090377    -55.081586   1.000000   1.000000
    9      -57.089406    -55.072834   1.000000   1.000000
   10      -57.088952    -55.068708   1.000000   1.000000
   11      -57.088094    -55.065167   1.000000   1.000000
   12      -57.085638    -55.044331   1.000000   1.000000
   13      -57.080858    -55.042938   1.000000   1.000000
   14      -57.076081    -55.039229   1.000000   1.000000
   15      -57.066817    -55.035075   1.000000   1.000000
   16      -57.062617    -55.034602   1.000000   1.000000
   17      -57.054633    -55.032212   1.000000   1.000000
   18      -57.053514    -55.025313   1.000000   1.000000
   19      -57.050423    -55.020792   1.000000   1.000000
   20      -57.046650    -55.003100   1.000000   1.000000
   21      -57.042325    -54.992972   1.000000   1.000000
   22      -57.038288    -54.978713   1.000000   1.000000
   23      -57.036153    -54.977877   1.000000   1.000000
   24      -57.032652    -54.973261   1.000000   1.000000
   25      -23.407267    -23.404217   1.000000   1.000000
   26      -23.334084    -23.331428   1.000000   1.000000
   27      -23.291063    -23.288374   1.000000   1.000000
   28      -23.285506    -23.282643   1.000000   1.000000
   29      -23.276036    -23.273332   1.000000   1.000000
   30      -23.271390    -23.268407   1.000000   1.000000
   31      -23.248044    -23.245159   1.000000   1.000000
   32      -23.219666    -23.216918   1.000000   1.000000
   33      -23.201787    -23.199193   1.000000   1.000000
   34      -23.166990    -23.164370   1.000000   1.000000
   35      -23.122825    -23.120492   1.000000   1.000000
   36      -23.091963    -23.089540   1.000000   1.000000
   37      -23.045449    -23.042786   1.000000   1.000000
   38      -23.034425    -23.032661   1.000000   1.000000
   39      -22.953380    -22.950651   1.000000   1.000000
   40      -22.934757    -22.931878   1.000000   1.000000
   41      -11.239687    -11.191741   1.000000   1.000000
   42      -11.139313    -11.095698   1.000000   1.000000
   43      -11.095948    -11.044945   1.000000   1.000000
   44      -11.012200    -10.957914   1.000000   1.000000
   45      -10.981917    -10.927390   1.000000   1.000000
   46      -10.969492    -10.914240   1.000000   1.000000
   47      -10.605751    -10.590560   1.000000   1.000000
   48      -10.465902    -10.452486   1.000000   1.000000
   49      -10.446874    -10.432408   1.000000   1.000000
   50      -10.407984    -10.392331   1.000000   1.000000
   51      -10.396139    -10.366126   1.000000   1.000000
   52      -10.367222    -10.346273   1.000000   1.000000
   53      -10.362518    -10.337391   1.000000   1.000000
   54      -10.320743    -10.295926   1.000000   1.000000
   55      -10.240750    -10.221715   1.000000   1.000000
   56      -10.191988    -10.149791   1.000000   1.000000
   57      -10.054753    -10.005130   1.000000   1.000000
   58      -10.044935     -9.993228   1.000000   1.000000
   59       -9.843413     -9.774710   1.000000   1.000000
   60       -9.835208     -9.767959   1.000000   1.000000
   61       -9.792761     -9.744779   1.000000   1.000000
   62       -9.773852     -9.716134   1.000000   1.000000
   63       -9.731954     -9.669907   1.000000   1.000000
   64       -9.671562     -9.591333   1.000000   1.000000
   65       -9.648142     -9.570916   1.000000   1.000000
   66       -9.639465     -9.552914   1.000000   1.000000
   67       -9.583813     -9.469011   1.000000   1.000000
   68       -9.537878     -9.419089   1.000000   1.000000
   69       -9.512427     -9.388634   1.000000   1.000000
   70       -9.472649     -9.364987   1.000000   1.000000
   71       -9.447743     -9.358679   1.000000   1.000000
   72       -9.443134     -9.346890   1.000000   1.000000
   73       -9.419931     -9.323731   1.000000   1.000000
   74       -7.287752     -7.275711   1.000000   1.000000
   75       -7.261794     -7.250599   1.000000   1.000000
   76       -7.231759     -7.218124   1.000000   1.000000
   77       -7.212752     -7.202449   1.000000   1.000000
   78       -7.149430     -7.141113   1.000000   1.000000
   79       -7.066017     -7.058322   1.000000   1.000000
   80       -7.048779     -7.029415   1.000000   1.000000
   81       -7.021235     -7.015046   1.000000   1.000000
   82       -6.956185     -6.945483   1.000000   1.000000
   83       -6.948462     -6.938069   1.000000   1.000000
   84       -6.900484     -6.891615   1.000000   1.000000
   85       -6.893339     -6.888417   1.000000   1.000000
   86       -6.886769     -6.878796   1.000000   1.000000
   87       -6.882243     -6.876846   1.000000   1.000000
   88       -6.865333     -6.860738   1.000000   1.000000
   89       -6.852026     -6.845933   1.000000   1.000000
   90       -6.822106     -6.816228   1.000000   1.000000
   91       -6.818548     -6.811526   1.000000   1.000000
   92       -6.773316     -6.762535   1.000000   1.000000
   93       -6.719141     -6.711547   1.000000   1.000000
   94       -6.713352     -6.703774   1.000000   1.000000
   95       -6.694564     -6.688907   1.000000   1.000000
   96       -6.680780     -6.674227   1.000000   1.000000
   97       -6.669383     -6.663230   1.000000   1.000000
   98       -6.633959     -6.626838   1.000000   1.000000
   99       -6.626745     -6.616165   1.000000   1.000000
  100       -6.606470     -6.589400   1.000000   1.000000
  101       -6.588192     -6.573068   1.000000   1.000000
  102       -6.575912     -6.554932   1.000000   1.000000
  103       -6.553310     -6.532158   1.000000   1.000000
  104       -6.411257     -6.392654   1.000000   1.000000
  105       -6.395595     -6.382636   1.000000   1.000000
  106       -6.387089     -6.372926   1.000000   1.000000
  107       -6.120948     -6.105135   1.000000   1.000000
  108       -6.096349     -6.078418   1.000000   1.000000
  109       -6.032603     -6.011950   1.000000   1.000000
  110       -6.009027     -5.987579   1.000000   1.000000
  111       -5.925329     -5.902495   1.000000   1.000000
  112       -5.855010     -5.825648   1.000000   1.000000
  113       -5.807753     -5.783766   1.000000   1.000000
  114       -5.787920     -5.757075   1.000000   1.000000
  115       -5.766415     -5.735676   1.000000   1.000000
  116       -5.746720     -5.717234   1.000000   1.000000
  117       -5.637712     -5.600020   1.000000   1.000000
  118       -5.612383     -5.548767   1.000000   1.000000
  119       -5.567429     -5.521623   1.000000   1.000000
  120       -5.256526     -5.226428   1.000000   1.000000
  121       -4.869840     -4.855259   1.000000   1.000000
  122        0.245934      1.191564   1.000000   1.000000
  123        0.275764      1.215096   1.000000   1.000000
  124        0.336886      2.351389   1.000000   1.000000
  125        0.368373      2.377023   1.000000   1.000000
  126        0.369705      2.430633   1.000000   1.000000
  127        0.411582      2.444468   1.000000   1.000000
  128        0.414416      2.454787   1.000000   1.000000
  129        0.448573      2.476612   1.000000   1.000000
  130        1.642271      2.545464   1.000000   1.000000
  131        1.713935      2.570209   1.000000   1.000000
  132        1.721187      2.573747   1.000000   1.000000
  133        1.734952      2.587754   1.000000   1.000000
  134        1.770305      2.779007   1.000000   1.000000
  135        1.786894      2.812914   1.000000   1.000000
  136        1.801933      2.860184   1.000000   1.000000
  137        1.817932      2.889772   1.000000   1.000000
  138        1.997923      3.024791   1.000000   1.000000
  139        2.016056      3.067339   1.000000   1.000000
  140        2.026557      3.092282   1.000000   1.000000
  141        2.053688      3.098517   1.000000   1.000000
  142        2.177920      3.127911   1.000000   1.000000
  143        2.206253      3.147248   1.000000   1.000000
  144        2.238010      3.195023   1.000000   1.000000
  145        2.265248      3.204031   1.000000   1.000000
  146        2.341998      3.313167   1.000000   1.000000
  147        2.367927      3.364646   1.000000   1.000000
  148        2.385115      3.497052   1.000000   1.000000
  149        2.401232      3.544021   1.000000   1.000000
  150        2.409703      3.555499   1.000000   1.000000
  151        2.422905      3.584912   1.000000   1.000000
  152        2.679134      3.622763   1.000000   1.000000
  153        2.731983      3.715329   1.000000   1.000000
  154        2.742948      3.738557   1.000000   1.000000
  155        2.765793      3.784558   1.000000   1.000000
  156        2.781315      3.793227   1.000000   1.000000
  157        2.830899      3.811369   1.000000   1.000000
  158        2.844725      3.820946   1.000000   1.000000
  159        2.870412      3.830154   1.000000   1.000000
  160        2.885775      3.842441   1.000000   1.000000
  161        2.898524      4.034238   1.000000   1.000000
  162        2.972172      4.043371   1.000000   1.000000
  163        3.007812      4.069266   1.000000   1.000000
  164        3.151838      4.102459   1.000000   1.000000
  165        3.194829      4.145579   1.000000   1.000000
  166        3.267090      4.168866   1.000000   1.000000
  167        3.279230      4.205562   1.000000   1.000000
  168        3.528449      4.278143   1.000000   1.000000
  169        3.538362      4.317005   1.000000   1.000000
  170        3.549767      4.347806   1.000000   1.000000
  171        3.604714      4.437547   1.000000   1.000000
  172        3.624297      4.447830   1.000000   1.000000
  173        3.978743      4.474167   1.000000   1.000000
  174        4.028136      4.501735   1.000000   1.000000
  175        4.036165      4.515901   1.000000   1.000000
  176        4.125340      4.540896   1.000000   1.000000
  177        4.155242      4.703527   1.000000   1.000000
  178        4.220531      4.751041   1.000000   1.000000
  179        4.266263      4.766032   1.000000   1.000000
  180        4.294422      4.800209   1.000000   1.000000
  181        4.304385      4.822915   1.000000   1.000000
  182        4.345929      4.920953   1.000000   1.000000
  183        4.415576      4.936565   1.000000   1.000000
  184        4.466640      4.937103   1.000000   1.000000
  185        4.605030      4.966198   1.000000   1.000000
  186        4.622030      5.021089   1.000000   1.000000
  187        4.647674      5.064008   1.000000   1.000000
  188        4.670649      5.090581   1.000000   1.000000
  189        4.674228      5.101126   1.000000   1.000000
  190        4.695978      5.128158   1.000000   1.000000
  191        4.760959      5.165403   1.000000   1.000000
  192        4.780710      5.186830   1.000000   1.000000
  193        4.806806      5.193950   1.000000   1.000000
  194        4.861598      5.205828   1.000000   1.000000
  195        4.874355      5.223004   1.000000   1.000000
  196        4.892259      5.234124   1.000000   1.000000
  197        4.902326      5.264266   1.000000   1.000000
  198        4.925800      5.277938   1.000000   1.000000
  199        4.992790      5.331418   1.000000   1.000000
  200        5.032745      5.385159   1.000000   1.000000
  201        5.047125      5.392941   1.000000   1.000000
  202        5.101678      5.424695   1.000000   1.000000
  203        5.108058      5.453957   1.000000   1.000000
  204        5.129395      5.501299   1.000000   1.000000
  205        5.167003      5.529198   1.000000   1.000000
  206        5.211650      5.570504   1.000000   1.000000
  207        5.215166      5.613599   1.000000   1.000000
  208        5.237568      5.625950   1.000000   1.000000
  209        5.260980      5.670820   1.000000   1.000000
  210        5.300251      5.716417   1.000000   1.000000
  211        5.315263      5.751583   1.000000   1.000000
  212        5.342804      5.792824   1.000000   1.000000
  213        5.362625      5.824187   1.000000   1.000000
  214        5.406512      5.892928   1.000000   1.000000
  215        5.427460      5.912250   1.000000   1.000000
  216        5.487663      5.933704   1.000000   1.000000
  217        5.542482      5.953019   1.000000   1.000000
  218        5.558442      5.979470   1.000000   1.000000
  219        5.587207      5.985041   1.000000   1.000000
  220        5.619123      5.995494   1.000000   1.000000
  221        5.643143      6.038218   1.000000   1.000000
  222        5.708807      6.054173   1.000000   1.000000
  223        5.730449      6.089144   1.000000   1.000000
  224        5.739656      6.104828   1.000000   1.000000
  225        5.763127      6.188471   1.000000   1.000000
  226        5.802528      6.197422   1.000000   1.000000
  227        5.870490      6.209666   1.000000   1.000000
  228        5.880719      6.233457   1.000000   1.000000
  229        5.889388      6.239253   1.000000   1.000000
  230        5.913974      6.242334   1.000000   1.000000
  231        5.921895      6.275878   1.000000   1.000000
  232        5.937706      6.304831   1.000000   1.000000
  233        5.956061      6.327565   1.000000   1.000000
  234        5.992980      6.342704   1.000000   1.000000
  235        6.002209      6.371127   1.000000   1.000000
  236        6.045801      6.371727   1.000000   1.000000
  237        6.146858      6.389065   1.000000   1.000000
  238        6.152233      6.423541   1.000000   1.000000
  239        6.166080      6.438088   1.000000   1.000000
  240        6.195303      6.457936   1.000000   1.000000
  241        6.208424      6.485720   1.000000   1.000000
  242        6.220498      6.666270   1.000000   1.000000
  243        6.246957      6.773037   1.000000   1.000000
  244        6.268044      6.952930   1.000000   0.999997
  245        6.308594     10.068990   1.000000   0.000000
  246        6.326817     10.268726   1.000000   0.000000
  247        6.353982     10.306517   1.000000   0.000000
  248        6.368353     10.470573   1.000000   0.000000
  249        6.386050     10.570635   1.000000   0.000000
  250        6.614529     10.595905   1.000000   0.000000
  251        6.709537     10.610221   1.000000   0.000000
  252        6.796765     10.626653   1.000000   0.000000
  253        6.956878     10.640289   0.999997   0.000000
  254        6.971160     10.657152   0.999994   0.000000
  255        7.076549     10.709543   0.999869   0.000000
  256        7.099374     10.912708   0.999758   0.000000
  257        7.153852     10.989754   0.999046   0.000000
  258        7.172338     11.056233   0.998528   0.000000
  259        8.676212     11.078570   0.000000   0.000000
  260        8.678340     11.095165   0.000000   0.000000
  261       10.076462     11.152241   0.000000   0.000000
  262       10.603487     11.159512   0.000000   0.000000
  263       10.636721     11.167288   0.000000   0.000000
  264       11.012567     11.179937   0.000000   0.000000
  265       11.060457     11.190800   0.000000   0.000000
  266       11.090789     11.224226   0.000000   0.000000
  267       11.154386     11.231024   0.000000   0.000000
  268       11.181458     11.252933   0.000000   0.000000
  269       11.196766     11.303241   0.000000   0.000000
  270       11.224008     11.373980   0.000000   0.000000
  271       11.284936     11.391788   0.000000   0.000000
  272       11.339819     11.406037   0.000000   0.000000
  273       11.353467     11.416743   0.000000   0.000000
  274       11.362235     11.464261   0.000000   0.000000
  275       11.386593     11.484562   0.000000   0.000000
  276       11.397584     11.484919   0.000000   0.000000
  277       11.425056     11.497242   0.000000   0.000000
  278       11.449902     11.511800   0.000000   0.000000
  279       11.460605     11.521296   0.000000   0.000000
  280       11.483723     11.526977   0.000000   0.000000
  281       11.492129     11.542061   0.000000   0.000000
  282       11.499452     11.569992   0.000000   0.000000
  283       11.519682     11.579114   0.000000   0.000000
  284       11.529638     11.585387   0.000000   0.000000
  285       11.541662     11.589438   0.000000   0.000000
  286       11.569774     11.610025   0.000000   0.000000
  287       11.579391     11.626024   0.000000   0.000000
  288       11.606191     11.627879   0.000000   0.000000
  289       11.611555     11.631600   0.000000   0.000000
  290       11.623243     11.641451   0.000000   0.000000
  291       11.627736     11.657787   0.000000   0.000000
  292       11.633878     11.670381   0.000000   0.000000
  293       11.639263     11.680401   0.000000   0.000000
  294       11.650625     11.696603   0.000000   0.000000
  295       11.671558     11.699989   0.000000   0.000000
  296       11.687321     11.704614   0.000000   0.000000
  297       11.692720     11.718131   0.000000   0.000000
  298       11.698707     11.730188   0.000000   0.000000
  299       11.710366     11.738210   0.000000   0.000000
  300       11.719644     11.741542   0.000000   0.000000
  301       11.727225     11.752609   0.000000   0.000000
  302       11.733223     11.761511   0.000000   0.000000
  303       11.739290     11.766168   0.000000   0.000000
  304       11.750457     11.770077   0.000000   0.000000
  305       11.758872     11.775131   0.000000   0.000000
  306       11.760377     11.780862   0.000000   0.000000
  307       11.763830     11.782021   0.000000   0.000000
  308       11.773012     11.791234   0.000000   0.000000
  309       11.773290     11.800994   0.000000   0.000000
  310       11.782415     11.806465   0.000000   0.000000
  311       11.789781     11.807323   0.000000   0.000000
  312       11.795952     11.809396   0.000000   0.000000
  313       11.801197     11.822585   0.000000   0.000000
  314       11.804349     11.827698   0.000000   0.000000
  315       11.810493     11.835078   0.000000   0.000000
  316       11.822603     11.845792   0.000000   0.000000
  317       11.825008     11.852813   0.000000   0.000000
  318       11.834927     11.864590   0.000000   0.000000
  319       11.843334     11.874665   0.000000   0.000000
  320       11.859597     11.877261   0.000000   0.000000
  321       11.867743     11.880887   0.000000   0.000000
  322       11.872385     11.887179   0.000000   0.000000
  323       11.875275     11.893367   0.000000   0.000000
  324       11.881682     11.896863   0.000000   0.000000

  0.3333333E+00  0.1262399E-14  0.1262310E-14  0.1111111E+00
    1      -57.259175    -55.160149   1.000000   1.000000
    2      -57.155287    -55.155477   1.000000   1.000000
    3      -57.145534    -55.141453   1.000000   1.000000
    4      -57.137636    -55.109215   1.000000   1.000000
    5      -57.124992    -55.100494   1.000000   1.000000
    6      -57.104983    -55.095780   1.000000   1.000000
    7      -57.091562    -55.095712   1.000000   1.000000
    8      -57.090435    -55.081708   1.000000   1.000000
    9      -57.089478    -55.072785   1.000000   1.000000
   10      -57.088984    -55.068647   1.000000   1.000000
   11      -57.088152    -55.065300   1.000000   1.000000
   12      -57.085733    -55.044392   1.000000   1.000000
   13      -57.080941    -55.042892   1.000000   1.000000
   14      -57.076050    -55.039240   1.000000   1.000000
   15      -57.066916    -55.035153   1.000000   1.000000
   16      -57.062559    -55.034639   1.000000   1.000000
   17      -57.054723    -55.032309   1.000000   1.000000
   18      -57.053457    -55.025389   1.000000   1.000000
   19      -57.050387    -55.020849   1.000000   1.000000
   20      -57.046603    -55.003175   1.000000   1.000000
   21      -57.042400    -54.993051   1.000000   1.000000
   22      -57.038312    -54.978786   1.000000   1.000000
   23      -57.036235    -54.977957   1.000000   1.000000
   24      -57.032689    -54.973339   1.000000   1.000000
   25      -23.384107    -23.381113   1.000000   1.000000
   26      -23.338803    -23.336001   1.000000   1.000000
   27      -23.311011    -23.308249   1.000000   1.000000
   28      -23.278316    -23.275546   1.000000   1.000000
   29      -23.270829    -23.267980   1.000000   1.000000
   30      -23.257674    -23.254877   1.000000   1.000000
   31      -23.246151    -23.243273   1.000000   1.000000
   32      -23.233833    -23.231079   1.000000   1.000000
   33      -23.203210    -23.200639   1.000000   1.000000
   34      -23.171745    -23.169158   1.000000   1.000000
   35      -23.118874    -23.116567   1.000000   1.000000
   36      -23.100390    -23.097963   1.000000   1.000000
   37      -23.047299    -23.044629   1.000000   1.000000
   38      -23.030236    -23.028415   1.000000   1.000000
   39      -22.957041    -22.954317   1.000000   1.000000
   40      -22.937598    -22.934724   1.000000   1.000000
   41      -11.146883    -11.107770   1.000000   1.000000
   42      -11.113339    -11.068764   1.000000   1.000000
   43      -11.084802    -11.044353   1.000000   1.000000
   44      -10.956774    -10.913034   1.000000   1.000000
   45      -10.870528    -10.824437   1.000000   1.000000
   46      -10.806460    -10.757199   1.000000   1.000000
   47      -10.705379    -10.680243   1.000000   1.000000
   48      -10.605943    -10.579684   1.000000   1.000000
   49      -10.562091    -10.517380   1.000000   1.000000
   50      -10.457338    -10.440180   1.000000   1.000000
   51      -10.386460    -10.368679   1.000000   1.000000
   52      -10.352950    -10.326966   1.000000   1.000000
   53      -10.287226    -10.271149   1.000000   1.000000
   54      -10.256886    -10.245589   1.000000   1.000000
   55      -10.152591    -10.103911   1.000000   1.000000
   56      -10.098587    -10.043568   1.000000   1.000000
   57      -10.045944     -9.986154   1.000000   1.000000
   58      -10.027797     -9.965181   1.000000   1.000000
   59       -9.950828     -9.890073   1.000000   1.000000
   60       -9.940967     -9.884425   1.000000   1.000000
   61       -9.910556     -9.850208   1.000000   1.000000
   62       -9.840759     -9.780765   1.000000   1.000000
   63       -9.773994     -9.691671   1.000000   1.000000
   64       -9.737540     -9.644872   1.000000   1.000000
   65       -9.705443     -9.635171   1.000000   1.000000
   66       -9.615914     -9.537744   1.000000   1.000000
   67       -9.607287     -9.496002   1.000000   1.000000
   68       -9.560810     -9.478162   1.000000   1.000000
   69       -9.520771     -9.428494   1.000000   1.000000
   70       -9.518357     -9.408686   1.000000   1.000000
   71       -9.483711     -9.386912   1.000000   1.000000
   72       -9.463366     -9.352445   1.000000   1.000000
   73       -9.306747     -9.239233   1.000000   1.000000
   74       -7.287480     -7.276476   1.000000   1.000000
   75       -7.238608     -7.224765   1.000000   1.000000
   76       -7.154790     -7.144783   1.000000   1.000000
   77       -7.136937     -7.127008   1.000000   1.000000
   78       -7.115041     -7.103496   1.000000   1.000000
   79       -7.096564     -7.086779   1.000000   1.000000
   80       -7.078284     -7.065421   1.000000   1.000000
   81       -7.040582     -7.026719   1.000000   1.000000
   82       -7.005656     -6.997565   1.000000   1.000000
   83       -6.985302     -6.973809   1.000000   1.000000
   84       -6.958875     -6.948676   1.000000   1.000000
   85       -6.935375     -6.929001   1.000000   1.000000
   86       -6.929103     -6.918600   1.000000   1.000000
   87       -6.878410     -6.867727   1.000000   1.000000
   88       -6.866899     -6.857965   1.000000   1.000000
   89       -6.855842     -6.849314   1.000000   1.000000
   90       -6.846165     -6.833923   1.000000   1.000000
   91       -6.834995     -6.825801   1.000000   1.000000
   92       -6.819762     -6.810274   1.000000   1.000000
   93       -6.785282     -6.775608   1.000000   1.000000
   94       -6.760221     -6.747985   1.000000   1.000000
   95       -6.726017     -6.718005   1.000000   1.000000
   96       -6.703003     -6.685687   1.000000   1.000000
   97       -6.659059     -6.651955   1.000000   1.000000
   98       -6.621882     -6.610838   1.000000   1.000000
   99       -6.591763     -6.585445   1.000000   1.000000
  100       -6.572774     -6.562003   1.000000   1.000000
  101       -6.555765     -6.542798   1.000000   1.000000
  102       -6.505897     -6.495080   1.000000   1.000000
  103       -6.473523     -6.461570   1.000000   1.000000
  104       -6.386940     -6.355937   1.000000   1.000000
  105       -6.191303     -6.170217   1.000000   1.000000
  106       -6.160668     -6.141369   1.000000   1.000000
  107       -6.097605     -6.076744   1.000000   1.000000
  108       -6.054219     -6.032340   1.000000   1.000000
  109       -6.024436     -6.002822   1.000000   1.000000
  110       -5.972830     -5.947450   1.000000   1.000000
  111       -5.920855     -5.894441   1.000000   1.000000
  112       -5.896475     -5.867490   1.000000   1.000000
  113       -5.879240     -5.850624   1.000000   1.000000
  114       -5.835752     -5.804364   1.000000   1.000000
  115       -5.770521     -5.734942   1.000000   1.000000
  116       -5.738977     -5.706214   1.000000   1.000000
  117       -5.695988     -5.663779   1.000000   1.000000
  118       -5.682642     -5.629601   1.000000   1.000000
  119       -5.612672     -5.575236   1.000000   1.000000
  120       -5.266801     -5.236900   1.000000   1.000000
  121       -4.943855     -4.933115   1.000000   1.000000
  122        0.335605      1.451025   1.000000   1.000000
  123        0.336388      1.470585   1.000000   1.000000
  124        0.367126      2.062703   1.000000   1.000000
  125        0.370190      2.068363   1.000000   1.000000
  126        0.698270      2.414978   1.000000   1.000000
  127        0.754659      2.447958   1.000000   1.000000
  128        0.780010      2.556716   1.000000   1.000000
  129        0.801942      2.617055   1.000000   1.000000
  130        1.489614      2.644165   1.000000   1.000000
  131        1.548885      2.661119   1.000000   1.000000
  132        1.558294      2.680507   1.000000   1.000000
  133        1.570541      2.710144   1.000000   1.000000
  134        1.776266      2.774060   1.000000   1.000000
  135        1.794219      2.797396   1.000000   1.000000
  136        1.822241      2.866779   1.000000   1.000000
  137        1.834431      2.904075   1.000000   1.000000
  138        1.993412      2.953377   1.000000   1.000000
  139        2.029737      2.973280   1.000000   1.000000
  140        2.040465      2.998862   1.000000   1.000000
  141        2.091000      3.047007   1.000000   1.000000
  142        2.148494      3.064500   1.000000   1.000000
  143        2.163388      3.102426   1.000000   1.000000
  144        2.188824      3.144114   1.000000   1.000000
  145        2.241833      3.183714   1.000000   1.000000
  146        2.286644      3.203921   1.000000   1.000000
  147        2.332478      3.290402   1.000000   1.000000
  148        2.353436      3.363372   1.000000   1.000000
  149        2.355979      3.413793   1.000000   1.000000
  150        2.377407      3.455665   1.000000   1.000000
  151        2.398270      3.596127   1.000000   1.000000
  152        2.479012      3.617707   1.000000   1.000000
  153        2.521595      3.623780   1.000000   1.000000
  154        2.539337      3.693631   1.000000   1.000000
  155        2.560491      3.788152   1.000000   1.000000
  156        2.590924      3.822728   1.000000   1.000000
  157        2.613386      3.832380   1.000000   1.000000
  158        2.643429      3.874835   1.000000   1.000000
  159        2.655122      3.892792   1.000000   1.000000
  160        2.750790      3.915302   1.000000   1.000000
  161        2.765161      4.008017   1.000000   1.000000
  162        2.780880      4.015183   1.000000   1.000000
  163        2.834882      4.073492   1.000000   1.000000
  164        2.853849      4.134965   1.000000   1.000000
  165        2.871980      4.174954   1.000000   1.000000
  166        3.392729      4.307668   1.000000   1.000000
  167        3.479045      4.346832   1.000000   1.000000
  168        3.525706      4.380534   1.000000   1.000000
  169        3.629050      4.469670   1.000000   1.000000
  170        3.645748      4.505719   1.000000   1.000000
  171        3.781104      4.551332   1.000000   1.000000
  172        3.818947      4.608424   1.000000   1.000000
  173        3.852592      4.652388   1.000000   1.000000
  174        3.999473      4.679856   1.000000   1.000000
  175        4.115048      4.696836   1.000000   1.000000
  176        4.189350      4.729567   1.000000   1.000000
  177        4.236649      4.732495   1.000000   1.000000
  178        4.253764      4.778667   1.000000   1.000000
  179        4.356057      4.800813   1.000000   1.000000
  180        4.406640      4.823780   1.000000   1.000000
  181        4.442627      4.872232   1.000000   1.000000
  182        4.477209      4.897053   1.000000   1.000000
  183        4.516634      4.919086   1.000000   1.000000
  184        4.583458      4.942365   1.000000   1.000000
  185        4.609154      4.974714   1.000000   1.000000
  186        4.680512      4.990420   1.000000   1.000000
  187        4.709800      5.026206   1.000000   1.000000