       N       E                     dE             d eps       ncg     rms          rms(c)
DAV:   1     0.832265830030E+04    0.83227E+04   -0.15440E+05 14212   0.209E+03
DAV:   2     0.289371900031E+04   -0.54289E+04   -0.49808E+04 14560   0.646E+02
DAV:   3     0.716290785458E+03   -0.21774E+04   -0.19386E+04 14624   0.311E+02
DAV:   4    -0.222203108330E+03   -0.93849E+03   -0.88336E+03 20224   0.177E+02
DAV:   5    -0.433410041872E+03   -0.21121E+03   -0.20455E+03 25352   0.106E+02    0.796E+01
DAV:   6    -0.407689418621E+03    0.25721E+02   -0.10279E+03 22072   0.103E+02    0.137E+02
DAV:   7    -0.412148367059E+03   -0.44589E+01   -0.27569E+02 23120   0.624E+01    0.447E+01
DAV:   8    -0.409629406772E+03    0.25190E+01   -0.34185E+01 22344   0.272E+01    0.235E+01
DAV:   9    -0.413305587104E+03   -0.36762E+01   -0.16854E+01 23248   0.121E+01    0.203E+01
DAV:  10    -0.414828866091E+03   -0.15233E+01   -0.49716E+00 24656   0.798E+00    0.140E+01
DAV:  11    -0.415396144190E+03   -0.56728E+00   -0.19153E+00 25032   0.474E+00    0.987E+00
DAV:  12    -0.415537813430E+03   -0.14167E+00   -0.65576E-01 23912   0.297E+00    0.757E+00
DAV:  13    -0.415565461421E+03   -0.27648E-01   -0.19725E-01 22144   0.196E+00    0.487E+00
DAV:  14    -0.415569240222E+03   -0.37788E-02   -0.10953E-01 24360   0.108E+00    0.327E+00
DAV:  15    -0.415574514930E+03   -0.52747E-02   -0.39485E-02 25640   0.574E-01    0.225E+00
DAV:  16    -0.415575926862E+03   -0.14119E-02   -0.98643E-03 23072   0.425E-01    0.124E+00
DAV:  17    -0.415575558860E+03    0.36800E-03   -0.74823E-03 23104   0.311E-01    0.648E-01
DAV:  18    -0.415575981831E+03   -0.42297E-03   -0.44891E-03 24680   0.193E-01    0.442E-01
DAV:  19    -0.415576174629E+03   -0.19280E-03   -0.90572E-04 22856   0.116E-01    0.317E-01
DAV:  20    -0.415576233067E+03   -0.58438E-04   -0.47050E-04 24024   0.815E-02    0.199E-01
DAV:  21    -0.415576299111E+03   -0.66043E-04   -0.22902E-04 24232   0.511E-02    0.124E-01
DAV:  22    -0.415576342877E+03   -0.43767E-04   -0.13914E-04 24664   0.353E-02    0.871E-02
DAV:  23    -0.415576375252E+03   -0.32375E-04   -0.52376E-05 22792   0.277E-02    0.442E-02
DAV:  24    -0.415576414134E+03   -0.38882E-04   -0.67606E-05 23384   0.263E-02    0.186E-02
DAV:  25    -0.415576437449E+03   -0.23316E-04   -0.45401E-05 23216   0.172E-02    0.159E-02
DAV:  26    -0.415576455630E+03   -0.18181E-04   -0.16714E-05 21312   0.143E-02    0.203E-02
DAV:  27    -0.415576476079E+03   -0.20450E-04   -0.37231E-05 21104   0.166E-02    0.211E-02
DAV:  28    -0.415576491403E+03   -0.15323E-04   -0.34678E-05 18120   0.179E-02    0.193E-02
DAV:  29    -0.415576501539E+03   -0.10136E-04   -0.42235E-05 19640   0.144E-02    0.174E-02
DAV:  30    -0.415576506518E+03   -0.49786E-05   -0.20594E-05 19496   0.126E-02    0.994E-03
DAV:  31    -0.415576509355E+03   -0.28376E-05   -0.10348E-05 17112   0.791E-03    0.476E-03
DAV:  32    -0.415576510099E+03   -0.74407E-06   -0.21967E-06 16160   0.425E-03    0.256E-03
DAV:  33    -0.415576510306E+03   -0.20608E-06   -0.69873E-07 13096   0.303E-03    0.176E-03
DAV:  34    -0.415576510421E+03   -0.11560E-06   -0.46710E-07 11800   0.307E-03    0.166E-03
DAV:  35    -0.415576510526E+03   -0.10471E-06   -0.51417E-07 12136   0.246E-03    0.114E-03
DAV:  36    -0.415576510572E+03   -0.45919E-07   -0.17119E-07 11280   0.214E-03
   1 F= -.41557651E+03 E0= -.41556550E+03  d E =-.415577E+03  mag=    14.0000
       N       E                     dE             d eps       ncg     rms          rms(c)
DAV:   1    -0.415578828918E+03   -0.23184E-02   -0.80799E-03 16512   0.283E-01    0.287E-02
DAV:   2    -0.415578914879E+03   -0.85961E-04   -0.91704E-04 22560   0.998E-02    0.172E-02
DAV:   3    -0.415578919156E+03   -0.42774E-05   -0.60207E-05 24464   0.244E-02    0.141E-02
DAV:   4    -0.415578918426E+03    0.73019E-06   -0.82665E-06 24696   0.947E-03    0.995E-03
DAV:   5    -0.415578917337E+03    0.10889E-05   -0.58762E-06 21720   0.813E-03    0.606E-03
DAV:   6    -0.415578917510E+03   -0.17269E-06   -0.27565E-06 22040   0.547E-03    0.320E-03
DAV:   7    -0.415578917530E+03   -0.20060E-07   -0.92201E-07 19376   0.293E-03
   2 F= -.41557892E+03 E0= -.41556790E+03  d E =-.240696E-02  mag=    14.0001
       N       E                     dE             d eps       ncg     rms          rms(c)
DAV:   1    -0.415562706290E+03    0.16211E-01   -0.65828E+00 15676   0.803E+00    0.814E-01
DAV:   2    -0.415632771881E+03   -0.70066E-01   -0.74534E-01 22584   0.286E+00    0.494E-01
DAV:   3    -0.415636346150E+03   -0.35743E-02   -0.48955E-02 24504   0.687E-01    0.395E-01
DAV:   4    -0.415635718102E+03    0.62805E-03   -0.65415E-03 24720   0.268E-01    0.284E-01
DAV:   5    -0.415634839128E+03    0.87897E-03   -0.48397E-03 22144   0.229E-01    0.173E-01
DAV:   6    -0.415634974669E+03   -0.13554E-03   -0.22236E-03 22920   0.154E-01    0.929E-02
DAV:   7    -0.415634989358E+03   -0.14689E-04   -0.83523E-04 24856   0.814E-02    0.553E-02
DAV:   8    -0.415635009016E+03   -0.19658E-04   -0.18691E-04 23360   0.544E-02    0.306E-02
DAV:   9    -0.415635009141E+03   -0.12558E-06   -0.54734E-05 25192   0.263E-02    0.183E-02
DAV:  10    -0.415635009757E+03   -0.61582E-06   -0.20855E-05 25456   0.158E-02    0.114E-02
DAV:  11    -0.415635010628E+03   -0.87119E-06   -0.63429E-06 23736   0.922E-03    0.657E-03
DAV:  12    -0.415635011229E+03   -0.60028E-06   -0.45187E-06 23800   0.641E-03    0.436E-03
DAV:  13    -0.415635011698E+03   -0.46936E-06   -0.11720E-06 18752   0.411E-03    0.360E-03
DAV:  14    -0.415635011941E+03   -0.24319E-06   -0.46052E-07 13592   0.295E-03    0.274E-03
DAV:  15    -0.415635012328E+03   -0.38657E-06   -0.99116E-07 17000   0.327E-03    0.209E-03
DAV:  16    -0.415635012645E+03   -0.31714E-06   -0.34110E-07 11856   0.274E-03    0.179E-03
DAV:  17    -0.415635012953E+03   -0.30838E-06   -0.50135E-07 12528   0.271E-03    0.151E-03
DAV:  18    -0.415635013218E+03   -0.26426E-06   -0.44296E-07 11896   0.272E-03    0.141E-03
DAV:  19    -0.415635013424E+03   -0.20634E-06   -0.68855E-07 12424   0.303E-03    0.132E-03
DAV:  20    -0.415635013550E+03   -0.12592E-06   -0.48497E-07 11816   0.229E-03    0.941E-04
DAV:  21    -0.415635013603E+03   -0.52714E-07   -0.16449E-07 10800   0.161E-03
   3 F= -.41563501E+03 E0= -.41562377E+03  d E =-.560961E-01  mag=    14.0002
       N       E                     dE             d eps       ncg     rms          rms(c)
DAV:   1    -0.415438712963E+03    0.19630E+00   -0.23240E+01 15240   0.146E+01    0.142E+00
DAV:   2    -0.415686762572E+03   -0.24805E+00   -0.26031E+00 22448   0.559E+00    0.866E-01
DAV:   3    -0.415699011181E+03   -0.12249E-01   -0.16361E-01 25000   0.124E+00    0.630E-01
DAV:   4    -0.415696754646E+03    0.22565E-02   -0.19303E-02 24792   0.473E-01    0.489E-01
DAV:   5    -0.415693604362E+03    0.31503E-02   -0.12654E-02 22264   0.395E-01    0.306E-01
DAV:   6    -0.415693829648E+03   -0.22529E-03   -0.71372E-03 22616   0.273E-01    0.170E-01
DAV:   7    -0.415693962786E+03   -0.13314E-03   -0.23884E-03 25064   0.140E-01    0.973E-02
DAV:   8    -0.415694007727E+03   -0.44941E-04   -0.60365E-04 24248   0.956E-02    0.544E-02
DAV:   9    -0.415694005961E+03    0.17654E-05   -0.16301E-04 24288   0.507E-02    0.329E-02
DAV:  10    -0.415694007290E+03   -0.13293E-05   -0.95644E-05 25328   0.309E-02    0.199E-02
DAV:  11    -0.415694012098E+03   -0.48074E-05   -0.24693E-05 24520   0.174E-02    0.997E-03
DAV:  12    -0.415694014073E+03   -0.19750E-05   -0.10721E-05 23904   0.110E-02    0.790E-03
DAV:  13    -0.415694016055E+03   -0.19822E-05   -0.35219E-06 23816   0.681E-03    0.604E-03
DAV:  14    -0.415694017339E+03   -0.12837E-05   -0.17444E-06 19864   0.494E-03    0.508E-03
DAV:  15    -0.415694018783E+03   -0.14443E-05   -0.22417E-06 20784   0.484E-03    0.399E-03
DAV:  16    -0.415694020417E+03   -0.16336E-05   -0.15163E-06 17264   0.483E-03    0.367E-03
DAV:  17    -0.415694021674E+03   -0.12575E-05   -0.22876E-06 14304   0.459E-03    0.308E-03
DAV:  18    -0.415694022821E+03   -0.11463E-05   -0.25226E-06 17480   0.566E-03    0.296E-03
DAV:  19    -0.415694023509E+03   -0.68871E-06   -0.22533E-06 12552   0.427E-03    0.245E-03
DAV:  20    -0.415694023871E+03   -0.36142E-06   -0.13824E-06 13104   0.341E-03    0.181E-03
DAV:  21    -0.415694024056E+03   -0.18512E-06   -0.54731E-07 11640   0.245E-03    0.104E-03
DAV:  22    -0.415694024130E+03   -0.73975E-07   -0.20919E-07 10648   0.216E-03
   4 F= -.41569402E+03 E0= -.41568261E+03  d E =-.590105E-01  mag=    14.0002
       N       E                     dE             d eps       ncg     rms          rms(c)
DAV:   1    -0.415553621879E+03    0.14040E+00   -0.12302E+01 14928   0.125E+01    0.107E+00
DAV:   2    -0.415712021876E+03   -0.15840E+00   -0.16463E+00 22256   0.461E+00    0.587E-01
DAV:   3    -0.415720627737E+03   -0.86059E-02   -0.10338E-01 25128   0.980E-01    0.400E-01
DAV:   4    -0.415720014126E+03    0.61361E-03   -0.10820E-02 25160   0.358E-01    0.336E-01
DAV:   5    -0.415718650650E+03    0.13635E-02   -0.39576E-03 22552   0.253E-01    0.231E-01
DAV:   6    -0.415718400835E+03    0.24982E-03   -0.30260E-03 21744   0.182E-01    0.105E-01
DAV:   7    -0.415718546036E+03   -0.14520E-03   -0.14836E-03 24736   0.106E-01    0.622E-02
DAV:   8    -0.415718569123E+03   -0.23086E-04   -0.30948E-04 24408   0.684E-02    0.381E-02
DAV:   9    -0.415718571453E+03   -0.23298E-05   -0.98157E-05 25304   0.375E-02    0.257E-02
DAV:  10    -0.415718573846E+03   -0.23935E-05   -0.38187E-05 25456   0.224E-02    0.163E-02
DAV:  11    -0.415718577244E+03   -0.33980E-05   -0.11293E-05 24088   0.121E-02    0.901E-03
DAV:  12    -0.415718578891E+03   -0.16474E-05   -0.46953E-06 23472   0.711E-03    0.627E-03
DAV:  13    -0.415718580328E+03   -0.14367E-05   -0.24391E-06 22080   0.532E-03    0.515E-03
DAV:  14    -0.415718581427E+03   -0.10984E-05   -0.11395E-06 15728   0.435E-03    0.418E-03
DAV:  15    -0.415718582636E+03   -0.12098E-05   -0.11370E-06 14648   0.390E-03    0.340E-03
DAV:  16    -0.415718584041E+03   -0.14051E-05   -0.14444E-06 15440   0.518E-03    0.312E-03
DAV:  17    -0.415718585249E+03   -0.12079E-05   -0.32909E-06 14688   0.516E-03    0.299E-03
DAV:  18    -0.415718585991E+03   -0.74175E-06   -0.17618E-06 13640   0.456E-03    0.242E-03
DAV:  19    -0.415718586434E+03   -0.44279E-06   -0.15859E-06 14192   0.433E-03    0.216E-03
DAV:  20    -0.415718586684E+03   -0.25060E-06   -0.10496E-06 12304   0.318E-03    0.152E-03
DAV:  21    -0.415718586787E+03   -0.10221E-06   -0.32038E-07 11336   0.227E-03    0.904E-04
DAV:  22    -0.415718586812E+03   -0.25299E-07   -0.85562E-08  9400   0.162E-03
   5 F= -.41571859E+03 E0= -.41570728E+03  d E =-.245627E-01  mag=    14.0001
       N       E                     dE             d eps       ncg     rms          rms(c)
DAV:   1    -0.415245923299E+03    0.47266E+00   -0.37496E+01 14928   0.212E+01    0.182E+00
DAV:   2    -0.415722202577E+03   -0.47628E+00   -0.49508E+00 22296   0.798E+00    0.101E+00
DAV:   3    -0.415748811239E+03   -0.26609E-01   -0.30742E-01 25104   0.163E+00    0.668E-01
DAV:   4    -0.415748068610E+03    0.74263E-03   -0.31208E-02 25008   0.611E-01    0.567E-01
DAV:   5    -0.415745044682E+03    0.30239E-02   -0.93241E-03 22496   0.383E-01    0.393E-01
DAV:   6    -0.415744084436E+03    0.96025E-03   -0.80240E-03 20392   0.300E-01    0.150E-01
DAV:   7    -0.415744610508E+03   -0.52607E-03   -0.47812E-03 25080   0.176E-01    0.101E-01
DAV:   8    -0.415744658347E+03   -0.47839E-04   -0.86122E-04 25296   0.101E-01    0.554E-02
DAV:   9    -0.415744664430E+03   -0.60829E-05   -0.23827E-04 25024   0.572E-02    0.436E-02
DAV:  10    -0.415744674815E+03   -0.10385E-04   -0.90143E-05 23888   0.365E-02    0.259E-02
DAV:  11    -0.415744686023E+03   -0.11207E-04   -0.34090E-05 24608   0.196E-02    0.172E-02
DAV:  12    -0.415744693158E+03   -0.71356E-05   -0.13750E-05 23752   0.129E-02    0.118E-02
DAV:  13    -0.415744699299E+03   -0.61404E-05   -0.77761E-06 23416   0.962E-03    0.993E-03
DAV:  14    -0.415744704998E+03   -0.56990E-05   -0.52128E-06 19840   0.823E-03    0.805E-03
DAV:  15    -0.415744711118E+03   -0.61200E-05   -0.64156E-06 19192   0.797E-03    0.687E-03
DAV:  16    -0.415744716944E+03   -0.58265E-05   -0.85989E-06 19008   0.919E-03    0.655E-03
DAV:  17    -0.415744721619E+03   -0.46750E-05   -0.13377E-05 17432   0.109E-02    0.670E-03
DAV:  18    -0.415744724601E+03   -0.29817E-05   -0.11341E-05 15200   0.745E-03    0.479E-03
DAV:  19    -0.415744725776E+03   -0.11749E-05   -0.27425E-06 14032   0.526E-03    0.329E-03
DAV:  20    -0.415744726352E+03   -0.57590E-06   -0.22515E-06 13344   0.407E-03    0.239E-03
DAV:  21    -0.415744726567E+03   -0.21533E-06   -0.10961E-06 13568   0.396E-03    0.198E-03
DAV:  22    -0.415744726749E+03   -0.18155E-06   -0.67013E-07 11744   0.265E-03    0.967E-04
DAV:  23    -0.415744726785E+03   -0.36547E-07   -0.96646E-08  9960   0.179E-03
   6 F= -.41574473E+03 E0= -.41573332E+03  d E =-.261400E-01  mag=    14.0000
       N       E                     dE             d eps       ncg     rms          rms(c)
DAV:   1    -0.415117154002E+03    0.62757E+00   -0.38147E+01 14720   0.262E+01    0.217E+00
DAV:   2    -0.415723686176E+03   -0.60653E+00   -0.63094E+00 22152   0.856E+00    0.113E+00
DAV:   3    -0.415761235803E+03   -0.37550E-01   -0.40578E-01 24904   0.193E+00    0.760E-01
DAV:   4    -0.415761122428E+03    0.11337E-03   -0.44047E-02 25616   0.684E-01    0.630E-01
DAV:   5    -0.415758775464E+03    0.23470E-02   -0.11010E-02 23976   0.413E-01    0.463E-01
DAV:   6    -0.415757832809E+03    0.94265E-03   -0.48294E-03 21944   0.282E-01    0.221E-01
DAV:   7    -0.415758025663E+03   -0.19285E-03   -0.40044E-03 22864   0.191E-01    0.133E-01
DAV:   8    -0.415758239570E+03   -0.21391E-03   -0.17038E-03 25248   0.124E-01    0.706E-02
DAV:   9    -0.415758236316E+03    0.32533E-05   -0.31410E-04 24688   0.718E-02    0.551E-02
DAV:  10    -0.415758234700E+03    0.16166E-05   -0.18301E-04 25368   0.457E-02    0.327E-02
DAV:  11    -0.415758247066E+03   -0.12366E-04   -0.54722E-05 24816   0.273E-02    0.183E-02
DAV:  12    -0.415758256048E+03   -0.89822E-05   -0.24299E-05 24040   0.162E-02    0.141E-02
DAV:  13    -0.415758263656E+03   -0.76075E-05   -0.83631E-06 22704   0.117E-02    0.108E-02
DAV:  14    -0.415758269420E+03   -0.57645E-05   -0.66386E-06 20984   0.794E-03    0.925E-03
DAV:  15    -0.415758276379E+03   -0.69589E-05   -0.56753E-06 19104   0.814E-03    0.772E-03
DAV:  16    -0.415758284948E+03   -0.85687E-05   -0.89226E-06 19168   0.126E-02    0.757E-03
DAV:  17    -0.415758290944E+03   -0.59967E-05   -0.22139E-05 16496   0.900E-03    0.644E-03
DAV:  18    -0.415758294215E+03   -0.32710E-05   -0.60531E-06 15248   0.755E-03    0.494E-03
DAV:  19    -0.415758296286E+03   -0.20711E-05   -0.71011E-06 18304   0.838E-03    0.465E-03
DAV:  20    -0.415758297576E+03   -0.12892E-05   -0.59729E-06 14416   0.584E-03    0.345E-03
DAV:  21    -0.415758298136E+03   -0.56074E-06   -0.16893E-06 12320   0.367E-03    0.210E-03
DAV:  22    -0.415758298274E+03   -0.13764E-06   -0.39882E-07 11968   0.252E-03    0.118E-03
DAV:  23    -0.415758298331E+03   -0.57313E-07   -0.18748E-07 10288   0.235E-03
   7 F= -.41575830E+03 E0= -.41574730E+03  d E =-.135715E-01  mag=    14.0000
       N       E                     dE             d eps       ncg     rms          rms(c)
DAV:   1    -0.415345573693E+03    0.41272E+00   -0.18305E+01 14744   0.218E+01    0.187E+00
DAV:   2    -0.415752127538E+03   -0.40655E+00   -0.42562E+00 22096   0.668E+00    0.969E-01
DAV:   3    -0.415777944054E+03   -0.25817E-01   -0.27731E-01 24400   0.164E+00    0.636E-01
DAV:   4    -0.415777839531E+03    0.10452E-03   -0.32240E-02 25144   0.577E-01    0.526E-01
DAV:   5    -0.415776491788E+03    0.13477E-02   -0.96008E-03 24440   0.363E-01    0.378E-01
DAV:   6    -0.415776087000E+03    0.40479E-03   -0.30340E-03 22600   0.232E-01    0.194E-01
DAV:   7    -0.415776140777E+03   -0.53777E-04   -0.19793E-03 23144   0.138E-01    0.956E-02
DAV:   8    -0.415776272334E+03   -0.13156E-03   -0.92744E-04 25552   0.870E-02    0.516E-02
DAV:   9    -0.415776268577E+03    0.37568E-05   -0.18356E-04 24624   0.556E-02    0.373E-02
DAV:  10    -0.415776270638E+03   -0.20607E-05   -0.82497E-05 25248   0.328E-02    0.264E-02
DAV:  11    -0.415776275806E+03   -0.51681E-05   -0.27842E-05 24288   0.204E-02    0.136E-02
DAV:  12    -0.415776281103E+03   -0.52971E-05   -0.15838E-05 24424   0.123E-02    0.986E-03
DAV:  13    -0.415776284494E+03   -0.33908E-05   -0.49806E-06 21712   0.823E-03    0.735E-03
DAV:  14    -0.415776287157E+03   -0.26627E-05   -0.25976E-06 18080   0.559E-03    0.659E-03
DAV:  15    -0.415776290040E+03   -0.28835E-05   -0.21932E-06 15144   0.544E-03    0.550E-03
DAV:  16    -0.415776294388E+03   -0.43481E-05   -0.50913E-06 18720   0.898E-03    0.535E-03
DAV:  17    -0.415776297033E+03   -0.26441E-05   -0.81697E-06 13496   0.604E-03    0.438E-03
DAV:  18    -0.415776298731E+03   -0.16986E-05   -0.26936E-06 14552   0.576E-03    0.359E-03
DAV:  19    -0.415776300007E+03   -0.12756E-05   -0.42598E-06 17048   0.705E-03    0.355E-03
DAV:  20    -0.415776300895E+03   -0.88820E-06   -0.43486E-06 13312   0.469E-03    0.259E-03
DAV:  21    -0.415776301239E+03   -0.34367E-06   -0.10398E-06 12520   0.323E-03    0.173E-03
DAV:  22    -0.415776301367E+03   -0.12828E-06   -0.41964E-07 11784   0.227E-03    0.969E-04
DAV:  23    -0.415776301407E+03   -0.40076E-07   -0.19196E-07 10352   0.231E-03
   8 F= -.41577630E+03 E0= -.41576466E+03  d E =-.180031E-01  mag=    14.0000
       N       E                     dE             d eps       ncg     rms          rms(c)
DAV:   1    -0.415705873816E+03    0.70428E-01   -0.29048E+00 15168   0.888E+00    0.810E-01
DAV:   2    -0.415779534953E+03   -0.73661E-01   -0.76365E-01 22120   0.272E+00    0.404E-01
DAV:   3    -0.415783574069E+03   -0.40391E-02   -0.44336E-02 24336   0.615E-01    0.244E-01
DAV:   4    -0.415783646788E+03   -0.72719E-04   -0.55049E-03 25176   0.212E-01    0.215E-01
DAV:   5    -0.415783425459E+03    0.22133E-03   -0.13446E-03 22824   0.136E-01    0.153E-01
DAV:   6    -0.415783332449E+03    0.93010E-04   -0.64908E-04 21184   0.978E-02    0.714E-02
DAV:   7    -0.415783362608E+03   -0.30159E-04   -0.41240E-04 23296   0.607E-02    0.426E-02
DAV:   8    -0.415783378001E+03   -0.15393E-04   -0.14643E-04 24968   0.407E-02    0.192E-02
DAV:   9    -0.415783377358E+03    0.64298E-06   -0.27337E-05 23768   0.227E-02    0.149E-02
DAV:  10    -0.415783377320E+03    0.38424E-07   -0.16761E-05 25512   0.131E-02    0.876E-03
DAV:  11    -0.415783377880E+03   -0.56074E-06   -0.34252E-06 23240   0.716E-03    0.521E-03
DAV:  12    -0.415783378197E+03   -0.31712E-06   -0.18588E-06 21776   0.466E-03    0.364E-03
DAV:  13    -0.415783378417E+03   -0.22009E-06   -0.47757E-07 13896   0.327E-03    0.209E-03
DAV:  14    -0.415783378618E+03   -0.20082E-06   -0.29699E-07 12472   0.232E-03    0.187E-03
DAV:  15    -0.415783378787E+03   -0.16826E-06   -0.18901E-07 11240   0.197E-03    0.155E-03
DAV:  16    -0.415783378981E+03   -0.19438E-06   -0.19002E-07 11536   0.210E-03    0.132E-03
DAV:  17    -0.415783379208E+03   -0.22716E-06   -0.42337E-07 12032   0.237E-03    0.120E-03
DAV:  18    -0.415783379358E+03   -0.15033E-06   -0.34995E-07 11576   0.224E-03    0.108E-03
DAV:  19    -0.415783379458E+03   -0.99855E-07   -0.22111E-07 11144   0.203E-03
   9 F= -.41578338E+03 E0= -.41577203E+03  d E =-.707805E-02  mag=    14.0000
       N       E                     dE             d eps       ncg     rms          rms(c)
DAV:   1    -0.415773325811E+03    0.10054E-01   -0.85019E-01 14484   0.370E+00    0.312E-01
DAV:   2    -0.415786083393E+03   -0.12758E-01   -0.13245E-01 22192   0.124E+00    0.164E-01
DAV:   3    -0.415786838579E+03   -0.75519E-03   -0.82861E-03 24688   0.276E-01    0.114E-01
DAV:   4    -0.415786836030E+03    0.25486E-05   -0.94892E-04 25352   0.999E-02    0.937E-02
DAV:   5    -0.415786774988E+03    0.61043E-04   -0.26595E-04 23928   0.639E-02    0.686E-02
DAV:   6    -0.415786752692E+03    0.22296E-04   -0.13609E-04 21560   0.468E-02    0.309E-02
DAV:   7    -0.415786760532E+03   -0.78403E-05   -0.97763E-05 23288   0.284E-02    0.203E-02
DAV:   8    -0.415786764129E+03   -0.35974E-05   -0.30446E-05 24960   0.178E-02    0.101E-02
DAV:   9    -0.415786764438E+03   -0.30889E-06   -0.66822E-06 25112   0.995E-03    0.804E-03
DAV:  10    -0.415786764716E+03   -0.27796E-06   -0.25344E-06 22112   0.708E-03    0.529E-03
DAV:  11    -0.415786765175E+03   -0.45873E-06   -0.16926E-06 19624   0.406E-03    0.296E-03
DAV:  12    -0.415786765490E+03   -0.31484E-06   -0.48638E-07 13000   0.310E-03    0.242E-03
DAV:  13    -0.415786765752E+03   -0.26237E-06   -0.34027E-07 12304   0.252E-03    0.189E-03
DAV:  14    -0.415786766007E+03   -0.25432E-06   -0.24595E-07 10752   0.235E-03    0.169E-03
DAV:  15    -0.415786766288E+03   -0.28122E-06   -0.33780E-07 11856   0.241E-03    0.145E-03
DAV:  16    -0.415786766642E+03   -0.35427E-06   -0.81409E-07 12192   0.391E-03    0.163E-03
DAV:  17    -0.415786766881E+03   -0.23856E-06   -0.10584E-06 12592   0.283E-03    0.126E-03
DAV:  18    -0.415786766978E+03   -0.97862E-07   -0.26794E-07 11200   0.203E-03
  10 F= -.41578677E+03 E0= -.41577548E+03  d E =-.338752E-02  mag=    14.0000
