unknown system                          
           1
     7.779112    0.004108    0.003623
    -0.004572    7.778910   -0.003498
    -0.005983    0.006298   12.495625
   La   Ni   O 
    16     8    33
Direct configuration=     1
   0.24590122  0.26661624  0.85623118
   0.00328268  0.50162856  0.36188843
   0.99197447  0.49568247  0.64071910
   0.50564977  0.49519824  0.64356066
   0.48441993  0.49898996  0.36277760
   0.98161133  0.99865891  0.36190591
   0.99282098  0.00451258  0.64073927
   0.74377721  0.73848558  0.13879156
   0.50051187  0.00129036  0.36278081
   0.74140469  0.25747584  0.13747289
   0.73882295  0.23354945  0.85618281
   0.24109684  0.76173841  0.13879598
   0.24536158  0.75300897  0.86042871
   0.24347408  0.24279590  0.13747740
   0.47936027  0.00510510  0.64356842
   0.73960628  0.74720372  0.86041762
   0.24049926  0.25107916  0.49992765
   0.74438286  0.24921507  0.49993500
   0.74209472  0.74799343  0.50230922
   0.24285083  0.75231048  0.50230201
   0.49287321  0.50245619  0.00015877
   0.99414023  0.50016789  0.99849786
   0.49202431  0.99778788  0.00017014
   0.99075300  0.00008316  0.99849687
   0.45482270  0.01063502  0.17806000
   0.51877187  0.95091317  0.83021847
   0.02998145  0.51603219  0.82668106
   0.95762203  0.49500833  0.17835874
   0.52999650  0.48959790  0.17804803
   0.46641851  0.54953179  0.83018828
   0.23803584  0.79055081  0.67459257
   0.02738752  0.00521904  0.17837845
   0.25065182  0.28838612  0.32252970
   0.74059083  0.78423508  0.32199950
   0.74695276  0.70989114  0.67457907
   0.73424133  0.21202013  0.32252489
   0.78093034  0.27350926  0.66951732
   0.24434677  0.71591476  0.32201025
   0.95479552  0.98441236  0.82672906
   0.99244202  0.25012746  0.00092162
   0.49243806  0.25012114  0.50286585
   0.24107373  0.00606196  0.98328598
   0.24307555  0.50025958  0.01900565
   0.74181770  0.00001592  0.01911519
   0.74382463  0.49409265  0.98335476
   0.46038665  0.24629531  0.73671276
   0.99243683  0.75012108  0.01027398
   0.49247843  0.75018908  0.49660612
   0.49241844  0.25012448  0.99415311
   0.24235067  0.00108317  0.48138230
   0.24644520  0.50215748  0.51721684
   0.73855813  0.99812130  0.51711040
   0.74251347  0.49922928  0.48150477
   0.99245371  0.25018223  0.48211365
   0.99246943  0.75010287  0.49392874
   0.49244100  0.75011778  0.02082206
   0.15255205  0.23065673  0.68289069
Direct configuration=     2
   0.24532033  0.26707524  0.85704716
   0.00325340  0.50151457  0.36192773
   0.99129979  0.49545238  0.64087364
   0.50610423  0.49566275  0.64356431
   0.48453632  0.49904146  0.36277918
   0.98159516  0.99878720  0.36196052
   0.99156317  0.00325802  0.64059598
   0.74381561  0.73847395  0.13885455
   0.50079728  0.00126004  0.36278358
   0.74151419  0.25751048  0.13760478
   0.73762455  0.23324464  0.85572535
   0.24123256  0.76174097  0.13878562
   0.24557989  0.75291525  0.86031269
   0.24353235  0.24275820  0.13741348
   0.48035624  0.00373125  0.64326531
   0.73957830  0.74726300  0.86019857
   0.24001248  0.25127215  0.49961159
   0.74443491  0.24917756  0.49997200
   0.74215427  0.74803491  0.50235701
   0.24295313  0.75231364  0.50237465
   0.49280707  0.50246932  0.00012158
   0.99430309  0.50023160  0.99853241
   0.49206310  0.99777709  0.00012503
   0.99097609  0.00002015  0.99854095
   0.45495399  0.01060891  0.17810007
   0.51970879  0.95090993  0.83048073
   0.02944692  0.51641114  0.82672634
   0.95765354  0.49492368  0.17837622
   0.53006446  0.48964470  0.17808210
   0.46665271  0.54953564  0.83032889
   0.23821320  0.79044669  0.67464032
   0.02749866  0.00532058  0.17840517
   0.25054743  0.28836217  0.32259486
   0.74073056  0.78423510  0.32194145
   0.74685909  0.70992645  0.67467280
   0.73454310  0.21197556  0.32245265
   0.78020787  0.27396707  0.67010351
   0.24438251  0.71592418  0.32202521
   0.95436315  0.98441944  0.82702188
   0.99180468  0.25007820  0.00065012
   0.49198297  0.25009521  0.50257460
   0.24118573  0.00578875  0.98344885
   0.24314159  0.50045030  0.01915741
   0.74192604  0.00017118  0.01902153
   0.74387352  0.49381939  0.98325335
   0.46163184  0.24700072  0.73685791
   0.99249921  0.75013067  0.01039092
   0.49265279  0.75003051  0.49632379
   0.49317295  0.25007663  0.99400816
   0.24246465  0.00158692  0.48163512
   0.24642112  0.50157099  0.51735194
   0.73865369  0.99804986  0.51691126
   0.74261987  0.49928661  0.48141719
   0.99266540  0.25022454  0.48218872
   0.99249265  0.74995379  0.49385080
   0.49256016  0.75012440  0.02066231
   0.15143370  0.23191433  0.68223186
Direct configuration=     3
   0.24422698  0.26803507  0.85794364
   0.00324619  0.50132858  0.36199370
   0.99016553  0.49455290  0.64120356
   0.50677668  0.49602708  0.64365561
   0.48468969  0.49907192  0.36279668
   0.98169251  0.99904355  0.36196681
   0.98943685  0.00121038  0.64061461
   0.74391203  0.73846372  0.13881273
   0.50126387  0.00128801  0.36270520
   0.74180425  0.25757302  0.13763253
   0.73468948  0.23255198  0.85489907
   0.24151606  0.76177802  0.13879743
   0.24601219  0.75269267  0.86012705
   0.24363772  0.24261535  0.13747038
   0.48225391  0.00153439  0.64292824
   0.73972433  0.74713904  0.86015028
   0.23923037  0.25162826  0.49902196
   0.74434225  0.24930514  0.50007645
   0.74237027  0.74783138  0.50230723
   0.24305877  0.75214216  0.50249681
   0.49300871  0.50254198  0.00004312
   0.99423989  0.50036425  0.99858453
   0.49238461  0.99768625  0.00008153
   0.99110053 -0.00009294  0.99861910
   0.45521455  0.01061834  0.17820099
   0.52173517  0.95084630  0.83088426
   0.02837285  0.51727848  0.82692040
   0.95775656  0.49472141  0.17843199
   0.53017149  0.48973123  0.17816837
   0.46713967  0.54992101  0.83069480
   0.23866100  0.79030124  0.67468480
   0.02777556  0.00559952  0.17850237
   0.25030858  0.28828297  0.32261802
   0.74103279  0.78428520  0.32186145
   0.74656008  0.71041331  0.67471653
   0.73519283  0.21181912  0.32240846
   0.77898795  0.27499929  0.67104611
   0.24447326  0.71596788  0.32209573
   0.95333132  0.98445091  0.82745080
   0.99058960  0.25000388  0.00007330
   0.49119281  0.24990706  0.50196596
   0.24144308  0.00527682  0.98379780
   0.24326070  0.50072289  0.01947604
   0.74215197  0.00040322  0.01892613
   0.74396729  0.49333473  0.98307774
   0.46421013  0.24800332  0.73746779
   0.99268389  0.75015316  0.01065980
   0.49285915  0.74976725  0.49571293
   0.49453737  0.24998569  0.99366395
   0.24270704  0.00242105  0.48230038
   0.24637939  0.50071815  0.51762884
   0.73878170  0.99804748  0.51648934
   0.74281848  0.49924142  0.48123113
   0.99259135  0.25021715  0.48216405
   0.99265082  0.74971687  0.49369485
   0.49278063  0.75015304  0.02038561
   0.14931333  0.23432851  0.68088678
Direct configuration=     4
   0.24326236  0.26879552  0.85776269
   0.00325816  0.50128862  0.36201398
   0.98958229  0.49355635  0.64138080
   0.50692706  0.49570680  0.64373639
   0.48473880  0.49906751  0.36280078
   0.98193881  0.99921724  0.36191645
   0.98853851  0.00028976  0.64096093
   0.74402461  0.73845350  0.13871672
   0.50151570  0.00136671  0.36259099
   0.74216852  0.25763210  0.13740127
   0.73192688  0.23184588  0.85457281
   0.24177193  0.76180807  0.13886296
   0.24628470  0.75255187  0.86011912
   0.24369447  0.24245751  0.13766483
   0.48352940  0.00042822  0.64290704
   0.74024914  0.74664750  0.86055438
   0.23880053  0.25177076  0.49864592
   0.74400648  0.24952851  0.50012155
   0.74258955  0.74745199  0.50204066
   0.24307419  0.75192707  0.50254806
   0.49337107  0.50258989  0.00004453
   0.99392603  0.50036966  0.99862785
   0.49281270  0.99759649  0.00012454
   0.99096681 -0.00005398  0.99862525
   0.45543367  0.01071883  0.17825880
   0.52349261  0.95087049  0.83097693
   0.02763508  0.51821644  0.82723065
   0.95788308  0.49450034  0.17847008
   0.53024032  0.48979018  0.17823317
   0.46751010  0.55058877  0.83101960
   0.23922527  0.79035549  0.67470262
   0.02810644  0.00595816  0.17857929
   0.25005165  0.28814991  0.32251427
   0.74134165  0.78436985  0.32178458
   0.74608899  0.71146408  0.67456634
   0.73575344  0.21161068  0.32244012
   0.77819806  0.27591905  0.67127794
   0.24457281  0.71603950  0.32218477
   0.95239593  0.98441071  0.82752357
   0.98987036  0.24997743 -0.00043409
   0.49080918  0.24960128  0.50150559
   0.24165775  0.00500992  0.98403282
   0.24332348  0.50070855  0.01968593
   0.74232628  0.00037155  0.01904443
   0.74399753  0.49308771  0.98302233
   0.46568330  0.24801307  0.73827890
   0.99289802  0.75019547  0.01094743
   0.49286767  0.74963657  0.49521229
   0.49520800  0.24992735  0.99332671
   0.24291887  0.00271193  0.48307608
   0.24639352  0.50047550  0.51785209
   0.73881756  0.99817648  0.51619070
   0.74289484  0.49899342  0.48108453
   0.99204621  0.25008000  0.48192439
   0.99290504  0.74964170  0.49360634
   0.49297037  0.75018988  0.02023748
   0.14794027  0.23589627  0.68011855
Direct configuration=     5
   0.24081215  0.26997555  0.85725730
   0.00308535  0.50142774  0.36194533
   0.98845943  0.49288891  0.64129195
   0.50701884  0.49508084  0.64376747
   0.48478840  0.49913500  0.36270058
   0.98242796  0.99946241  0.36206684
   0.98781648 -0.00087332  0.64139335
   0.74427647  0.73839581  0.13892498
   0.50189268  0.00147320  0.36258377
   0.74301163  0.25773899  0.13708604
   0.72708200  0.23004642  0.85464274
   0.24223474  0.76176430  0.13898044
   0.24677812  0.75266509  0.86046715
   0.24372366  0.24223016  0.13764928
   0.48541152 -0.00167147  0.64289423
   0.74168395  0.74531031  0.86108431
   0.23793953  0.25167978  0.49794546
   0.74334645  0.24932544  0.49987599
   0.74276336  0.74734402  0.50135387
   0.24321592  0.75183695  0.50260475
   0.49326877  0.50246285  0.00032819
   0.99395668  0.50010585  0.99884024
   0.49305051  0.99760820  0.00030461
   0.99107601  0.00030851  0.99845413
   0.45581864  0.01106776  0.17819980
   0.52690524  0.95089408  0.83099770
   0.02683384  0.52027045  0.82777756
   0.95813167  0.49399729  0.17845325
   0.53038603  0.48983298  0.17828510
   0.46815921  0.55192730  0.83132678
   0.24058964  0.79088257  0.67498621
   0.02890824  0.00686191  0.17856346
   0.24955141  0.28772956  0.32240021
   0.74203318  0.78444484  0.32152105
   0.74470173  0.71432850  0.67413357
   0.73648922  0.21113633  0.32221677
   0.77707612  0.27768216  0.67077974
   0.24477044  0.71623305  0.32231681
   0.95073706  0.98443366  0.82733199
   0.98904809  0.24993625 -0.00143222
   0.49025214  0.24903533  0.50102877
   0.24188904  0.00492333  0.98413522
   0.24333762  0.50026987  0.01987291
   0.74258017 -0.00020155  0.01972435
   0.74388707  0.49277283  0.98327221
   0.46698908  0.24705589  0.74025953
   0.99331739  0.75035645  0.01156487
   0.49294607  0.74937862  0.49434262
   0.49534111  0.24984818  0.99259892
   0.24325493  0.00260721  0.48485766
   0.24658217  0.50026887  0.51828399
   0.73883727  0.99818125  0.51580820
   0.74268181  0.49862587  0.48080734
   0.99128785  0.24975740  0.48111958
   0.99319093  0.74960941  0.49353219
   0.49335845  0.75022835  0.02025981
   0.14742255  0.23785260  0.67944681
Direct configuration=     6
   0.23840459  0.27056977  0.85643822
   0.00296625  0.50149090  0.36166478
   0.98779543  0.49295084  0.64125595
   0.50652891  0.49283638  0.64449789
   0.48432730  0.49870264  0.36256831
   0.98328103  0.99967122  0.36168812
   0.98891529  0.00022810  0.64190709
   0.74444505  0.73846562  0.13847369
   0.50152982  0.00194696  0.36237889
   0.74353016  0.25742792  0.13683307
   0.72384382  0.22799973  0.85422267
   0.24247211  0.76205828  0.13907190
   0.24788552  0.75294291  0.86077905
   0.24380454  0.24165742  0.13758289
   0.48590566 -0.00223528  0.64397457
   0.74262330  0.74394103  0.86130924
   0.23853311  0.25182977  0.49773226
   0.74313919  0.24943803  0.49926646
   0.74269881  0.74703008  0.50059512
   0.24334334  0.75088845  0.50273095
   0.49388775  0.50261026  0.00061482
   0.99285631  0.50067372  0.99907675
   0.49358513  0.99712491  0.00066947
   0.99033465 -0.00012395  0.99830566
   0.45587277  0.01151398  0.17820946
   0.53008092  0.95008625  0.83143347
   0.02680649  0.52272575  0.82746622
   0.95868071  0.49339776  0.17847940
   0.53024382  0.48970267  0.17837084
   0.46863345  0.55315614  0.83104605
   0.24175687  0.79166944  0.67549285
   0.02992015  0.00796498  0.17868360
   0.24929784  0.28717459  0.32242066
   0.74277347  0.78437858  0.32181284
   0.74325061  0.71749918  0.67315133
   0.73639595  0.21043235  0.32191547
   0.77667105  0.27949824  0.66962098
   0.24481501  0.71656517  0.32242589
   0.94998016  0.98468860  0.82691190
   0.98884377  0.24997553 -0.00212603
   0.48966177  0.24851550  0.50107654
   0.24190929  0.00532980  0.98365469
   0.24319333  0.49986930  0.01997819
   0.74270747 -0.00088387  0.02089446
   0.74375261  0.49236563  0.98432028
   0.46765531  0.24585892  0.74192920
   0.99408972  0.75033312  0.01223436
   0.49287356  0.74916934  0.49361610
   0.49381945  0.24977666  0.99228630
   0.24329286  0.00233127  0.48640480
   0.24655844  0.50053088  0.51848426
   0.73903486  0.99816364  0.51535727
   0.74221895  0.49879825  0.48050529
   0.99056437  0.24962660  0.48013299
   0.99325603  0.74956904  0.49370214
   0.49310370  0.75009550  0.02083295
   0.14806423  0.23794560  0.67885313
Direct configuration=     7
   0.23668340  0.27079427  0.85714010
   0.00270462  0.50171088  0.36161481
   0.98757555  0.49434281  0.64044983
   0.50651544  0.49266635  0.64393058
   0.48419991  0.49874083  0.36261300
   0.98352321  0.99941278  0.36200313
   0.98915677  0.00008373  0.64092907
   0.74436855  0.73820901  0.13915358
   0.50131904  0.00175773  0.36282557
   0.74350661  0.25737347  0.13689972
   0.72331456  0.22689448  0.85445089
   0.24245696  0.76192392  0.13937329
   0.24818215  0.75309050  0.86109222
   0.24379973  0.24181468  0.13734093
   0.48608368 -0.00353354  0.64343099
   0.74347174  0.74298785  0.86057018
   0.23757049  0.25156585  0.49754825
   0.74274322  0.24935516  0.49856826
   0.74239290  0.74771595  0.50023935
   0.24347247  0.75136693  0.50276901
   0.49316340  0.50210077  0.00100113
   0.99350826  0.50009929  0.99940233
   0.49329435  0.99732975  0.00103167
   0.99056543  0.00031167  0.99810640
   0.45566843  0.01169608  0.17798633
   0.53160701  0.94968860  0.83203967
   0.02700358  0.52406960  0.82702974
   0.95901505  0.49305022  0.17830025
   0.53007470  0.48947528  0.17829998
   0.46926400  0.55351571  0.83088432
   0.24239257  0.79233495  0.67606814
   0.03054066  0.00852787  0.17842575
   0.24948323  0.28665719  0.32244993
   0.74329457  0.78420294  0.32153355
   0.74232795  0.71876270  0.67301206
   0.73582482  0.21009474  0.32162610
   0.77658242  0.28044914  0.66924032
   0.24462031  0.71685137  0.32234829
   0.94968945  0.98519700  0.82700212
   0.98882822  0.25013950 -0.00259087
   0.49047559  0.24829812  0.50164085
   0.24172722  0.00564993  0.98295858
   0.24286984  0.49985524  0.01965158
   0.74256249 -0.00136732  0.02168298
   0.74340878  0.49222990  0.98493570
   0.46793894  0.24477174  0.74318418
   0.99437805  0.75040015  0.01250593
   0.49263155  0.74907280  0.49335665
   0.49267292  0.24967529  0.99200742
   0.24321061  0.00178942  0.48715512
   0.24645551  0.50039148  0.51876795
   0.73908038  0.99839889  0.51526954
   0.74188324  0.49860193  0.48029354
   0.99125177  0.24988801  0.47969302
   0.99344458  0.74932526  0.49400021
   0.49279693  0.74985669  0.02123291
   0.14983824  0.23828457  0.67873958
Direct configuration=     8
   0.23749224  0.27044962  0.85712279
   0.00271451  0.50170909  0.36153850
   0.98796771  0.49446028  0.64051112
   0.50649940  0.49256862  0.64408972
   0.48416298  0.49867281  0.36255499
   0.98330485  0.99931689  0.36186678
   0.98938525  0.00053873  0.64097580
   0.74421823  0.73809353  0.13895391
   0.50121947  0.00174494  0.36274881
   0.74315926  0.25731580  0.13687167
   0.72440223  0.22724869  0.85442139
   0.24226723  0.76191450  0.13915787
   0.24809240  0.75302089  0.86113045
   0.24379167  0.24196840  0.13731772
   0.48565977 -0.00293656  0.64367212
   0.74327211  0.74310951  0.86042237
   0.23820538  0.25150684  0.49783935
   0.74334205  0.24923669  0.49855112
   0.74237115  0.74780835  0.50041209
   0.24340209  0.75135813  0.50280393
   0.49292452  0.50211090  0.00092067
   0.99345629  0.50031130  0.99939656
   0.49298253  0.99723357  0.00099186
   0.99065938  0.00023932  0.99809927
   0.45544963  0.01158740  0.17811046
   0.53094584  0.94965075  0.83204820
   0.02711574  0.52371834  0.82683279
   0.95909574  0.49307291  0.17837114
   0.52985641  0.48935496  0.17842398
   0.46938251  0.55320477  0.83079584
   0.24207876  0.79238866  0.67584981
   0.03041293  0.00836754  0.17850451
   0.24979677  0.28667000  0.32255716
   0.74324636  0.78414415  0.32165630
   0.74254643  0.71805506  0.67293511
   0.73549058  0.21016350  0.32176086
   0.77705920  0.28027678  0.66927293
   0.24442868  0.71685915  0.32246844
   0.95004599  0.98537416  0.82691938
   0.98898251  0.25013360 -0.00238368
   0.49021359  0.24836822  0.50184360
   0.24166030  0.00576303  0.98283334
   0.24291779  0.49998040  0.01947795
   0.74254008 -0.00123079  0.02177049
   0.74351003  0.49231923  0.98497165
   0.46767285  0.24464199  0.74283834
   0.99420512  0.75031334  0.01242103
   0.49262176  0.74916422  0.49351561
   0.49257080  0.24971216  0.99221454
   0.24306853  0.00190425  0.48670440
   0.24647017  0.50048078  0.51859543
   0.73911828  0.99853110  0.51525745
   0.74192514  0.49887372  0.48022457
   0.99100347  0.24999254  0.47980964
   0.99328831  0.74930747  0.49406407
   0.49259434  0.74977671  0.02137643
   0.15014873  0.23802919  0.67880306
Direct configuration=     9
   0.23780721  0.27032183  0.85707820
   0.00273922  0.50175022  0.36152353
   0.98817501  0.49458355  0.64046419
   0.50656089  0.49230832  0.64413456
   0.48410191  0.49861420  0.36259170
   0.98324031  0.99923223  0.36176367
   0.98957662  0.00088617  0.64096939
   0.74408671  0.73799208  0.13884943
   0.50109184  0.00174509  0.36272090
   0.74294048  0.25720677  0.13688390
   0.72471485  0.22725218  0.85433591
   0.24209327  0.76196348  0.13921136
   0.24815338  0.75292690  0.86108146
   0.24374722  0.24202998  0.13741529
   0.48554990 -0.00281056  0.64380922
   0.74325984  0.74299270  0.86028445
   0.23821597  0.25154238  0.49794488
   0.74327330  0.24938591  0.49844869
   0.74231761  0.74785907  0.50045932
   0.24339098  0.75132959  0.50282777
   0.49301150  0.50213723  0.00086913
   0.99334618  0.50035541  0.99941268
   0.49298711  0.99712839  0.00101498
   0.99054896  0.00016972  0.99811704
   0.45519003  0.01153764  0.17815250
   0.53098179  0.94950873  0.83217080
   0.02711297  0.52386166  0.82674357
   0.95927946  0.49296069  0.17835881
   0.52957913  0.48919158  0.17847143
   0.46962790  0.55309616  0.83076313
   0.24197081  0.79257301  0.67581575
   0.03050420  0.00839825  0.17851753
   0.25006252  0.28658186  0.32260922
   0.74334684  0.78405892  0.32167891
   0.74251712  0.71785289  0.67282125
   0.73521884  0.21015365  0.32178496
   0.77727226  0.28043879  0.66929003
   0.24421092  0.71693377  0.32250821
   0.95009633  0.98555145  0.82685592
   0.98898619  0.25020809 -0.00237206
   0.49032327  0.24834371  0.50203721
   0.24158809  0.00585333  0.98264236
   0.24281960  0.50006846  0.01928252
   0.74250641 -0.00121069  0.02200124
   0.74344222  0.49235212  0.98511495
   0.46779765  0.24442058  0.74285601
   0.99414757  0.75033076  0.01242300
   0.49264481  0.74922740  0.49354419
   0.49250245  0.24970197  0.99229006
   0.24292074  0.00197242  0.48655671
   0.24653214  0.50049848  0.51851075
   0.73920423  0.99853664  0.51520936
   0.74191047  0.49898226  0.48009016
   0.99129834  0.25004788  0.47979633
   0.99319201  0.74930533  0.49415694
   0.49235668  0.74968232  0.02152780
   0.15034176  0.23802717  0.67879452
Direct configuration=    10
   0.23780721  0.27032183  0.85707820
   0.00273922  0.50175022  0.36152353
   0.98817501  0.49458355  0.64046419
   0.50656089  0.49230832  0.64413456
   0.48410191  0.49861420  0.36259170
   0.98324031  0.99923223  0.36176367
   0.98957662  0.00088617  0.64096939
   0.74408671  0.73799208  0.13884943
   0.50109184  0.00174509  0.36272090
   0.74294048  0.25720677  0.13688390
   0.72471485  0.22725218  0.85433591
   0.24209327  0.76196348  0.13921136
   0.24815338  0.75292690  0.86108146
   0.24374722  0.24202998  0.13741529
   0.48554990 -0.00281056  0.64380922
   0.74325984  0.74299270  0.86028445
   0.23821597  0.25154238  0.49794488
   0.74327330  0.24938591  0.49844869
   0.74231761  0.74785907  0.50045932
   0.24339098  0.75132959  0.50282777
   0.49301150  0.50213723  0.00086913
   0.99334618  0.50035541  0.99941268
   0.49298711  0.99712839  0.00101498
   0.99054896  0.00016972  0.99811704
   0.45519003  0.01153764  0.17815250
   0.53098179  0.94950873  0.83217080
   0.02711297  0.52386166  0.82674357
   0.95927946  0.49296069  0.17835881
   0.52957913  0.48919158  0.17847143
   0.46962790  0.55309616  0.83076313
   0.24197081  0.79257301  0.67581575
   0.03050420  0.00839825  0.17851753
   0.25006252  0.28658186  0.32260922
   0.74334684  0.78405892  0.32167891
   0.74251712  0.71785289  0.67282125
   0.73521884  0.21015365  0.32178496
   0.77727226  0.28043879  0.66929003
   0.24421092  0.71693377  0.32250821
   0.95009633  0.98555145  0.82685592
   0.98898619  0.25020809 -0.00237206
   0.49032327  0.24834371  0.50203721
   0.24158809  0.00585333  0.98264236
   0.24281960  0.50006846  0.01928252
   0.74250641 -0.00121069  0.02200124
   0.74344222  0.49235212  0.98511495
   0.46779765  0.24442058  0.74285601
   0.99414757  0.75033076  0.01242300
   0.49264481  0.74922740  0.49354419
   0.49250245  0.24970197  0.99229006
   0.24292074  0.00197242  0.48655671
   0.24653214  0.50049848  0.51851075
   0.73920423  0.99853664  0.51520936
   0.74191047  0.49898226  0.48009016
   0.99129834  0.25004788  0.47979633
   0.99319201  0.74930533  0.49415694
   0.49235668  0.74968232  0.02152780
   0.15034176  0.23802717  0.67879452
