   4   4   1   0
  0.1156046E+02  0.3577431E-09  0.3577431E-09  0.3613205E-09  0.5000000E-15
   1.0000000000000000E-004
  CAR 
 unknown system                          
     24.51349952    -66.98106789  301      7.16699258      1.00000000
    -66.981  0.0000E+00  0.0000E+00
    -66.676  0.0000E+00  0.0000E+00
    -66.371  0.0000E+00  0.0000E+00
    -66.066  0.0000E+00  0.0000E+00
    -65.761  0.0000E+00  0.0000E+00
    -65.456  0.0000E+00  0.0000E+00
    -65.151  0.0000E+00  0.0000E+00
    -64.846  0.0000E+00  0.0000E+00
    -64.541 -0.8088E-31 -0.2467E-31
    -64.236 -0.2113E-20 -0.6444E-21
    -63.931 -0.5125E-12 -0.1563E-12
    -63.626 -0.1196E-05 -0.3646E-06
    -63.321 -0.2502E-01 -0.7632E-02
    -63.016 -0.2471E+01 -0.7612E+00
    -62.711  0.5571E+02  0.1623E+02
    -62.406  0.2682E+02  0.2441E+02
    -62.101 -0.1344E+01  0.2400E+02
    -61.796 -0.2083E-02  0.2400E+02
    -61.491 -0.2125E-07  0.2400E+02
    -61.186 -0.4525E-15  0.2400E+02
    -60.881  0.0000E+00  0.2400E+02
    -60.576  0.0000E+00  0.2400E+02
    -60.271  0.0000E+00  0.2400E+02
    -59.966  0.0000E+00  0.2400E+02
    -59.662  0.0000E+00  0.2400E+02
    -59.357  0.0000E+00  0.2400E+02
    -59.052  0.0000E+00  0.2400E+02
    -58.747  0.0000E+00  0.2400E+02
    -58.442  0.0000E+00  0.2400E+02
    -58.137  0.0000E+00  0.2400E+02
    -57.832  0.0000E+00  0.2400E+02
    -57.527  0.0000E+00  0.2400E+02
    -57.222  0.0000E+00  0.2400E+02
    -56.917  0.0000E+00  0.2400E+02
    -56.612  0.0000E+00  0.2400E+02
    -56.307  0.0000E+00  0.2400E+02
    -56.002  0.0000E+00  0.2400E+02
    -55.697  0.0000E+00  0.2400E+02
    -55.392  0.0000E+00  0.2400E+02
    -55.087  0.0000E+00  0.2400E+02
    -54.782  0.0000E+00  0.2400E+02
    -54.477  0.0000E+00  0.2400E+02
    -54.172  0.0000E+00  0.2400E+02
    -53.867  0.0000E+00  0.2400E+02
    -53.562  0.0000E+00  0.2400E+02
    -53.257  0.0000E+00  0.2400E+02
    -52.952  0.0000E+00  0.2400E+02
    -52.647  0.0000E+00  0.2400E+02
    -52.342  0.0000E+00  0.2400E+02
    -52.037  0.0000E+00  0.2400E+02
    -51.732  0.0000E+00  0.2400E+02
    -51.427  0.0000E+00  0.2400E+02
    -51.122  0.0000E+00  0.2400E+02
    -50.817  0.0000E+00  0.2400E+02
    -50.512  0.0000E+00  0.2400E+02
    -50.207  0.0000E+00  0.2400E+02
    -49.902  0.0000E+00  0.2400E+02
    -49.597  0.0000E+00  0.2400E+02
    -49.292  0.0000E+00  0.2400E+02
    -48.987  0.0000E+00  0.2400E+02
    -48.682  0.0000E+00  0.2400E+02
    -48.377  0.0000E+00  0.2400E+02
    -48.072  0.0000E+00  0.2400E+02
    -47.767  0.0000E+00  0.2400E+02
    -47.462  0.0000E+00  0.2400E+02
    -47.157  0.0000E+00  0.2400E+02
    -46.852  0.0000E+00  0.2400E+02
    -46.547  0.0000E+00  0.2400E+02
    -46.242  0.0000E+00  0.2400E+02
    -45.937  0.0000E+00  0.2400E+02
    -45.632  0.0000E+00  0.2400E+02
    -45.327  0.0000E+00  0.2400E+02
    -45.022  0.0000E+00  0.2400E+02
    -44.717  0.0000E+00  0.2400E+02
    -44.412  0.0000E+00  0.2400E+02
    -44.107  0.0000E+00  0.2400E+02
    -43.802  0.0000E+00  0.2400E+02
    -43.497  0.0000E+00  0.2400E+02
    -43.192  0.0000E+00  0.2400E+02
    -42.887  0.0000E+00  0.2400E+02
    -42.583  0.0000E+00  0.2400E+02
    -42.278  0.0000E+00  0.2400E+02
    -41.973  0.0000E+00  0.2400E+02
    -41.668  0.0000E+00  0.2400E+02
    -41.363  0.0000E+00  0.2400E+02
    -41.058  0.0000E+00  0.2400E+02
    -40.753  0.0000E+00  0.2400E+02
    -40.448  0.0000E+00  0.2400E+02
    -40.143  0.0000E+00  0.2400E+02
    -39.838  0.0000E+00  0.2400E+02
    -39.533  0.0000E+00  0.2400E+02
    -39.228  0.0000E+00  0.2400E+02
    -38.923  0.0000E+00  0.2400E+02
    -38.618  0.0000E+00  0.2400E+02
    -38.313  0.0000E+00  0.2400E+02
    -38.008  0.0000E+00  0.2400E+02
    -37.703  0.0000E+00  0.2400E+02
    -37.398  0.0000E+00  0.2400E+02
    -37.093  0.0000E+00  0.2400E+02
    -36.788  0.0000E+00  0.2400E+02
    -36.483  0.0000E+00  0.2400E+02
    -36.178  0.0000E+00  0.2400E+02
    -35.873  0.0000E+00  0.2400E+02
    -35.568  0.0000E+00  0.2400E+02
    -35.263  0.0000E+00  0.2400E+02
    -34.958  0.0000E+00  0.2400E+02
    -34.653  0.0000E+00  0.2400E+02
    -34.348  0.0000E+00  0.2400E+02
    -34.043  0.0000E+00  0.2400E+02
    -33.738  0.0000E+00  0.2400E+02
    -33.433  0.0000E+00  0.2400E+02
    -33.128  0.0000E+00  0.2400E+02
    -32.823  0.0000E+00  0.2400E+02
    -32.518  0.0000E+00  0.2400E+02
    -32.213  0.0000E+00  0.2400E+02
    -31.908  0.0000E+00  0.2400E+02
    -31.603  0.0000E+00  0.2400E+02
    -31.298  0.0000E+00  0.2400E+02
    -30.993  0.0000E+00  0.2400E+02
    -30.688  0.0000E+00  0.2400E+02
    -30.383  0.0000E+00  0.2400E+02
    -30.078  0.0000E+00  0.2400E+02
    -29.773  0.0000E+00  0.2400E+02
    -29.468  0.0000E+00  0.2400E+02
    -29.163  0.0000E+00  0.2400E+02
    -28.858  0.0000E+00  0.2400E+02
    -28.553  0.0000E+00  0.2400E+02
    -28.248  0.0000E+00  0.2400E+02
    -27.943  0.0000E+00  0.2400E+02
    -27.638  0.0000E+00  0.2400E+02
    -27.333  0.0000E+00  0.2400E+02
    -27.028  0.0000E+00  0.2400E+02
    -26.723  0.0000E+00  0.2400E+02
    -26.418  0.0000E+00  0.2400E+02
    -26.113  0.0000E+00  0.2400E+02
    -25.809  0.0000E+00  0.2400E+02
    -25.504  0.0000E+00  0.2400E+02
    -25.199  0.0000E+00  0.2400E+02
    -24.894  0.0000E+00  0.2400E+02
    -24.589  0.0000E+00  0.2400E+02
    -24.284  0.0000E+00  0.2400E+02
    -23.979  0.0000E+00  0.2400E+02
    -23.674  0.0000E+00  0.2400E+02
    -23.369  0.0000E+00  0.2400E+02
    -23.064  0.0000E+00  0.2400E+02
    -22.759  0.0000E+00  0.2400E+02
    -22.454  0.0000E+00  0.2400E+02
    -22.149  0.0000E+00  0.2400E+02
    -21.844  0.0000E+00  0.2400E+02
    -21.539  0.0000E+00  0.2400E+02
    -21.234  0.0000E+00  0.2400E+02
    -20.929  0.0000E+00  0.2400E+02
    -20.624  0.0000E+00  0.2400E+02
    -20.319  0.0000E+00  0.2400E+02
    -20.014  0.0000E+00  0.2400E+02
    -19.709  0.0000E+00  0.2400E+02
    -19.404  0.0000E+00  0.2400E+02
    -19.099  0.0000E+00  0.2400E+02
    -18.794  0.0000E+00  0.2400E+02
    -18.489  0.0000E+00  0.2400E+02
    -18.184  0.0000E+00  0.2400E+02
    -17.879  0.0000E+00  0.2400E+02
    -17.574  0.0000E+00  0.2400E+02
    -17.269  0.0000E+00  0.2400E+02
    -16.964  0.0000E+00  0.2400E+02
    -16.659  0.0000E+00  0.2400E+02
    -16.354  0.0000E+00  0.2400E+02
    -16.049  0.0000E+00  0.2400E+02
    -15.744  0.0000E+00  0.2400E+02
    -15.439  0.0000E+00  0.2400E+02
    -15.134  0.0000E+00  0.2400E+02
    -14.829  0.0000E+00  0.2400E+02
    -14.524  0.0000E+00  0.2400E+02
    -14.219  0.0000E+00  0.2400E+02
    -13.914  0.0000E+00  0.2400E+02
    -13.609  0.0000E+00  0.2400E+02
    -13.304  0.0000E+00  0.2400E+02
    -12.999  0.0000E+00  0.2400E+02
    -12.694  0.0000E+00  0.2400E+02
    -12.389  0.0000E+00  0.2400E+02
    -12.084  0.0000E+00  0.2400E+02
    -11.779  0.0000E+00  0.2400E+02
    -11.474  0.0000E+00  0.2400E+02
    -11.169  0.0000E+00  0.2400E+02
    -10.864  0.0000E+00  0.2400E+02
    -10.559  0.0000E+00  0.2400E+02
    -10.254  0.0000E+00  0.2400E+02
     -9.949  0.0000E+00  0.2400E+02
     -9.644  0.0000E+00  0.2400E+02
     -9.339  0.0000E+00  0.2400E+02
     -9.035  0.0000E+00  0.2400E+02
     -8.730  0.0000E+00  0.2400E+02
     -8.425  0.0000E+00  0.2400E+02
     -8.120  0.0000E+00  0.2400E+02
     -7.815  0.0000E+00  0.2400E+02
     -7.510  0.0000E+00  0.2400E+02
     -7.205  0.0000E+00  0.2400E+02
     -6.900  0.0000E+00  0.2400E+02
     -6.595  0.0000E+00  0.2400E+02
     -6.290  0.0000E+00  0.2400E+02
     -5.985  0.0000E+00  0.2400E+02
     -5.680  0.0000E+00  0.2400E+02
     -5.375  0.0000E+00  0.2400E+02
     -5.070  0.0000E+00  0.2400E+02
     -4.765  0.0000E+00  0.2400E+02
     -4.460  0.0000E+00  0.2400E+02
     -4.155 -0.1137E-35  0.2400E+02
     -3.850 -0.4705E-25  0.2400E+02
     -3.545 -0.1773E-16  0.2400E+02
     -3.240 -0.6343E-10  0.2400E+02
     -2.935 -0.2336E-05  0.2400E+02
     -2.630 -0.9412E-03  0.2400E+02
     -2.325  0.1479E-01  0.2400E+02
     -2.020  0.1260E+00  0.2404E+02
     -1.715  0.2068E+00  0.2411E+02
     -1.410  0.2927E+00  0.2420E+02
     -1.105  0.3119E+00  0.2429E+02
     -0.800  0.4119E+00  0.2442E+02
     -0.495  0.4005E+00  0.2454E+02
     -0.190  0.5232E+00  0.2470E+02
      0.115  0.5383E+00  0.2486E+02
      0.420  0.6256E+00  0.2505E+02
      0.725  0.6887E+00  0.2526E+02
      1.030  0.8434E+00  0.2552E+02
      1.335  0.8970E+00  0.2579E+02
      1.640  0.1301E+01  0.2619E+02
      1.945  0.1836E+01  0.2675E+02
      2.250  0.3540E+01  0.2783E+02
      2.555  0.4819E+01  0.2930E+02
      2.860  0.6976E+01  0.3143E+02
      3.165  0.8777E+01  0.3410E+02
      3.470  0.8053E+01  0.3656E+02
      3.775  0.1030E+02  0.3970E+02
      4.080  0.1358E+02  0.4384E+02
      4.385  0.1526E+02  0.4849E+02
      4.690  0.1090E+02  0.5182E+02
      4.995  0.1341E+02  0.5591E+02
      5.300  0.1280E+02  0.5981E+02
      5.605  0.1716E+02  0.6504E+02
      5.910  0.4139E+01  0.6631E+02
      6.215  0.1456E+01  0.6675E+02
      6.520  0.1437E+01  0.6719E+02
      6.825  0.1158E+01  0.6754E+02
      7.130  0.1404E+01  0.6797E+02
      7.435  0.9694E+00  0.6827E+02
      7.739  0.1301E+01  0.6866E+02
      8.044  0.1113E+01  0.6900E+02
      8.349  0.8280E+00  0.6925E+02
      8.654  0.1264E+01  0.6964E+02
      8.959  0.9907E+00  0.6994E+02
      9.264  0.8254E+00  0.7019E+02
      9.569  0.9637E+00  0.7049E+02
      9.874  0.8891E+00  0.7076E+02
     10.179  0.6704E+00  0.7096E+02
     10.484  0.7265E+00  0.7118E+02
     10.789  0.6518E+00  0.7138E+02
     11.094  0.6075E+00  0.7157E+02
     11.399  0.9840E+00  0.7187E+02
     11.704  0.1256E+01  0.7225E+02
     12.009  0.1092E+01  0.7259E+02
     12.314  0.1133E+01  0.7293E+02
     12.619  0.1211E+01  0.7330E+02
     12.924  0.9884E+00  0.7360E+02
     13.229  0.1006E+01  0.7391E+02
     13.534  0.1041E+01  0.7423E+02
     13.839  0.9278E+00  0.7451E+02
     14.144  0.9587E+00  0.7480E+02
     14.449  0.8242E+00  0.7505E+02
     14.754  0.1079E+01  0.7538E+02
     15.059  0.1306E+01  0.7578E+02
     15.364  0.1458E+01  0.7622E+02
     15.669  0.1216E+01  0.7660E+02
     15.974  0.1205E+01  0.7696E+02
     16.279  0.1716E+01  0.7749E+02
     16.584  0.1219E+01  0.7786E+02
     16.889  0.1168E+01  0.7821E+02
     17.194  0.1319E+01  0.7862E+02
     17.499  0.1412E+01  0.7905E+02
     17.804  0.1128E+01  0.7939E+02
     18.109  0.7401E+00  0.7962E+02
     18.414  0.5374E+00  0.7978E+02
     18.719  0.3892E+00  0.7990E+02
     19.024  0.2318E+00  0.7997E+02
     19.329  0.4176E-01  0.7998E+02
     19.634  0.5612E-02  0.7998E+02
     19.939  0.4632E-01  0.8000E+02
     20.244  0.7930E-03  0.8000E+02
     20.549  0.3379E-02  0.8000E+02
     20.854 -0.7818E-04  0.8000E+02
     21.159 -0.4487E-05  0.8000E+02
     21.464 -0.3871E-09  0.8000E+02
     21.769 -0.2545E-15  0.8000E+02
     22.074  0.0000E+00  0.8000E+02
     22.379  0.0000E+00  0.8000E+02
     22.684  0.0000E+00  0.8000E+02
     22.989  0.0000E+00  0.8000E+02
     23.294  0.0000E+00  0.8000E+02
     23.599  0.0000E+00  0.8000E+02
     23.904  0.0000E+00  0.8000E+02
     24.209  0.0000E+00  0.8000E+02
     24.513  0.0000E+00  0.8000E+02
     24.51349952    -66.98106789  301      7.16699258      1.00000000
    -66.981  0.0000E+00  0.0000E+00  0.0000E+00  0.0000E+00  0.0000E+00  0.0000E+00  0.0000E+00  0.0000E+00  0.0000E+00
    -66.676  0.0000E+00  0.0000E+00  0.0000E+00  0.0000E+00  0.0000E+00  0.0000E+00  0.0000E+00  0.0000E+00  0.0000E+00
    -66.371  0.0000E+00  0.0000E+00  0.0000E+00  0.0000E+00  0.0000E+00  0.0000E+00  0.0000E+00  0.0000E+00  0.0000E+00
    -66.066  0.0000E+00  0.0000E+00  0.0000E+00  0.0000E+00  0.0000E+00  0.0000E+00  0.0000E+00  0.0000E+00  0.0000E+00
    -65.761  0.0000E+00  0.0000E+00  0.0000E+00  0.0000E+00  0.0000E+00  0.0000E+00  0.0000E+00  0.0000E+00  0.0000E+00
    -65.456  0.0000E+00  0.0000E+00  0.0000E+00  0.0000E+00  0.0000E+00  0.0000E+00  0.0000E+00  0.0000E+00  0.0000E+00
    -65.151  0.0000E+00  0.0000E+00  0.0000E+00  0.0000E+00  0.0000E+00  0.0000E+00  0.0000E+00  0.0000E+00  0.0000E+00
    -64.846  0.0000E+00  0.0000E+00  0.0000E+00  0.0000E+00  0.0000E+00  0.0000E+00  0.0000E+00  0.0000E+00  0.0000E+00
    -64.541 -0.3179E-37 -0.6829E-32 -0.6469E-32 -0.6829E-32 -0.1171E-37 -0.1064E-37 -0.5053E-38 -0.1064E-37 -0.4612E-38
    -64.236 -0.9070E-27 -0.1781E-21 -0.1696E-21 -0.1781E-21 -0.3276E-27 -0.2969E-27 -0.1396E-27 -0.2969E-27 -0.1273E-27
    -63.931 -0.2370E-18 -0.4311E-13 -0.4133E-13 -0.4311E-13 -0.8543E-19 -0.7719E-19 -0.3617E-19 -0.7719E-19 -0.3293E-19
    -63.626 -0.5770E-12 -0.1003E-06 -0.9711E-07 -0.1003E-06 -0.2146E-12 -0.1929E-12 -0.9159E-13 -0.1929E-12 -0.8307E-13
    -63.321 -0.1169E-07 -0.2089E-02 -0.2052E-02 -0.2089E-02 -0.4765E-08 -0.4248E-08 -0.2119E-08 -0.4248E-08 -0.1911E-08
    -63.016 -0.8775E-06 -0.2050E+00 -0.2056E+00 -0.2050E+00 -0.4724E-06 -0.4146E-06 -0.2387E-06 -0.4146E-06 -0.2131E-06
    -62.711  0.2084E-04  0.4629E+01  0.4622E+01  0.4629E+01  0.1059E-04  0.9326E-05  0.5242E-05  0.9326E-05  0.4688E-05
    -62.406  0.7080E-05  0.2226E+01  0.2234E+01  0.2226E+01  0.4697E-05  0.4093E-05  0.2593E-05  0.4093E-05  0.2306E-05
    -62.101 -0.3550E-06 -0.1116E+00 -0.1119E+00 -0.1116E+00 -0.2349E-06 -0.2047E-06 -0.1296E-06 -0.2047E-06 -0.1153E-06
    -61.796 -0.3696E-09 -0.1734E-03 -0.1727E-03 -0.1734E-03 -0.3183E-09 -0.2757E-09 -0.1910E-09 -0.2757E-09 -0.1691E-09
    -61.491 -0.2795E-14 -0.1775E-08 -0.1749E-08 -0.1775E-08 -0.2896E-14 -0.2501E-14 -0.1806E-14 -0.2501E-14 -0.1595E-14
    -61.186 -0.9738E-23 -0.3936E-16 -0.3417E-16 -0.3936E-16 -0.2047E-22 -0.1783E-22 -0.8325E-23 -0.1783E-22 -0.8415E-23
    -60.881  0.0000E+00  0.0000E+00  0.0000E+00  0.0000E+00  0.0000E+00  0.0000E+00  0.0000E+00  0.0000E+00  0.0000E+00
    -60.576  0.0000E+00  0.0000E+00  0.0000E+00  0.0000E+00  0.0000E+00  0.0000E+00  0.0000E+00  0.0000E+00  0.0000E+00
    -60.271  0.0000E+00  0.0000E+00  0.0000E+00  0.0000E+00  0.0000E+00  0.0000E+00  0.0000E+00  0.0000E+00  0.0000E+00
    -59.966  0.0000E+00  0.0000E+00  0.0000E+00  0.0000E+00  0.0000E+00  0.0000E+00  0.0000E+00  0.0000E+00  0.0000E+00
    -59.662  0.0000E+00  0.0000E+00  0.0000E+00  0.0000E+00  0.0000E+00  0.0000E+00  0.0000E+00  0.0000E+00  0.0000E+00
    -59.357  0.0000E+00  0.0000E+00  0.0000E+00  0.0000E+00  0.0000E+00  0.0000E+00  0.0000E+00  0.0000E+00  0.0000E+00
    -59.052  0.0000E+00  0.0000E+00  0.0000E+00  0.0000E+00  0.0000E+00  0.0000E+00  0.0000E+00  0.0000E+00  0.0000E+00
    -58.747  0.0000E+00  0.0000E+00  0.0000E+00  0.0000E+00  0.0000E+00  0.0000E+00  0.0000E+00  0.0000E+00  0.0000E+00
    -58.442  0.0000E+00  0.0000E+00  0.0000E+00  0.0000E+00  0.0000E+00  0.0000E+00  0.0000E+00  0.0000E+00  0.0000E+00
    -58.137  0.0000E+00  0.0000E+00  0.0000E+00  0.0000E+00  0.0000E+00  0.0000E+00  0.0000E+00  0.0000E+00  0.0000E+00
    -57.832  0.0000E+00  0.0000E+00  0.0000E+00  0.0000E+00  0.0000E+00  0.0000E+00  0.0000E+00  0.0000E+00  0.0000E+00
    -57.527  0.0000E+00  0.0000E+00  0.0000E+00  0.0000E+00  0.0000E+00  0.0000E+00  0.0000E+00  0.0000E+00  0.0000E+00
    -57.222  0.0000E+00  0.0000E+00  0.0000E+00  0.0000E+00  0.0000E+00  0.0000E+00  0.0000E+00  0.0000E+00  0.0000E+00
    -56.917  0.0000E+00  0.0000E+00  0.0000E+00  0.0000E+00  0.0000E+00  0.0000E+00  0.0000E+00  0.0000E+00  0.0000E+00
    -56.612  0.0000E+00  0.0000E+00  0.0000E+00  0.0000E+00  0.0000E+00  0.0000E+00  0.0000E+00  0.0000E+00  0.0000E+00
    -56.307  0.0000E+00  0.0000E+00  0.0000E+00  0.0000E+00  0.0000E+00  0.0000E+00  0.0000E+00  0.0000E+00  0.0000E+00
    -56.002  0.0000E+00  0.0000E+00  0.0000E+00  0.0000E+00  0.0000E+00  0.0000E+00  0.0000E+00  0.0000E+00  0.0000E+00
    -55.697  0.0000E+00  0.0000E+00  0.0000E+00  0.0000E+00  0.0000E+00  0.0000E+00  0.0000E+00  0.0000E+00  0.0000E+00
    -55.392  0.0000E+00  0.0000E+00  0.0000E+00  0.0000E+00  0.0000E+00  0.0000E+00  0.0000E+00  0.0000E+00  0.0000E+00
    -55.087  0.0000E+00  0.0000E+00  0.0000E+00  0.0000E+00  0.0000E+00  0.0000E+00  0.0000E+00  0.0000E+00  0.0000E+00
    -54.782  0.0000E+00  0.0000E+00  0.0000E+00  0.0000E+00  0.0000E+00  0.0000E+00  0.0000E+00  0.0000E+00  0.0000E+00
    -54.477  0.0000E+00  0.0000E+00  0.0000E+00  0.0000E+00  0.0000E+00  0.0000E+00  0.0000E+00  0.0000E+00  0.0000E+00
    -54.172  0.0000E+00  0.0000E+00  0.0000E+00  0.0000E+00  0.0000E+00  0.0000E+00  0.0000E+00  0.0000E+00  0.0000E+00
    -53.867  0.0000E+00  0.0000E+00  0.0000E+00  0.0000E+00  0.0000E+00  0.0000E+00  0.0000E+00  0.0000E+00  0.0000E+00
    -53.562  0.0000E+00  0.0000E+00  0.0000E+00  0.0000E+00  0.0000E+00  0.0000E+00  0.0000E+00  0.0000E+00  0.0000E+00
    -53.257  0.0000E+00  0.0000E+00  0.0000E+00  0.0000E+00  0.0000E+00  0.0000E+00  0.0000E+00  0.0000E+00  0.0000E+00
    -52.952  0.0000E+00  0.0000E+00  0.0000E+00  0.0000E+00  0.0000E+00  0.0000E+00  0.0000E+00  0.0000E+00  0.0000E+00
    -52.647  0.0000E+00  0.0000E+00  0.0000E+00  0.0000E+00  0.0000E+00  0.0000E+00  0.0000E+00  0.0000E+00  0.0000E+00
    -52.342  0.0000E+00  0.0000E+00  0.0000E+00  0.0000E+00  0.0000E+00  0.0000E+00  0.0000E+00  0.0000E+00  0.0000E+00
    -52.037  0.0000E+00  0.0000E+00  0.0000E+00  0.0000E+00  0.0000E+00  0.0000E+00  0.0000E+00  0.0000E+00  0.0000E+00
    -51.732  0.0000E+00  0.0000E+00  0.0000E+00  0.0000E+00  0.0000E+00  0.0000E+00  0.0000E+00  0.0000E+00  0.0000E+00
    -51.427  0.0000E+00  0.0000E+00  0.0000E+00  0.0000E+00  0.0000E+00  0.0000E+00  0.0000E+00  0.0000E+00  0.0000E+00
    -51.122  0.0000E+00  0.0000E+00  0.0000E+00  0.0000E+00  0.0000E+00  0.0000E+00  0.0000E+00  0.0000E+00  0.0000E+00
    -50.817  0.0000E+00  0.0000E+00  0.0000E+00  0.0000E+00  0.0000E+00  0.0000E+00  0.0000E+00  0.0000E+00  0.0000E+00
    -50.512  0.0000E+00  0.0000E+00  0.0000E+00  0.0000E+00  0.0000E+00  0.0000E+00  0.0000E+00  0.0000E+00  0.0000E+00
    -50.207  0.0000E+00  0.0000E+00  0.0000E+00  0.0000E+00  0.0000E+00  0.0000E+00  0.0000E+00  0.0000E+00  0.0000E+00
    -49.902  0.0000E+00  0.0000E+00  0.0000E+00  0.0000E+00  0.0000E+00  0.0000E+00  0.0000E+00  0.0000E+00  0.0000E+00
    -49.597  0.0000E+00  0.0000E+00  0.0000E+00  0.0000E+00  0.0000E+00  0.0000E+00  0.0000E+00  0.0000E+00  0.0000E+00
    -49.292  0.0000E+00  0.0000E+00  0.0000E+00  0.0000E+00  0.0000E+00  0.0000E+00  0.0000E+00  0.0000E+00  0.0000E+00
    -48.987  0.0000E+00  0.0000E+00  0.0000E+00  0.0000E+00  0.0000E+00  0.0000E+00  0.0000E+00  0.0000E+00  0.0000E+00
    -48.682  0.0000E+00  0.0000E+00  0.0000E+00  0.0000E+00  0.0000E+00  0.0000E+00  0.0000E+00  0.0000E+00  0.0000E+00
    -48.377  0.0000E+00  0.0000E+00  0.0000E+00  0.0000E+00  0.0000E+00  0.0000E+00  0.0000E+00  0.0000E+00  0.0000E+00
    -48.072  0.0000E+00  0.0000E+00  0.0000E+00  0.0000E+00  0.0000E+00  0.0000E+00  0.0000E+00  0.0000E+00  0.0000E+00
    -47.767  0.0000E+00  0.0000E+00  0.0000E+00  0.0000E+00  0.0000E+00  0.0000E+00  0.0000E+00  0.0000E+00  0.0000E+00
    -47.462  0.0000E+00  0.0000E+00  0.0000E+00  0.0000E+00  0.0000E+00  0.0000E+00  0.0000E+00  0.0000E+00  0.0000E+00
    -47.157  0.0000E+00  0.0000E+00  0.0000E+00  0.0000E+00  0.0000E+00  0.0000E+00  0.0000E+00  0.0000E+00  0.0000E+00
    -46.852  0.0000E+00  0.0000E+00  0.0000E+00  0.0000E+00  0.0000E+00  0.0000E+00  0.0000E+00  0.0000E+00  0.0000E+00
    -46.547  0.0000E+00  0.0000E+00  0.0000E+00  0.0000E+00  0.0000E+00  0.0000E+00  0.0000E+00  0.0000E+00  0.0000E+00
    -46.242  0.0000E+00  0.0000E+00  0.0000E+00  0.0000E+00  0.0000E+00  0.0000E+00  0.0000E+00  0.0000E+00  0.0000E+00
    -45.937  0.0000E+00  0.0000E+00  0.0000E+00  0.0000E+00  0.0000E+00  0.0000E+00  0.0000E+00  0.0000E+00  0.0000E+00
    -45.632  0.0000E+00  0.0000E+00  0.0000E+00  0.0000E+00  0.0000E+00  0.0000E+00  0.0000E+00  0.0000E+00  0.0000E+00
    -45.327  0.0000E+00  0.0000E+00  0.0000E+00  0.0000E+00  0.0000E+00  0.0000E+00  0.0000E+00  0.0000E+00  0.0000E+00
    -45.022  0.0000E+00  0.0000E+00  0.0000E+00  0.0000E+00  0.0000E+00  0.0000E+00  0.0000E+00  0.0000E+00  0.0000E+00
    -44.717  0.0000E+00  0.0000E+00  0.0000E+00  0.0000E+00  0.0000E+00  0.0000E+00  0.0000E+00  0.0000E+00  0.0000E+00
    -44.412  0.0000E+00  0.0000E+00  0.0000E+00  0.0000E+00  0.0000E+00  0.0000E+00  0.0000E+00  0.0000E+00  0.0000E+00
    -44.107  0.0000E+00  0.0000E+00  0.0000E+00  0.0000E+00  0.0000E+00  0.0000E+00  0.0000E+00  0.0000E+00  0.0000E+00
    -43.802  0.0000E+00  0.0000E+00  0.0000E+00  0.0000E+00  0.0000E+00  0.0000E+00  0.0000E+00  0.0000E+00  0.0000E+00
    -43.497  0.0000E+00  0.0000E+00  0.0000E+00  0.0000E+00  0.0000E+00  0.0000E+00  0.0000E+00  0.0000E+00  0.0000E+00
    -43.192  0.0000E+00  0.0000E+00  0.0000E+00  0.0000E+00  0.0000E+00  0.0000E+00  0.0000E+00  0.0000E+00  0.0000E+00
    -42.887  0.0000E+00  0.0000E+00  0.0000E+00  0.0000E+00  0.0000E+00  0.0000E+00  0.0000E+00  0.0000E+00  0.0000E+00
    -42.583  0.0000E+00  0.0000E+00  0.0000E+00  0.0000E+00  0.0000E+00  0.0000E+00  0.0000E+00  0.0000E+00  0.0000E+00
    -42.278  0.0000E+00  0.0000E+00  0.0000E+00  0.0000E+00  0.0000E+00  0.0000E+00  0.0000E+00  0.0000E+00  0.0000E+00
    -41.973  0.0000E+00  0.0000E+00  0.0000E+00  0.0000E+00  0.0000E+00  0.0000E+00  0.0000E+00  0.0000E+00  0.0000E+00
    -41.668  0.0000E+00  0.0000E+00  0.0000E+00  0.0000E+00  0.0000E+00  0.0000E+00  0.0000E+00  0.0000E+00  0.0000E+00
    -41.363  0.0000E+00  0.0000E+00  0.0000E+00  0.0000E+00  0.0000E+00  0.0000E+00  0.0000E+00  0.0000E+00  0.0000E+00
    -41.058  0.0000E+00  0.0000E+00  0.0000E+00  0.0000E+00  0.0000E+00  0.0000E+00  0.0000E+00  0.0000E+00  0.0000E+00
    -40.753  0.0000E+00  0.0000E+00  0.0000E+00  0.0000E+00  0.0000E+00  0.0000E+00  0.0000E+00  0.0000E+00  0.0000E+00
    -40.448  0.0000E+00  0.0000E+00  0.0000E+00  0.0000E+00  0.0000E+00  0.0000E+00  0.0000E+00  0.0000E+00  0.0000E+00
    -40.143  0.0000E+00  0.0000E+00  0.0000E+00  0.0000E+00  0.0000E+00  0.0000E+00  0.0000E+00  0.0000E+00  0.0000E+00
    -39.838  0.0000E+00  0.0000E+00  0.0000E+00  0.0000E+00  0.0000E+00  0.0000E+00  0.0000E+00  0.0000E+00  0.0000E+00
    -39.533  0.0000E+00  0.0000E+00  0.0000E+00  0.0000E+00  0.0000E+00  0.0000E+00  0.0000E+00  0.0000E+00  0.0000E+00
    -39.228  0.0000E+00  0.0000E+00  0.0000E+00  0.0000E+00  0.0000E+00  0.0000E+00  0.0000E+00  0.0000E+00  0.0000E+00
    -38.923  0.0000E+00  0.0000E+00  0.0000E+00  0.0000E+00  0.0000E+00  0.0000E+00  0.0000E+00  0.0000E+00  0.0000E+00
    -38.618  0.0000E+00  0.0000E+00  0.0000E+00  0.0000E+00  0.0000E+00  0.0000E+00  0.0000E+00  0.0000E+00  0.0000E+00
    -38.313  0.0000E+00  0.0000E+00  0.0000E+00  0.0000E+00  0.0000E+00  0.0000E+00  0.0000E+00  0.0000E+00  0.0000E+00
    -38.008  0.0000E+00  0.0000E+00  0.0000E+00  0.0000E+00  0.0000E+00  0.0000E+00  0.0000E+00  0.0000E+00  0.0000E+00
    -37.703  0.0000E+00  0.0000E+00  0.0000E+00  0.0000E+00  0.0000E+00  0.0000E+00  0.0000E+00  0.0000E+00  0.0000E+00
    -37.398  0.0000E+00  0.0000E+00  0.0000E+00  0.0000E+00  0.0000E+00  0.0000E+00  0.0000E+00  0.0000E+00  0.0000E+00
    -37.093  0.0000E+00  0.0000E+00  0.0000E+00  0.0000E+00  0.0000E+00  0.0000E+00  0.0000E+00  0.0000E+00  0.0000E+00
    -36.788  0.0000E+00  0.0000E+00  0.0000E+00  0.0000E+00  0.0000E+00  0.0000E+00  0.0000E+00  0.0000E+00  0.0000E+00
    -36.483  0.0000E+00  0.0000E+00  0.0000E+00  0.0000E+00  0.0000E+00  0.0000E+00  0.0000E+00  0.0000E+00  0.0000E+00
    -36.178  0.0000E+00  0.0000E+00  0.0000E+00  0.0000E+00  0.0000E+00  0.0000E+00  0.0000E+00  0.0000E+00  0.0000E+00
    -35.873  0.0000E+00  0.0000E+00  0.0000E+00  0.0000E+00  0.0000E+00  0.0000E+00  0.0000E+00  0.0000E+00  0.0000E+00
    -35.568  0.0000E+00  0.0000E+00  0.0000E+00  0.0000E+00  0.0000E+00  0.0000E+00  0.0000E+00  0.0000E+00  0.0000E+00
    -35.263  0.0000E+00  0.0000E+00  0.0000E+00  0.0000E+00  0.0000E+00  0.0000E+00  0.0000E+00  0.0000E+00  0.0000E+00
    -34.958  0.0000E+00  0.0000E+00  0.0000E+00  0.0000E+00  0.0000E+00  0.0000E+00  0.0000E+00  0.0000E+00  0.0000E+00
    -34.653  0.0000E+00  0.0000E+00  0.0000E+00  0.0000E+00  0.0000E+00  0.0000E+00  0.0000E+00  0.0000E+00  0.0000E+00
    -34.348  0.0000E+00  0.0000E+00  0.0000E+00  0.0000E+00  0.0000E+00  0.0000E+00  0.0000E+00  0.0000E+00  0.0000E+00
    -34.043  0.0000E+00  0.0000E+00  0.0000E+00  0.0000E+00  0.0000E+00  0.0000E+00  0.0000E+00  0.0000E+00  0.0000E+00
    -33.738  0.0000E+00  0.0000E+00  0.0000E+00  0.0000E+00  0.0000E+00  0.0000E+00  0.0000E+00  0.0000E+00  0.0000E+00
    -33.433  0.0000E+00  0.0000E+00  0.0000E+00  0.0000E+00  0.0000E+00  0.0000E+00  0.0000E+00  0.0000E+00  0.0000E+00
    -33.128  0.0000E+00  0.0000E+00  0.0000E+00  0.0000E+00  0.0000E+00  0.0000E+00  0.0000E+00  0.0000E+00  0.0000E+00
    -32.823  0.0000E+00  0.0000E+00  0.0000E+00  0.0000E+00  0.0000E+00  0.0000E+00  0.0000E+00  0.0000E+00  0.0000E+00
    -32.518  0.0000E+00  0.0000E+00  0.0000E+00  0.0000E+00  0.0000E+00  0.0000E+00  0.0000E+00  0.0000E+00  0.0000E+00
    -32.213  0.0000E+00  0.0000E+00  0.0000E+00  0.0000E+00  0.0000E+00  0.0000E+00  0.0000E+00  0.0000E+00  0.0000E+00
    -31.908  0.0000E+00  0.0000E+00  0.0000E+00  0.0000E+00  0.0000E+00  0.0000E+00  0.0000E+00  0.0000E+00  0.0000E+00
    -31.603  0.0000E+00  0.0000E+00  0.0000E+00  0.0000E+00  0.0000E+00  0.0000E+00  0.0000E+00  0.0000E+00  0.0000E+00
    -31.298  0.0000E+00  0.0000E+00  0.0000E+00  0.0000E+00  0.0000E+00  0.0000E+00  0.0000E+00  0.0000E+00  0.0000E+00
    -30.993  0.0000E+00  0.0000E+00  0.0000E+00  0.0000E+00  0.0000E+00  0.0000E+00  0.0000E+00  0.0000E+00  0.0000E+00
    -30.688  0.0000E+00  0.0000E+00  0.0000E+00  0.0000E+00  0.0000E+00  0.0000E+00  0.0000E+00  0.0000E+00  0.0000E+00
    -30.383  0.0000E+00  0.0000E+00  0.0000E+00  0.0000E+00  0.0000E+00  0.0000E+00  0.0000E+00  0.0000E+00  0.0000E+00
    -30.078  0.0000E+00  0.0000E+00  0.0000E+00  0.0000E+00  0.0000E+00  0.0000E+00  0.0000E+00  0.0000E+00  0.0000E+00
    -29.773  0.0000E+00  0.0000E+00  0.0000E+00  0.0000E+00  0.0000E+00  0.0000E+00  0.0000E+00  0.0000E+00  0.0000E+00
    -29.468  0.0000E+00  0.0000E+00  0.0000E+00  0.0000E+00  0.0000E+00  0.0000E+00  0.0000E+00  0.0000E+00  0.0000E+00
    -29.163  0.0000E+00  0.0000E+00  0.0000E+00  0.0000E+00  0.0000E+00  0.0000E+00  0.0000E+00  0.0000E+00  0.0000E+00
    -28.858  0.0000E+00  0.0000E+00  0.0000E+00  0.0000E+00  0.0000E+00  0.0000E+00  0.0000E+00  0.0000E+00  0.0000E+00
    -28.553  0.0000E+00  0.0000E+00  0.0000E+00  0.0000E+00  0.0000E+00  0.0000E+00  0.0000E+00  0.0000E+00  0.0000E+00
    -28.248  0.0000E+00  0.0000E+00  0.0000E+00  0.0000E+00  0.0000E+00  0.0000E+00  0.0000E+00  0.0000E+00  0.0000E+00
    -27.943  0.0000E+00  0.0000E+00  0.0000E+00  0.0000E+00  0.0000E+00  0.0000E+00  0.0000E+00  0.0000E+00  0.0000E+00
    -27.638  0.0000E+00  0.0000E+00  0.0000E+00  0.0000E+00  0.0000E+00  0.0000E+00  0.0000E+00  0.0000E+00  0.0000E+00
    -27.333  0.0000E+00  0.0000E+00  0.0000E+00  0.0000E+00  0.0000E+00  0.0000E+00  0.0000E+00  0.0000E+00  0.0000E+00
    -27.028  0.0000E+00  0.0000E+00  0.0000E+00  0.0000E+00  0.0000E+00  0.0000E+00  0.0000E+00  0.0000E+00  0.0000E+00
    -26.723  0.0000E+00  0.0000E+00  0.0000E+00  0.0000E+00  0.0000E+00  0.0000E+00  0.0000E+00  0.0000E+00  0.0000E+00
    -26.418  0.0000E+00  0.0000E+00  0.0000E+00  0.0000E+00  0.0000E+00  0.0000E+00  0.0000E+00  0.0000E+00  0.0000E+00
    -26.113  0.0000E+00  0.0000E+00  0.0000E+00  0.0000E+00  0.0000E+00  0.0000E+00  0.0000E+00  0.0000E+00  0.0000E+00
    -25.809  0.0000E+00  0.0000E+00  0.0000E+00  0.0000E+00  0.0000E+00  0.0000E+00  0.0000E+00  0.0000E+00  0.0000E+00
    -25.504  0.0000E+00  0.0000E+00  0.0000E+00  0.0000E+00  0.0000E+00  0.0000E+00  0.0000E+00  0.0000E+00  0.0000E+00
    -25.199  0.0000E+00  0.0000E+00  0.0000E+00  0.0000E+00  0.0000E+00  0.0000E+00  0.0000E+00  0.0000E+00  0.0000E+00
    -24.894  0.0000E+00  0.0000E+00  0.0000E+00  0.0000E+00  0.0000E+00  0.0000E+00  0.0000E+00  0.0000E+00  0.0000E+00
    -24.589  0.0000E+00  0.0000E+00  0.0000E+00  0.0000E+00  0.0000E+00  0.0000E+00  0.0000E+00  0.0000E+00  0.0000E+00
    -24.284  0.0000E+00  0.0000E+00  0.0000E+00  0.0000E+00  0.0000E+00  0.0000E+00  0.0000E+00  0.0000E+00  0.0000E+00
    -23.979  0.0000E+00  0.0000E+00  0.0000E+00  0.0000E+00  0.0000E+00  0.0000E+00  0.0000E+00  0.0000E+00  0.0000E+00
    -23.674  0.0000E+00  0.0000E+00  0.0000E+00  0.0000E+00  0.0000E+00  0.0000E+00  0.0000E+00  0.0000E+00  0.0000E+00
    -23.369  0.0000E+00  0.0000E+00  0.0000E+00  0.0000E+00  0.0000E+00  0.0000E+00  0.0000E+00  0.0000E+00  0.0000E+00
    -23.064  0.0000E+00  0.0000E+00  0.0000E+00  0.0000E+00  0.0000E+00  0.0000E+00  0.0000E+00  0.0000E+00  0.0000E+00
    -22.759  0.0000E+00  0.0000E+00  0.0000E+00  0.0000E+00  0.0000E+00  0.0000E+00  0.0000E+00  0.0000E+00  0.0000E+00
    -22.454  0.0000E+00  0.0000E+00  0.0000E+00  0.0000E+00  0.0000E+00  0.0000E+00  0.0000E+00  0.0000E+00  0.0000E+00
    -22.149  0.0000E+00  0.0000E+00  0.0000E+00  0.0000E+00  0.0000E+00  0.0000E+00  0.0000E+00  0.0000E+00  0.0000E+00
    -21.844  0.0000E+00  0.0000E+00  0.0000E+00  0.0000E+00  0.0000E+00  0.0000E+00  0.0000E+00  0.0000E+00  0.0000E+00
    -21.539  0.0000E+00  0.0000E+00  0.0000E+00  0.0000E+00  0.0000E+00  0.0000E+00  0.0000E+00  0.0000E+00  0.0000E+00
    -21.234  0.0000E+00  0.0000E+00  0.0000E+00  0.0000E+00  0.0000E+00  0.0000E+00  0.0000E+00  0.0000E+00  0.0000E+00
    -20.929  0.0000E+00  0.0000E+00  0.0000E+00  0.0000E+00  0.0000E+00  0.0000E+00  0.0000E+00  0.0000E+00  0.0000E+00
    -20.624  0.0000E+00  0.0000E+00  0.0000E+00  0.0000E+00  0.0000E+00  0.0000E+00  0.0000E+00  0.0000E+00  0.0000E+00
    -20.319  0.0000E+00  0.0000E+00  0.0000E+00  0.0000E+00  0.0000E+00  0.0000E+00  0.0000E+00  0.0000E+00  0.0000E+00
    -20.014  0.0000E+00  0.0000E+00  0.0000E+00  0.0000E+00  0.0000E+00  0.0000E+00  0.0000E+00  0.0000E+00  0.0000E+00
    -19.709  0.0000E+00  0.0000E+00  0.0000E+00  0.0000E+00  0.0000E+00  0.0000E+00  0.0000E+00  0.0000E+00  0.0000E+00
    -19.404  0.0000E+00  0.0000E+00  0.0000E+00  0.0000E+00  0.0000E+00  0.0000E+00  0.0000E+00  0.0000E+00  0.0000E+00