    4    4    1    1
  0.1156046E+02  0.3577431E-09  0.3577431E-09  0.3613205E-09  0.5000000E-15
   1.0000000000000000E-004
  CAR 
 unknown system                          
     68    196     40

  0.1262379E-14  0.1262379E-14  0.1262379E-14  0.5787037E-03
    1      -62.815739   1.000000
    2      -62.815739   1.000000
    3      -62.814997   1.000000
    4      -62.752214   1.000000
    5      -62.752214   1.000000
    6      -62.749454   1.000000
    7      -62.749454   1.000000
    8      -62.748430   1.000000
    9      -62.748430   1.000000
   10      -62.706866   1.000000
   11      -62.706468   1.000000
   12      -62.706468   1.000000
   13       -2.387237   1.000000
   14        2.127208   1.000000
   15        2.139857   1.000000
   16        2.139857   1.000000
   17        2.612402   1.000000
   18        2.612402   1.000000
   19        2.617369   1.000000
   20        4.033313   1.000000
   21        4.083454   1.000000
   22        4.083454   1.000000
   23        4.898065   1.000000
   24        4.948524   1.000000
   25        5.496244   1.000000
   26        5.496244   1.000000
   27        5.499004   1.000000
   28        5.650491   1.000000
   29        5.650491   1.000000
   30        5.663569   1.000000
   31        5.663569   1.000000
   32        5.684030   1.000000
   33        5.684030   1.000000
   34        8.463299  -0.000000
   35        8.679118  -0.000000
   36        8.679118  -0.000000
   37       14.250407   0.000000
   38       14.514089   0.000000
   39       14.514089   0.000000
   40       20.354656   0.000000

  0.8333333E-01  0.1262379E-14  0.1262379E-14  0.2314815E-02
    1      -62.814646   1.000000
    2      -62.814614   1.000000
    3      -62.814576   1.000000
    4      -62.752422   1.000000
    5      -62.751683   1.000000
    6      -62.750575   1.000000
    7      -62.749850   1.000000
    8      -62.749207   1.000000
    9      -62.749020   1.000000
   10      -62.707826   1.000000
   11      -62.707486   1.000000
   12      -62.706704   1.000000
   13       -2.300779   1.000000
   14        2.139559   1.000000
   15        2.168486   1.000000
   16        2.180774   1.000000
   17        2.635945   1.000000
   18        2.636385   1.000000
   19        2.642105   1.000000
   20        4.055006   1.000000
   21        4.057049   1.000000
   22        4.103842   1.000000
   23        4.894911   1.000000
   24        4.938308   1.000000
   25        5.465740   1.000000
   26        5.468058   1.000000
   27        5.485819   1.000000
   28        5.497497   1.000000
   29        5.525351   1.000000
   30        5.614096   1.000000
   31        5.645911   1.000000
   32        5.650771   1.000000
   33        5.662968   1.000000
   34        8.160311  -0.000000
   35        8.705757  -0.000000
   36        8.914316  -0.000000
   37       14.280479   0.000000
   38       14.544423   0.000000
   39       15.202035   0.000000
   40       19.813616   0.000000

  0.1666667E+00  0.1262379E-14  0.1262379E-14  0.2314815E-02
    1      -62.811900   1.000000
    2      -62.811266   1.000000
    3      -62.810182   1.000000
    4      -62.754151   1.000000
    5      -62.753257   1.000000
    6      -62.752585   1.000000
    7      -62.749714   1.000000
    8      -62.749307   1.000000
    9      -62.747150   1.000000
   10      -62.713158   1.000000
   11      -62.709552   1.000000
   12      -62.708922   1.000000
   13       -2.043360   1.000000
   14        2.121785   1.000000
   15        2.286965   1.000000
   16        2.297647   1.000000
   17        2.705545   1.000000
   18        2.708707   1.000000
   19        2.717004   1.000000
   20        3.979529   1.000000
   21        4.118921   1.000000
   22        4.164273   1.000000
   23        4.840744   1.000000
   24        4.952669   1.000000
   25        5.116516   1.000000
   26        5.153122   1.000000
   27        5.377298   1.000000
   28        5.378721   1.000000
   29        5.455742   1.000000
   30        5.511389   1.000000
   31        5.537721   1.000000
   32        5.651148   1.000000
   33        5.662454   1.000000
   34        7.061309   0.885305
   35        9.317408  -0.000000
   36        9.515540  -0.000000
   37       14.373809   0.000000
   38       14.638331   0.000000
   39       16.821203   0.000000
   40       18.581888   0.000000

  0.2500000E+00  0.1262379E-14  0.1262379E-14  0.2314815E-02
    1      -62.806284   1.000000
    2      -62.806255   1.000000
    3      -62.801519   1.000000
    4      -62.759400   1.000000
    5      -62.758663   1.000000
    6      -62.752067   1.000000
    7      -62.749496   1.000000
    8      -62.745980   1.000000
    9      -62.743662   1.000000
   10      -62.721947   1.000000
   11      -62.712410   1.000000
   12      -62.712243   1.000000
   13       -1.621340   1.000000
   14        2.027611   1.000000
   15        2.463809   1.000000
   16        2.472554   1.000000
   17        2.817116   1.000000
   18        2.830910   1.000000
   19        2.843149   1.000000
   20        3.857408   1.000000
   21        4.223654   1.000000
   22        4.263396   1.000000
   23        4.673787   1.000000
   24        4.714181   1.000000
   25        4.738783   1.000000
   26        4.996095   1.000000
   27        5.241172   1.000000
   28        5.241476   1.000000
   29        5.355967   1.000000
   30        5.374212   1.000000
   31        5.408310   1.000000
   32        5.652404   1.000000
   33        5.661615   1.000000
   34        5.927474   1.000000
   35       10.142925  -0.000000
   36       10.335770  -0.000000
   37       14.539317   0.000000
   38       14.803929   0.000000
   39       17.221265   0.000000
   40       17.432535   0.000000

  0.3333333E+00  0.1262379E-14  0.1262379E-14  0.2314815E-02
    1      -62.799706   1.000000
    2      -62.799375   1.000000
    3      -62.789496   1.000000
    4      -62.766226   1.000000
    5      -62.765662   1.000000
    6      -62.751369   1.000000
    7      -62.749477   1.000000
    8      -62.740654   1.000000
    9      -62.738784   1.000000
   10      -62.733512   1.000000
   11      -62.716971   1.000000
   12      -62.716599   1.000000
   13       -1.047635   1.000000
   14        1.743023   1.000000
   15        2.665169   1.000000
   16        2.670892   1.000000
   17        2.964121   1.000000
   18        3.004892   1.000000
   19        3.022218   1.000000
   20        3.699741   1.000000
   21        4.243181   1.000000
   22        4.281988   1.000000
   23        4.366002   1.000000
   24        4.398402   1.000000
   25        4.615896   1.000000
   26        5.054630   1.000000
   27        5.055118   1.000000
   28        5.080284   1.000000
   29        5.080767   1.000000
   30        5.166151   1.000000
   31        5.174694   1.000000
   32        5.347232   1.000000
   33        5.653945   1.000000
   34        5.660471   1.000000
   35       11.105698  -0.000000
   36       11.297555  -0.000000
   37       14.790027   0.000000
   38       15.051616   0.000000
   39       15.868650   0.000000
   40       16.074296   0.000000

  0.4166667E+00  0.1262379E-14  0.1262379E-14  0.2314815E-02
    1      -62.791456   1.000000
    2      -62.791381   1.000000
    3      -62.776131   1.000000
    4      -62.774274   1.000000
    5      -62.773705   1.000000
    6      -62.751318   1.000000
    7      -62.750198   1.000000
    8      -62.746517   1.000000
    9      -62.734981   1.000000
   10      -62.733394   1.000000
   11      -62.722601   1.000000
   12      -62.721838   1.000000
   13       -0.347103   1.000000
   14        1.180853   1.000000
   15        2.835302   1.000000
   16        2.838140   1.000000
   17        3.137527   1.000000
   18        3.232361   1.000000
   19        3.255820   1.000000
   20        3.518363   1.000000
   21        3.853299   1.000000
   22        3.888021   1.000000
   23        4.504217   1.000000
   24        4.541320   1.000000
   25        4.564664   1.000000
   26        4.588925   1.000000
   27        4.939570   1.000000
   28        4.940126   1.000000
   29        4.957866   1.000000
   30        4.960237   1.000000
   31        5.124731   1.000000
   32        5.276001   1.000000
   33        5.655652   1.000000
   34        5.659163   1.000000
   35       12.173393  -0.000000
   36       12.366888  -0.000000
   37       14.565368   0.000000
   38       14.766151   0.000000
   39       15.135249   0.000000
   40       15.374981   0.000000

  0.5000000E+00  0.1262379E-14  0.1262379E-14  0.1157407E-02
    1      -62.782644   1.000000
    2      -62.782644   1.000000
    3      -62.782520   1.000000
    4      -62.782520   1.000000
    5      -62.761752   1.000000
    6      -62.761752   1.000000
    7      -62.750880   1.000000
    8      -62.750880   1.000000
    9      -62.728910   1.000000
   10      -62.728910   1.000000
   11      -62.727737   1.000000
   12      -62.727737   1.000000
   13        0.429897   1.000000
   14        0.429897   1.000000
   15        2.905172   1.000000
   16        2.905172   1.000000
   17        3.326370   1.000000
   18        3.326370   1.000000
   19        3.515426   1.000000
   20        3.515426   1.000000
   21        3.544586   1.000000
   22        3.544586   1.000000
   23        4.459039   1.000000
   24        4.459039   1.000000
   25        4.741953   1.000000
   26        4.741953   1.000000
   27        4.755107   1.000000
   28        4.755107   1.000000
   29        4.881397   1.000000
   30        4.881397   1.000000
   31        5.200079   1.000000
   32        5.200079   1.000000
   33        5.657517   1.000000
   34        5.657517   1.000000
   35       13.330068   0.000000
   36       13.330068   0.000000
   37       13.526701   0.000000
   38       13.526701   0.000000
   39       15.505439   0.000000
   40       15.505452   0.000000

  0.8333333E-01  0.8333333E-01  0.1262379E-14  0.2314815E-02
    1      -62.813511   1.000000
    2      -62.813427   1.000000
    3      -62.813427   1.000000
    4      -62.752448   1.000000
    5      -62.751620   1.000000
    6      -62.751620   1.000000
    7      -62.750297   1.000000
    8      -62.750297   1.000000
    9      -62.747864   1.000000
   10      -62.710906   1.000000
   11      -62.708242   1.000000
   12      -62.706304   1.000000
   13       -2.214703   1.000000
   14        2.181457   1.000000
   15        2.181457   1.000000
   16        2.208882   1.000000
   17        2.659481   1.000000
   18        2.659481   1.000000
   19        2.666094   1.000000
   20        4.040923   1.000000
   21        4.074228   1.000000
   22        4.114172   1.000000
   23        4.903681   1.000000
   24        4.917735   1.000000
   25        5.375487   1.000000
   26        5.425800   1.000000
   27        5.425800   1.000000
   28        5.438520   1.000000
   29        5.508771   1.000000
   30        5.508771   1.000000
   31        5.614341   1.000000
   32        5.614341   1.000000
   33        5.640317   1.000000
   34        8.392907  -0.000000
   35        8.392907  -0.000000
   36        8.927303  -0.000000
   37       14.310625   0.000000
   38       15.243500   0.000000
   39       15.243500   0.000000
   40       18.853970   0.000000

  0.1666667E+00  0.8333333E-01  0.1262379E-14  0.4629630E-02
    1      -62.810358   1.000000
    2      -62.810290   1.000000
    3      -62.809200   1.000000
    4      -62.756607   1.000000
    5      -62.753488   1.000000
    6      -62.751368   1.000000
    7      -62.749324   1.000000
    8      -62.748245   1.000000
    9      -62.747113   1.000000
   10      -62.716756   1.000000
   11      -62.710072   1.000000
   12      -62.707712   1.000000
   13       -1.958457   1.000000
   14        2.166738   1.000000
   15        2.301272   1.000000
   16        2.324364   1.000000
   17        2.727648   1.000000
   18        2.730494   1.000000
   19        2.738405   1.000000
   20        3.970887   1.000000
   21        4.131294   1.000000
   22        4.168965   1.000000
   23        4.848861   1.000000
   24        4.939860   1.000000
   25        5.042811   1.000000
   26        5.080578   1.000000
   27        5.296269   1.000000
   28        5.352927   1.000000
   29        5.386404   1.000000
   30        5.467942   1.000000
   31        5.511430   1.000000
   32        5.615077   1.000000
   33        5.627727   1.000000
   34        7.313448   0.029361
   35        8.968065  -0.000000
   36        9.503204  -0.000000
   37       14.403056   0.000000
   38       15.371425   0.000000
   39       16.875509   0.000000
   40       17.478982   0.000000

  0.2500000E+00  0.8333333E-01  0.1262379E-14  0.4629630E-02
    1      -62.805678   1.000000
    2      -62.805340   1.000000
    3      -62.801226   1.000000
    4      -62.761943   1.000000
    5      -62.758743   1.000000
    6      -62.751042   1.000000
    7      -62.747033   1.000000
    8      -62.745209   1.000000
    9      -62.744729   1.000000
   10      -62.725691   1.000000
   11      -62.713371   1.000000
   12      -62.711105   1.000000
   13       -1.538497   1.000000
   14        2.077549   1.000000
   15        2.480933   1.000000
   16        2.497536   1.000000
   17        2.836938   1.000000
   18        2.850145   1.000000
   19        2.859223   1.000000
   20        3.852886   1.000000
   21        4.221596   1.000000
   22        4.266212   1.000000
   23        4.631951   1.000000
   24        4.644862   1.000000
   25        4.752557   1.000000
   26        4.991541   1.000000
   27        5.061921   1.000000
   28        5.221110   1.000000
   29        5.249188   1.000000
   30        5.355851   1.000000
   31        5.402969   1.000000
   32        5.615924   1.000000
   33        5.623516   1.000000
   34        6.261325   1.000000
   35        9.727227  -0.000000
   36       10.300632  -0.000000
   37       14.558347   0.000000
   38       15.595182   0.000000
   39       16.149022   0.000000
   40       17.328254   0.000000

  0.3333333E+00  0.8333333E-01  0.1262379E-14  0.4629630E-02
    1      -62.799105   1.000000
    2      -62.798578   1.000000
    3      -62.790445   1.000000
    4      -62.768550   1.000000
    5      -62.765505   1.000000
    6      -62.749731   1.000000
    7      -62.746929   1.000000
    8      -62.740061   1.000000
    9      -62.739992   1.000000
   10      -62.736909   1.000000
   11      -62.717669   1.000000
   12      -62.715557   1.000000
   13       -0.967858   1.000000
   14        1.799306   1.000000
   15        2.686444   1.000000
   16        2.696751   1.000000
   17        2.980824   1.000000
   18        3.020435   1.000000
   19        3.027287   1.000000
   20        3.699386   1.000000
   21        4.221221   1.000000
   22        4.222307   1.000000
   23        4.327576   1.000000
   24        4.400112   1.000000
   25        4.657141   1.000000
   26        4.715710   1.000000
   27        5.060043   1.000000
   28        5.066066   1.000000
   29        5.088998   1.000000
   30        5.165834   1.000000
   31        5.287602   1.000000
   32        5.585179   1.000000
   33        5.617019   1.000000
   34        5.621616   1.000000
   35       10.595472  -0.000000
   36       11.244291  -0.000000
   37       14.609041   0.000000
   38       15.096017   0.000000
   39       15.922147   0.000000
   40       15.976150   0.000000

  0.4166667E+00  0.8333333E-01  0.1262379E-14  0.4629630E-02
    1      -62.792082   1.000000
    2      -62.790693   1.000000
    3      -62.777470   1.000000
    4      -62.776311   1.000000
    5      -62.773535   1.000000
    6      -62.749631   1.000000
    7      -62.749172   1.000000
    8      -62.747843   1.000000
    9      -62.734385   1.000000
   10      -62.733921   1.000000
   11      -62.722834   1.000000
   12      -62.720970   1.000000
   13       -0.271621   1.000000
   14        1.244061   1.000000
   15        2.862212   1.000000
   16        2.868589   1.000000
   17        3.150500   1.000000
   18        3.241392   1.000000
   19        3.242846   1.000000
   20        3.522484   1.000000
   21        3.838512   1.000000
   22        3.846556   1.000000
   23        4.373302   1.000000
   24        4.433723   1.000000
   25        4.565745   1.000000
   26        4.663879   1.000000
   27        4.932176   1.000000
   28        4.946139   1.000000
   29        4.960319   1.000000
   30        5.056458   1.000000
   31        5.141202   1.000000
   32        5.343052   1.000000
   33        5.617953   1.000000
   34        5.620298   1.000000
   35       11.542045  -0.000000
   36       12.298859  -0.000000
   37       13.630931   0.000000
   38       14.676103   0.000000
   39       15.270420   0.000000
   40       16.210258   0.000000

  0.5000000E+00  0.8333333E-01  0.1262379E-14  0.2314815E-02
    1      -62.784311   1.000000
    2      -62.784311   1.000000
    3      -62.781996   1.000000
    4      -62.781996   1.000000
    5      -62.763613   1.000000
    6      -62.763613   1.000000
    7      -62.748693   1.000000
    8      -62.748693   1.000000
    9      -62.728554   1.000000
   10      -62.728554   1.000000
   11      -62.727322   1.000000
   12      -62.727322   1.000000
   13        0.499832   1.000000
   14        0.499832   1.000000
   15        2.936953   1.000000
   16        2.936953   1.000000
   17        3.335212   1.000000
   18        3.335212   1.000000
   19        3.510006   1.000000
   20        3.510006   1.000000
   21        3.518575   1.000000
   22        3.518575   1.000000
   23        4.352902   1.000000
   24        4.352902   1.000000
   25        4.755743   1.000000
   26        4.755743   1.000000
   27        4.824787   1.000000
   28        4.824787   1.000000
   29        4.881474   1.000000
   30        4.881474   1.000000
   31        5.232724   1.000000
   32        5.232724   1.000000
   33        5.619169   1.000000
   34        5.619169   1.000000
   35       12.555866  -0.000000
   36       12.555866  -0.000000
   37       13.446644   0.000000
   38       13.446644   0.000000
   39       15.744535   0.000000
   40       15.744535   0.000000

  0.1666667E+00  0.1666667E+00  0.1262379E-14  0.2314815E-02
    1      -62.807448   1.000000
    2      -62.806891   1.000000
    3      -62.806891   1.000000
    4      -62.762031   1.000000
    5      -62.751448   1.000000
    6      -62.751448   1.000000
    7      -62.748494   1.000000
    8      -62.748494   1.000000
    9      -62.744802   1.000000
   10      -62.724083   1.000000
   11      -62.712162   1.000000
   12      -62.707490   1.000000
   13       -1.705823   1.000000
   14        2.295602   1.000000
   15        2.295602   1.000000
   16        2.431396   1.000000
   17        2.794365   1.000000
   18        2.794365   1.000000
   19        2.802575   1.000000
   20        3.925970   1.000000
   21        4.167317   1.000000
   22        4.203194   1.000000
   23        4.822710   1.000000
   24        4.834341   1.000000
   25        4.896562   1.000000
   26        4.896562   1.000000
   27        4.942544   1.000000
   28        5.277645   1.000000
   29        5.379056   1.000000
   30        5.379056   1.000000
   31        5.511559   1.000000
   32        5.511559   1.000000
   33        5.572811   1.000000
   34        7.872365  -0.000004
   35        7.872365  -0.000004
   36       10.009576  -0.000000
   37       14.480946   0.000000
   38       15.999570   0.000000
   39       17.040135   0.000000
   40       17.040135   0.000000

  0.2500000E+00  0.1666667E+00  0.1262379E-14  0.4629630E-02
    1      -62.803243   1.000000
    2      -62.802208   1.000000
    3      -62.800635   1.000000
    4      -62.767571   1.000000
    5      -62.756503   1.000000
    6      -62.747875   1.000000
    7      -62.747126   1.000000
    8      -62.743838   1.000000
    9      -62.743096   1.000000
   10      -62.733660   1.000000
   11      -62.715690   1.000000
   12      -62.709178   1.000000
   13       -1.292204   1.000000
   14        2.221486   1.000000
   15        2.490426   1.000000
   16        2.592697   1.000000
   17        2.896596   1.000000
   18        2.906673   1.000000
   19        2.908344   1.000000
   20        3.829987   1.000000
   21        4.220279   1.000000
   22        4.285779   1.000000
   23        4.466151   1.000000
   24        4.504696   1.000000
   25        4.633857   1.000000
   26        4.763584   1.000000
   27        5.006538   1.000000
   28        5.160651   1.000000
   29        5.249334   1.000000
   30        5.327920   1.000000
   31        5.355577   1.000000
   32        5.511849   1.000000
   33        5.540488   1.000000
   34        6.815466   1.016112
   35        8.559861  -0.000000
   36       10.744854  -0.000000
   37       14.320958   0.000000
   38       14.944940   0.000000
   39       17.313345   0.000000
   40       17.642964   0.000000

  0.3333333E+00  0.1666667E+00  0.1262379E-14  0.4629630E-02
    1      -62.798777   1.000000
    2      -62.795382   1.000000
    3      -62.791769   1.000000
    4      -62.773802   1.000000
    5      -62.763021   1.000000
    6      -62.745742   1.000000
    7      -62.744824   1.000000
    8      -62.743013   1.000000
    9      -62.742060   1.000000
   10      -62.737950   1.000000
   11      -62.720473   1.000000
   12      -62.713010   1.000000
   13       -0.731205   1.000000
   14        1.962287   1.000000
   15        2.717168   1.000000
   16        2.784525   1.000000
   17        3.030978   1.000000
   18        3.045680   1.000000
   19        3.065916   1.000000
   20        3.693903   1.000000
   21        4.064161   1.000000
   22        4.157822   1.000000
   23        4.263603   1.000000
   24        4.356806   1.000000
   25        4.411382   1.000000
   26        4.702399   1.000000
   27        5.022529   1.000000
   28        5.093452   1.000000
   29        5.103698   1.000000
   30        5.165791   1.000000
   31        5.221487   1.000000
   32        5.512328   1.000000
   33        5.525102   1.000000
   34        6.051694   1.000000
   35        9.325597  -0.000000
   36       11.641966  -0.000000
   37       13.212517   0.000000
   38       15.065461   0.000000
   39       16.292146   0.000000
   40       17.405627   0.000000

  0.4166667E+00  0.1666667E+00  0.1262379E-14  0.4629630E-02
    1      -62.793179   1.000000
    2      -62.787525   1.000000
    3      -62.781092   1.000000
    4      -62.780518   1.000000
    5      -62.770827   1.000000
    6      -62.756522   1.000000
    7      -62.744327   1.000000
    8      -62.742445   1.000000
    9      -62.737177   1.000000
   10      -62.731149   1.000000
   11      -62.725665   1.000000
   12      -62.718196   1.000000
   13       -0.048549   1.000000
   14        1.427738   1.000000
   15        2.921369   1.000000
   16        2.963968   1.000000
   17        3.189096   1.000000
   18        3.202009   1.000000
   19        3.272675   1.000000
   20        3.532840   1.000000
   21        3.709941   1.000000
   22        3.824855   1.000000
   23        4.197870   1.000000
   24        4.246741   1.000000
   25        4.571972   1.000000
   26        4.732403   1.000000
   27        4.906305   1.000000
   28        4.949056   1.000000
   29        4.961468   1.000000
   30        5.055098   1.000000
   31        5.225855   1.000000
   32        5.512991   1.000000
   33        5.518002   1.000000
   34        5.615779   1.000000
   35       10.162172  -0.000000
   36       12.092824  -0.000000
   37       12.663161   0.000000
   38       15.001006   0.000000
   39       15.444101   0.000000
   40       16.646977   0.000000

  0.5000000E+00  0.1666667E+00  0.1262379E-14  0.2314815E-02
    1      -62.787345   1.000000
    2      -62.787345   1.000000
    3      -62.779300   1.000000
    4      -62.779300   1.000000
    5      -62.768863   1.000000
    6      -62.768863   1.000000
    7      -62.743695   1.000000
    8      -62.743695   1.000000
    9      -62.731337   1.000000
   10      -62.731337   1.000000
   11      -62.724478   1.000000
   12      -62.724478   1.000000
   13        0.704838   1.000000
   14        0.704838   1.000000
   15        3.026057   1.000000
   16        3.026057   1.000000
   17        3.360278   1.000000
   18        3.360278   1.000000
   19        3.415295   1.000000
   20        3.415295   1.000000
   21        3.526641   1.000000
   22        3.526641   1.000000
   23        4.190834   1.000000
   24        4.190834   1.000000
   25        4.758914   1.000000
   26        4.758914   1.000000
   27        4.868600   1.000000
   28        4.868600   1.000000
   29        4.872894   1.000000
   30        4.872894   1.000000
   31        5.381278   1.000000
   32        5.381278   1.000000
   33        5.514407   1.000000
   34        5.514407   1.000000
   35       11.079060  -0.000000
   36       11.079060  -0.000000
   37       13.787348   0.000000
   38       13.787348   0.000000
   39       15.970803   0.000000
   40       15.970803   0.000000

  0.2500000E+00  0.2500000E+00  0.1262379E-14  0.2314815E-02
    1      -62.799103   1.000000
    2      -62.799103   1.000000
    3      -62.797019   1.000000
    4      -62.773510   1.000000
    5      -62.752719   1.000000
    6      -62.752719   1.000000
    7      -62.743677   1.000000
    8      -62.741594   1.000000
    9      -62.741594   1.000000
   10      -62.739898   1.000000
   11      -62.719587   1.000000
   12      -62.709640   1.000000
   13       -0.889903   1.000000
   14        2.441084   1.000000
   15        2.441084   1.000000
   16        2.733617   1.000000
   17        2.990100   1.000000
   18        2.996842   1.000000
   19        2.996842   1.000000
   20        3.770785   1.000000
   21        4.222290   1.000000
   22        4.233706   1.000000
   23        4.233706   1.000000
   24        4.299939   1.000000
   25        4.342853   1.000000
   26        4.726034   1.000000
   27        5.064282   1.000000
   28        5.088680   1.000000
   29        5.208102   1.000000
   30        5.208102   1.000000
   31        5.355640   1.000000
   32        5.355640   1.000000
   33        5.462797   1.000000
   34        7.434468  -0.033789
   35        7.434468  -0.033789
   36       11.415136  -0.000000
   37       13.045548   0.000000
   38       14.997461   0.000000
   39       18.148619   0.000000
   40       18.148639   0.000000

  0.3333333E+00  0.2500000E+00  0.1262379E-14  0.4629630E-02
    1      -62.797085   1.000000
    2      -62.793354   1.000000
    3      -62.790688   1.000000
    4      -62.779795   1.000000
    5      -62.759076   1.000000
    6      -62.754072   1.000000
    7      -62.747728   1.000000
    8      -62.739617   1.000000
    9      -62.737816   1.000000
   10      -62.735289   1.000000
   11      -62.724403   1.000000
   12      -62.711760   1.000000
   13       -0.346298   1.000000
   14        2.212076   1.000000
   15        2.702337   1.000000
   16        2.901601   1.000000
   17        3.089907   1.000000
   18        3.114439   1.000000
   19        3.137613   1.000000
   20        3.671590   1.000000
   21        3.878470   1.000000
   22        4.041269   1.000000
   23        4.047727   1.000000
   24        4.210944   1.000000
   25        4.446918   1.000000
   26        4.680328   1.000000
   27        4.947945   1.000000
   28        5.061000   1.000000
   29        5.110541   1.000000
   30        5.167024   1.000000
   31        5.227371   1.000000
   32        5.356629   1.000000
   33        5.411243   1.000000
   34        6.563701   1.000085
   35        8.110669  -0.000000
   36       11.785904  -0.000000
   37       12.257768  -0.000000
   38       15.294018   0.000000
   39       16.799629   0.000000
   40       17.909865   0.000000

  0.4166667E+00  0.2500000E+00  0.1262379E-14  0.4629630E-02
    1      -62.794082   1.000000
    2      -62.785532   1.000000
    3      -62.785218   1.000000
    4      -62.782913   1.000000
    5      -62.766727   1.000000
    6      -62.764744   1.000000
    7      -62.741844   1.000000
    8      -62.738058   1.000000
    9      -62.736644   1.000000
   10      -62.730046   1.000000
   11      -62.728442   1.000000
   12      -62.715959   1.000000
   13        0.311063   1.000000
   14        1.713121   1.000000
   15        2.952207   1.000000
   16        3.090690   1.000000
   17        3.158850   1.000000
   18        3.251606   1.000000
   19        3.318415   1.000000
   20        3.542718   1.000000
   21        3.571725   1.000000
   22        3.784658   1.000000
   23        3.987408   1.000000
   24        4.150263   1.000000
   25        4.592401   1.000000
   26        4.701077   1.000000
   27        4.852503   1.000000
   28        4.919646   1.000000
   29        4.963906   1.000000
   30        4.965896   1.000000
   31        5.359510   1.000000
   32        5.382224   1.000000
   33        5.407105   1.000000
   34        5.992999   1.000000
   35        8.859030  -0.000000
   36       10.672699  -0.000000
   37       13.236682   0.000000
   38       15.521164   0.000000
   39       15.725179   0.000000
   40       17.029028   0.000000

  0.5000000E+00  0.2500000E+00  0.1262379E-14  0.2314815E-02
    1      -62.790422   1.000000
    2      -62.790422   1.000000
    3      -62.775539   1.000000
    4      -62.775539   1.000000
    5      -62.774799   1.000000
    6      -62.774799   1.000000
    7      -62.737154   1.000000
    8      -62.737154   1.000000
    9      -62.735745   1.000000
   10      -62.735745   1.000000
   11      -62.721581   1.000000
   12      -62.721581   1.000000
   13        1.030058   1.000000
   14        1.030058   1.000000
   15        3.120395   1.000000
   16        3.120395   1.000000
   17        3.311844   1.000000
   18        3.311844   1.000000
   19        3.398288   1.000000
   20        3.398288   1.000000
   21        3.536504   1.000000