       N       E                     dE             d eps       ncg     rms          rms(c)
DAV:   1     0.908367953055E+03    0.90837E+03   -0.46621E+04 18072   0.272E+03
DAV:   2     0.386988599230E+02   -0.86967E+03   -0.85003E+03 16032   0.759E+02
DAV:   3    -0.183920716473E+02   -0.57091E+02   -0.55022E+02 17128   0.216E+02
DAV:   4    -0.197756008569E+02   -0.13835E+01   -0.13736E+01 17160   0.332E+01
DAV:   5    -0.198199436379E+02   -0.44343E-01   -0.44342E-01 19344   0.555E+00    0.161E+01
RMM:   6    -0.178794003522E+02    0.19405E+01   -0.36629E+01 16021   0.609E+01    0.105E+01
RMM:   7    -0.164024370093E+02    0.14770E+01   -0.67359E+00 15719   0.284E+01    0.119E+00
RMM:   8    -0.163673819148E+02    0.35055E-01   -0.69928E-02 16509   0.314E+00    0.351E-01
RMM:   9    -0.163664361073E+02    0.94581E-03   -0.14735E-02 16806   0.996E-01    0.933E-02
RMM:  10    -0.163667082786E+02   -0.27217E-03   -0.30714E-03 17093   0.652E-01    0.641E-02
RMM:  11    -0.163667320478E+02   -0.23769E-04   -0.10114E-03 18074   0.257E-01    0.208E-02
RMM:  12    -0.163667517943E+02   -0.19747E-04   -0.25293E-04 19609   0.150E-01    0.886E-03
RMM:  13    -0.163667598779E+02   -0.80837E-05   -0.70037E-05 20989   0.548E-02    0.261E-03
RMM:  14    -0.163667614717E+02   -0.15937E-05   -0.11024E-05 22222   0.236E-02    0.790E-04
RMM:  15    -0.163667616304E+02   -0.15869E-06   -0.14768E-06 22399   0.804E-03    0.120E-04
RMM:  16    -0.163667616695E+02   -0.39119E-07   -0.16235E-07 17062   0.303E-03    0.281E-04
RMM:  17    -0.163667616200E+02    0.49477E-07   -0.22573E-08  9543   0.145E-03    0.426E-05
RMM:  18    -0.163667616285E+02   -0.85129E-08   -0.60435E-09  8653   0.747E-04
   1 F= -.16366762E+02 E0= -.16367881E+02  d E =0.335752E-02
