 vasp.6.2.1 16May21 (build Aug 15 2022 14:47:30) complex                         
 executed on             LinuxGNU date 2025.12.24  15:19:29
 running on    4 total cores
 distrk:  each k-point on    4 cores,    1 groups
 distr:  one band on NCORE=   1 cores,    4 groups


--------------------------------------------------------------------------------------------------------


 INCAR:
   ALGO = Fast
   EDIFF = 1e-8
   ENCUT = 520.0
   ISMEAR = 1
   LASPH = True
   LCHARG = True
   LORBIT = 11
   LREAL = False
   LWAVE = False
   NELM = 100
   NSW = 0
   PREC = Accurate

 POTCAR:   PAW_PBE Cu_pv 06Sep2000                
 POTCAR:   PAW_PBE Cu_pv 06Sep2000                
   VRHFIN =Cu: d10 p1                                                                               
   LEXCH  = PE                                                                                      
   EATOM  =  4119.1903 eV,  302.7519 Ry                                                             
                                                                                                    
   TITEL  = PAW_PBE Cu_pv 06Sep2000                                                                 
   LULTRA =        F    use ultrasoft PP ?                                                          
   IUNSCR =        1    unscreen: 0-lin 1-nonlin 2-no                                               
   RPACOR =    1.500    partial core radius                                                         
   POMASS =   63.546; ZVAL   =   17.000    mass and valenz                                          
   RCORE  =    2.000    outmost cutoff radius                                                       
   RWIGS  =    2.000; RWIGS  =    1.058    wigner-seitz radius (au A)                               
   ENMAX  =  368.605; ENMIN  =  276.454 eV                                                          
   RCLOC  =    1.304    cutoff for local pot                                                        
   LCOR   =        T    correct aug charges                                                         
   LPAW   =        T    paw PP                                                                      
   EAUG   =  758.233                                                                                
   DEXC   =    -.002                                                                                
   RMAX   =    2.402    core radius for proj-oper                                                   
   RAUG   =    1.300    factor for augmentation sphere                                              
   RDEP   =    2.025    radius for radial grids                                                     
   QCUT   =   -5.205; QGAM   =   10.410    optimization parameters                                  
                                                                                                    
   Description                                                                                      
     l     E      TYP  RCUT    TYP  RCUT                                                            
     1   .000     23  1.700                                                                         
     1  -.100     23  1.700                                                                         
     2   .000     23  2.000                                                                         
     2   .000     23  2.000                                                                         
     0   .000     23  1.800                                                                         
     0   .000     23  1.800                                                                         
     3   .000      7   .000                                                                         
  local pseudopotential read in
  partial core-charges read in
  atomic valenz-charges read in
  non local Contribution for L=           1  read in
    real space projection operators read in
  non local Contribution for L=           1  read in
    real space projection operators read in
  non local Contribution for L=           2  read in
    real space projection operators read in
  non local Contribution for L=           2  read in
    real space projection operators read in
  non local Contribution for L=           0  read in
    real space projection operators read in
  non local Contribution for L=           0  read in
    real space projection operators read in
    PAW grid and wavefunctions read in

   number of l-projection  operators is LMAX  =           6
   number of lm-projection operators is LMMAX =          18

 PAW_PBE Cu_pv 06Sep2000                :
 energy of atom  1       EATOM=-4119.1903
 kinetic energy error for atom=    0.0541 (will be added to EATOM!!)


 POSCAR: # Generated by Masgent for elastic const
  positions in direct lattice
  No initial velocities read in
 exchange correlation table for  LEXCH =        8
   RHO(1)=    0.500       N(1)  =     2000
   RHO(2)=  100.500       N(2)  =     4000

 VTST: version 4.2, (08/11/21)

 CHAIN: initializing optimizer
 
 OPT: Using VASP Dynamics algorithm
 CHAIN: Read ICHAIN            0

 POSCAR: # Generated by Masgent for elastic const
  positions in direct lattice
  No initial velocities read in



--------------------------------------------------------------------------------------------------------


 ion  position               nearest neighbor table
   1  0.000  0.000  0.000-   4 2.53   4 2.53   4 2.53   4 2.53
   2  0.000  0.500  0.500-   3 2.53   3 2.53   3 2.53   3 2.53
   3  0.500  0.000  0.500-   2 2.53   2 2.53   2 2.53   2 2.53
   4  0.500  0.500  0.000-   1 2.53   1 2.53   1 2.53   1 2.53

  LATTYP: Found a simple tetragonal cell.
 ALAT       =     3.5774306716
 C/A-ratio  =     1.0100000000
  
  Lattice vectors:
  
 A1 = (   3.5774306716,   0.0000000000,   0.0000000000)
 A2 = (   0.0000000000,   3.5774306716,   0.0000000000)
 A3 = (   0.0000000000,   0.0000000000,   3.6132049783)


Analysis of symmetry for initial positions (statically):
=====================================================================
 Subroutine PRICEL returns following result:
 
  LATTYP: Found a body centered tetragonal cell.
 ALAT       =     2.5296254871
 C/A-ratio  =     1.4283556980
  
  Lattice vectors:
  
 A1 = (   0.0000000000,  -1.7887153358,  -1.8066024891)
 A2 = (   0.0000000000,   1.7887153358,  -1.8066024891)
 A3 = (   1.7887153358,   0.0000000000,   1.8066024891)
 
   4 primitive cells build up your supercell.
 

 Routine SETGRP: Setting up the symmetry group for a 
 simple tetragonal supercell.


 Subroutine GETGRP returns: Found 16 space group operations
 (whereof 16 operations were pure point group operations)
 out of a pool of 16 trial point group operations.


The static configuration has the point symmetry D_4h.


Analysis of symmetry for dynamics (positions and initial velocities):
=====================================================================
 Subroutine PRICEL returns following result:
 
  LATTYP: Found a body centered tetragonal cell.
 ALAT       =     2.5296254871
 C/A-ratio  =     1.4283556980
  
  Lattice vectors:
  
 A1 = (   0.0000000000,  -1.7887153358,  -1.8066024891)
 A2 = (   0.0000000000,   1.7887153358,  -1.8066024891)
 A3 = (   1.7887153358,   0.0000000000,   1.8066024891)
 
   4 primitive cells build up your supercell.
 

 Routine SETGRP: Setting up the symmetry group for a 
 simple tetragonal supercell.


 Subroutine GETGRP returns: Found 16 space group operations
 (whereof 16 operations were pure point group operations)
 out of a pool of 16 trial point group operations.


The dynamic configuration has the point symmetry D_4h.


 Subroutine INISYM returns: Found 16 space group operations
 (whereof 16 operations are pure point group operations),
 and found     4 'primitive' translations


----------------------------------------------------------------------------------------

                                     Primitive cell                                     

  volume of cell :      11.5605

  direct lattice vectors                    reciprocal lattice vectors
     0.000000000 -1.788715336 -1.806602489     0.279530225 -0.279530225 -0.276762599
     0.000000000  1.788715336 -1.806602489     0.279530225  0.279530225 -0.276762599
     1.788715336  0.000000000  1.806602489     0.559060450  0.000000000  0.000000000

  length of vectors
     2.542305077  2.542305077  2.542305077     0.482567953  0.482567953  0.559060450

  position of ions in fractional coordinates (direct lattice)
     0.000000000  0.000000000  0.000000000

  ion indices of the primitive-cell ions
   primitive index   ion index
                 1           1

----------------------------------------------------------------------------------------



 KPOINTS: # Generated by Masgent for elastic const

Automatic generation of k-mesh.
 Grid dimensions read from file:
 generate k-points for:   12   12   12

 Generating k-lattice:

  Cartesian coordinates                     Fractional coordinates (reciprocal lattice)
     0.023294185 -0.000000000  0.000000000     0.083333333  0.000000000  0.000000000
     0.000000000  0.023294185  0.000000000     0.000000000  0.083333333  0.000000000
    -0.000000000 -0.000000000  0.023063550     0.000000000  0.000000000  0.083333333

  Length of vectors
     0.023294185  0.023294185  0.023063550

  Shift w.r.t. Gamma in fractional coordinates (k-lattice)
     0.000000000  0.000000000  0.000000000

 
 Subroutine IBZKPT returns following result:
 ===========================================
 
 Found    196 irreducible k-points:
 
 Following reciprocal coordinates:
            Coordinates               Weight
  0.000000  0.000000  0.000000      1.000000
  0.083333  0.000000  0.000000      4.000000
  0.166667  0.000000  0.000000      4.000000
  0.250000  0.000000  0.000000      4.000000
  0.333333  0.000000  0.000000      4.000000
  0.416667  0.000000  0.000000      4.000000
  0.500000  0.000000  0.000000      2.000000
  0.083333  0.083333  0.000000      4.000000
  0.166667  0.083333  0.000000      8.000000
  0.250000  0.083333  0.000000      8.000000
  0.333333  0.083333  0.000000      8.000000
  0.416667  0.083333  0.000000      8.000000
  0.500000  0.083333  0.000000      4.000000
  0.166667  0.166667  0.000000      4.000000
  0.250000  0.166667  0.000000      8.000000
  0.333333  0.166667  0.000000      8.000000
  0.416667  0.166667  0.000000      8.000000
  0.500000  0.166667  0.000000      4.000000
  0.250000  0.250000  0.000000      4.000000
  0.333333  0.250000  0.000000      8.000000
  0.416667  0.250000  0.000000      8.000000
  0.500000  0.250000  0.000000      4.000000
  0.333333  0.333333  0.000000      4.000000
  0.416667  0.333333  0.000000      8.000000
  0.500000  0.333333  0.000000      4.000000
  0.416667  0.416667  0.000000      4.000000
  0.500000  0.416667  0.000000      4.000000
  0.500000  0.500000  0.000000      1.000000
  0.000000  0.000000  0.083333      2.000000
  0.083333  0.000000  0.083333      8.000000
  0.166667  0.000000  0.083333      8.000000
  0.250000  0.000000  0.083333      8.000000
  0.333333  0.000000  0.083333      8.000000
  0.416667  0.000000  0.083333      8.000000
  0.500000  0.000000  0.083333      4.000000
  0.083333  0.083333  0.083333      8.000000
  0.166667  0.083333  0.083333     16.000000
  0.250000  0.083333  0.083333     16.000000
  0.333333  0.083333  0.083333     16.000000
  0.416667  0.083333  0.083333     16.000000
  0.500000  0.083333  0.083333      8.000000
  0.166667  0.166667  0.083333      8.000000
  0.250000  0.166667  0.083333     16.000000
  0.333333  0.166667  0.083333     16.000000
  0.416667  0.166667  0.083333     16.000000
  0.500000  0.166667  0.083333      8.000000
  0.250000  0.250000  0.083333      8.000000
  0.333333  0.250000  0.083333     16.000000
  0.416667  0.250000  0.083333     16.000000
  0.500000  0.250000  0.083333      8.000000
  0.333333  0.333333  0.083333      8.000000
  0.416667  0.333333  0.083333     16.000000
  0.500000  0.333333  0.083333      8.000000
  0.416667  0.416667  0.083333      8.000000
  0.500000  0.416667  0.083333      8.000000
  0.500000  0.500000  0.083333      2.000000
  0.000000  0.000000  0.166667      2.000000
  0.083333  0.000000  0.166667      8.000000
  0.166667  0.000000  0.166667      8.000000
  0.250000  0.000000  0.166667      8.000000
  0.333333  0.000000  0.166667      8.000000
  0.416667  0.000000  0.166667      8.000000
  0.500000  0.000000  0.166667      4.000000
  0.083333  0.083333  0.166667      8.000000
  0.166667  0.083333  0.166667     16.000000
  0.250000  0.083333  0.166667     16.000000
  0.333333  0.083333  0.166667     16.000000
  0.416667  0.083333  0.166667     16.000000
  0.500000  0.083333  0.166667      8.000000
  0.166667  0.166667  0.166667      8.000000
  0.250000  0.166667  0.166667     16.000000
  0.333333  0.166667  0.166667     16.000000
  0.416667  0.166667  0.166667     16.000000
  0.500000  0.166667  0.166667      8.000000
  0.250000  0.250000  0.166667      8.000000
  0.333333  0.250000  0.166667     16.000000
  0.416667  0.250000  0.166667     16.000000
  0.500000  0.250000  0.166667      8.000000
  0.333333  0.333333  0.166667      8.000000
  0.416667  0.333333  0.166667     16.000000
  0.500000  0.333333  0.166667      8.000000
  0.416667  0.416667  0.166667      8.000000
  0.500000  0.416667  0.166667      8.000000
  0.500000  0.500000  0.166667      2.000000
  0.000000  0.000000  0.250000      2.000000
  0.083333  0.000000  0.250000      8.000000
  0.166667  0.000000  0.250000      8.000000
  0.250000  0.000000  0.250000      8.000000
  0.333333  0.000000  0.250000      8.000000
  0.416667  0.000000  0.250000      8.000000
  0.500000  0.000000  0.250000      4.000000
  0.083333  0.083333  0.250000      8.000000
  0.166667  0.083333  0.250000     16.000000
  0.250000  0.083333  0.250000     16.000000
  0.333333  0.083333  0.250000     16.000000
  0.416667  0.083333  0.250000     16.000000
  0.500000  0.083333  0.250000      8.000000
  0.166667  0.166667  0.250000      8.000000
  0.250000  0.166667  0.250000     16.000000
  0.333333  0.166667  0.250000     16.000000
  0.416667  0.166667  0.250000     16.000000
  0.500000  0.166667  0.250000      8.000000
  0.250000  0.250000  0.250000      8.000000
  0.333333  0.250000  0.250000     16.000000
  0.416667  0.250000  0.250000     16.000000
  0.500000  0.250000  0.250000      8.000000
  0.333333  0.333333  0.250000      8.000000
  0.416667  0.333333  0.250000     16.000000
  0.500000  0.333333  0.250000      8.000000
  0.416667  0.416667  0.250000      8.000000
  0.500000  0.416667  0.250000      8.000000
  0.500000  0.500000  0.250000      2.000000
  0.000000  0.000000  0.333333      2.000000
  0.083333  0.000000  0.333333      8.000000
  0.166667  0.000000  0.333333      8.000000
  0.250000  0.000000  0.333333      8.000000
  0.333333  0.000000  0.333333      8.000000
  0.416667  0.000000  0.333333      8.000000
  0.500000  0.000000  0.333333      4.000000
  0.083333  0.083333  0.333333      8.000000
  0.166667  0.083333  0.333333     16.000000
  0.250000  0.083333  0.333333     16.000000
  0.333333  0.083333  0.333333     16.000000
  0.416667  0.083333  0.333333     16.000000
  0.500000  0.083333  0.333333      8.000000
  0.166667  0.166667  0.333333      8.000000
  0.250000  0.166667  0.333333     16.000000
  0.333333  0.166667  0.333333     16.000000
  0.416667  0.166667  0.333333     16.000000
  0.500000  0.166667  0.333333      8.000000
  0.250000  0.250000  0.333333      8.000000
  0.333333  0.250000  0.333333     16.000000
  0.416667  0.250000  0.333333     16.000000
  0.500000  0.250000  0.333333      8.000000
  0.333333  0.333333  0.333333      8.000000
  0.416667  0.333333  0.333333     16.000000
  0.500000  0.333333  0.333333      8.000000
  0.416667  0.416667  0.333333      8.000000
  0.500000  0.416667  0.333333      8.000000
  0.500000  0.500000  0.333333      2.000000
  0.000000  0.000000  0.416667      2.000000
  0.083333  0.000000  0.416667      8.000000
  0.166667  0.000000  0.416667      8.000000
  0.250000  0.000000  0.416667      8.000000
  0.333333  0.000000  0.416667      8.000000
  0.416667  0.000000  0.416667      8.000000
  0.500000  0.000000  0.416667      4.000000
  0.083333  0.083333  0.416667      8.000000
  0.166667  0.083333  0.416667     16.000000
  0.250000  0.083333  0.416667     16.000000
  0.333333  0.083333  0.416667     16.000000
  0.416667  0.083333  0.416667     16.000000
  0.500000  0.083333  0.416667      8.000000
  0.166667  0.166667  0.416667      8.000000
  0.250000  0.166667  0.416667     16.000000
  0.333333  0.166667  0.416667     16.000000
  0.416667  0.166667  0.416667     16.000000
  0.500000  0.166667  0.416667      8.000000
  0.250000  0.250000  0.416667      8.000000
  0.333333  0.250000  0.416667     16.000000
  0.416667  0.250000  0.416667     16.000000
  0.500000  0.250000  0.416667      8.000000
  0.333333  0.333333  0.416667      8.000000
  0.416667  0.333333  0.416667     16.000000
  0.500000  0.333333  0.416667      8.000000
  0.416667  0.416667  0.416667      8.000000
  0.500000  0.416667  0.416667      8.000000
  0.500000  0.500000  0.416667      2.000000
  0.000000  0.000000  0.500000      1.000000
  0.083333  0.000000  0.500000      4.000000
  0.166667  0.000000  0.500000      4.000000
  0.250000  0.000000  0.500000      4.000000
  0.333333  0.000000  0.500000      4.000000
  0.416667  0.000000  0.500000      4.000000
  0.500000  0.000000  0.500000      2.000000
  0.083333  0.083333  0.500000      4.000000
  0.166667  0.083333  0.500000      8.000000
  0.250000  0.083333  0.500000      8.000000
  0.333333  0.083333  0.500000      8.000000
  0.416667  0.083333  0.500000      8.000000
  0.500000  0.083333  0.500000      4.000000
  0.166667  0.166667  0.500000      4.000000
  0.250000  0.166667  0.500000      8.000000
  0.333333  0.166667  0.500000      8.000000
  0.416667  0.166667  0.500000      8.000000
  0.500000  0.166667  0.500000      4.000000
  0.250000  0.250000  0.500000      4.000000
  0.333333  0.250000  0.500000      8.000000
  0.416667  0.250000  0.500000      8.000000
  0.500000  0.250000  0.500000      4.000000
  0.333333  0.333333  0.500000      4.000000
  0.416667  0.333333  0.500000      8.000000
  0.500000  0.333333  0.500000      4.000000
  0.416667  0.416667  0.500000      4.000000
  0.500000  0.416667  0.500000      4.000000
  0.500000  0.500000  0.500000      1.000000
 
 Following cartesian coordinates:
            Coordinates               Weight
  0.000000  0.000000  0.000000      1.000000
  0.023294  0.000000  0.000000      4.000000
  0.046588  0.000000  0.000000      4.000000
  0.069883  0.000000  0.000000      4.000000
  0.093177  0.000000  0.000000      4.000000
  0.116471  0.000000  0.000000      4.000000
  0.139765  0.000000  0.000000      2.000000
  0.023294  0.023294  0.000000      4.000000
  0.046588  0.023294  0.000000      8.000000
  0.069883  0.023294  0.000000      8.000000
  0.093177  0.023294  0.000000      8.000000
  0.116471  0.023294  0.000000      8.000000
  0.139765  0.023294  0.000000      4.000000
  0.046588  0.046588  0.000000      4.000000
  0.069883  0.046588  0.000000      8.000000
  0.093177  0.046588  0.000000      8.000000
  0.116471  0.046588  0.000000      8.000000
  0.139765  0.046588  0.000000      4.000000
  0.069883  0.069883  0.000000      4.000000
  0.093177  0.069883  0.000000      8.000000
  0.116471  0.069883  0.000000      8.000000
  0.139765  0.069883  0.000000      4.000000
  0.093177  0.093177  0.000000      4.000000
  0.116471  0.093177  0.000000      8.000000
  0.139765  0.093177  0.000000      4.000000
  0.116471  0.116471  0.000000      4.000000
  0.139765  0.116471  0.000000      4.000000
  0.139765  0.139765  0.000000      1.000000
  0.000000  0.000000  0.023064      2.000000
  0.023294  0.000000  0.023064      8.000000
  0.046588  0.000000  0.023064      8.000000
  0.069883  0.000000  0.023064      8.000000
  0.093177  0.000000  0.023064      8.000000
  0.116471  0.000000  0.023064      8.000000
  0.139765  0.000000  0.023064      4.000000
  0.023294  0.023294  0.023064      8.000000
  0.046588  0.023294  0.023064     16.000000
  0.069883  0.023294  0.023064     16.000000
  0.093177  0.023294  0.023064     16.000000
  0.116471  0.023294  0.023064     16.000000
  0.139765  0.023294  0.023064      8.000000
  0.046588  0.046588  0.023064      8.000000
  0.069883  0.046588  0.023064     16.000000
  0.093177  0.046588  0.023064     16.000000
  0.116471  0.046588  0.023064     16.000000
  0.139765  0.046588  0.023064      8.000000
  0.069883  0.069883  0.023064      8.000000
  0.093177  0.069883  0.023064     16.000000
  0.116471  0.069883  0.023064     16.000000
  0.139765  0.069883  0.023064      8.000000
  0.093177  0.093177  0.023064      8.000000
  0.116471  0.093177  0.023064     16.000000
  0.139765  0.093177  0.023064      8.000000
  0.116471  0.116471  0.023064      8.000000
  0.139765  0.116471  0.023064      8.000000
  0.139765  0.139765  0.023064      2.000000
  0.000000  0.000000  0.046127      2.000000
  0.023294  0.000000  0.046127      8.000000
  0.046588  0.000000  0.046127      8.000000
  0.069883  0.000000  0.046127      8.000000
  0.093177  0.000000  0.046127      8.000000
  0.116471  0.000000  0.046127      8.000000
  0.139765  0.000000  0.046127      4.000000
  0.023294  0.023294  0.046127      8.000000
  0.046588  0.023294  0.046127     16.000000
  0.069883  0.023294  0.046127     16.000000
  0.093177  0.023294  0.046127     16.000000
  0.116471  0.023294  0.046127     16.000000
  0.139765  0.023294  0.046127      8.000000
  0.046588  0.046588  0.046127      8.000000
  0.069883  0.046588  0.046127     16.000000
  0.093177  0.046588  0.046127     16.000000
  0.116471  0.046588  0.046127     16.000000
  0.139765  0.046588  0.046127      8.000000
  0.069883  0.069883  0.046127      8.000000
  0.093177  0.069883  0.046127     16.000000
  0.116471  0.069883  0.046127     16.000000
  0.139765  0.069883  0.046127      8.000000
  0.093177  0.093177  0.046127      8.000000
  0.116471  0.093177  0.046127     16.000000
  0.139765  0.093177  0.046127      8.000000
  0.116471  0.116471  0.046127      8.000000
  0.139765  0.116471  0.046127      8.000000
  0.139765  0.139765  0.046127      2.000000
  0.000000  0.000000  0.069191      2.000000
  0.023294  0.000000  0.069191      8.000000
  0.046588  0.000000  0.069191      8.000000
  0.069883  0.000000  0.069191      8.000000
  0.093177  0.000000  0.069191      8.000000
  0.116471  0.000000  0.069191      8.000000
  0.139765  0.000000  0.069191      4.000000
  0.023294  0.023294  0.069191      8.000000
  0.046588  0.023294  0.069191     16.000000
  0.069883  0.023294  0.069191     16.000000
  0.093177  0.023294  0.069191     16.000000
  0.116471  0.023294  0.069191     16.000000
  0.139765  0.023294  0.069191      8.000000
  0.046588  0.046588  0.069191      8.000000
  0.069883  0.046588  0.069191     16.000000
  0.093177  0.046588  0.069191     16.000000
  0.116471  0.046588  0.069191     16.000000
  0.139765  0.046588  0.069191      8.000000
  0.069883  0.069883  0.069191      8.000000
  0.093177  0.069883  0.069191     16.000000
  0.116471  0.069883  0.069191     16.000000
  0.139765  0.069883  0.069191      8.000000
  0.093177  0.093177  0.069191      8.000000
  0.116471  0.093177  0.069191     16.000000
  0.139765  0.093177  0.069191      8.000000
  0.116471  0.116471  0.069191      8.000000
  0.139765  0.116471  0.069191      8.000000
  0.139765  0.139765  0.069191      2.000000
  0.000000  0.000000  0.092254      2.000000
  0.023294  0.000000  0.092254      8.000000
  0.046588  0.000000  0.092254      8.000000
  0.069883  0.000000  0.092254      8.000000
  0.093177  0.000000  0.092254      8.000000
  0.116471  0.000000  0.092254      8.000000
  0.139765  0.000000  0.092254      4.000000
  0.023294  0.023294  0.092254      8.000000
  0.046588  0.023294  0.092254     16.000000
  0.069883  0.023294  0.092254     16.000000
  0.093177  0.023294  0.092254     16.000000
  0.116471  0.023294  0.092254     16.000000
  0.139765  0.023294  0.092254      8.000000
  0.046588  0.046588  0.092254      8.000000
  0.069883  0.046588  0.092254     16.000000
  0.093177  0.046588  0.092254     16.000000
  0.116471  0.046588  0.092254     16.000000
  0.139765  0.046588  0.092254      8.000000
  0.069883  0.069883  0.092254      8.000000
  0.093177  0.069883  0.092254     16.000000
  0.116471  0.069883  0.092254     16.000000
  0.139765  0.069883  0.092254      8.000000
  0.093177  0.093177  0.092254      8.000000
  0.116471  0.093177  0.092254     16.000000
  0.139765  0.093177  0.092254      8.000000
  0.116471  0.116471  0.092254      8.000000
  0.139765  0.116471  0.092254      8.000000
  0.139765  0.139765  0.092254      2.000000
  0.000000  0.000000  0.115318      2.000000
  0.023294  0.000000  0.115318      8.000000
  0.046588  0.000000  0.115318      8.000000
  0.069883  0.000000  0.115318      8.000000
  0.093177  0.000000  0.115318      8.000000
  0.116471  0.000000  0.115318      8.000000
  0.139765  0.000000  0.115318      4.000000
  0.023294  0.023294  0.115318      8.000000
  0.046588  0.023294  0.115318     16.000000
  0.069883  0.023294  0.115318     16.000000
  0.093177  0.023294  0.115318     16.000000
  0.116471  0.023294  0.115318     16.000000
  0.139765  0.023294  0.115318      8.000000
  0.046588  0.046588  0.115318      8.000000
  0.069883  0.046588  0.115318     16.000000
  0.093177  0.046588  0.115318     16.000000
  0.116471  0.046588  0.115318     16.000000
  0.139765  0.046588  0.115318      8.000000
  0.069883  0.069883  0.115318      8.000000
  0.093177  0.069883  0.115318     16.000000
  0.116471  0.069883  0.115318     16.000000
  0.139765  0.069883  0.115318      8.000000
  0.093177  0.093177  0.115318      8.000000
  0.116471  0.093177  0.115318     16.000000
  0.139765  0.093177  0.115318      8.000000
  0.116471  0.116471  0.115318      8.000000
  0.139765  0.116471  0.115318      8.000000
  0.139765  0.139765  0.115318      2.000000
  0.000000  0.000000  0.138381      1.000000
  0.023294  0.000000  0.138381      4.000000
  0.046588  0.000000  0.138381      4.000000
  0.069883  0.000000  0.138381      4.000000
  0.093177  0.000000  0.138381      4.000000
  0.116471  0.000000  0.138381      4.000000
  0.139765  0.000000  0.138381      2.000000
  0.023294  0.023294  0.138381      4.000000
  0.046588  0.023294  0.138381      8.000000
  0.069883  0.023294  0.138381      8.000000
  0.093177  0.023294  0.138381      8.000000
  0.116471  0.023294  0.138381      8.000000
  0.139765  0.023294  0.138381      4.000000
  0.046588  0.046588  0.138381      4.000000
  0.069883  0.046588  0.138381      8.000000
  0.093177  0.046588  0.138381      8.000000
  0.116471  0.046588  0.138381      8.000000
  0.139765  0.046588  0.138381      4.000000
  0.069883  0.069883  0.138381      4.000000
  0.093177  0.069883  0.138381      8.000000
  0.116471  0.069883  0.138381      8.000000
  0.139765  0.069883  0.138381      4.000000
  0.093177  0.093177  0.138381      4.000000
  0.116471  0.093177  0.138381      8.000000
  0.139765  0.093177  0.138381      4.000000
  0.116471  0.116471  0.138381      4.000000
  0.139765  0.116471  0.138381      4.000000
  0.139765  0.139765  0.138381      1.000000
 


--------------------------------------------------------------------------------------------------------




 Dimension of arrays:
   k-points           NKPTS =    196   k-points in BZ     NKDIM =    196   number of bands    NBANDS=     40
   number of dos      NEDOS =    301   number of ions     NIONS =      4
   non local maximal  LDIM  =      6   non local SUM 2l+1 LMDIM =     18
   total plane-waves  NPLWV =  21952
   max r-space proj   IRMAX =      1   max aug-charges    IRDMAX=   9564
   dimension x,y,z NGX =    28 NGY =   28 NGZ =   28
   dimension x,y,z NGXF=    56 NGYF=   56 NGZF=   56
   support grid    NGXF=    56 NGYF=   56 NGZF=   56
   ions per type =               4
   NGX,Y,Z   is equivalent  to a cutoff of  13.01, 13.01, 12.88 a.u.
   NGXF,Y,Z  is equivalent  to a cutoff of  26.02, 26.02, 25.77 a.u.

 SYSTEM =  unknown system                          
 POSCAR =  # Generated by Masgent for elastic const

 Startparameter for this run:
   NWRITE =      2    write-flag & timer
   PREC   = accura    normal or accurate (medium, high low for compatibility)
   ISTART =      0    job   : 0-new  1-cont  2-samecut
   ICHARG =      2    charge: 1-file 2-atom 10-const
   ISPIN  =      1    spin polarized calculation?
   LNONCOLLINEAR =      F non collinear calculations
   LSORBIT =      F    spin-orbit coupling
   INIWAV =      1    electr: 0-lowe 1-rand  2-diag
   LASPH  =      T    aspherical Exc in radial PAW
 Electronic Relaxation 1
   ENCUT  =  520.0 eV  38.22 Ry    6.18 a.u.   6.65  6.65  6.72*2*pi/ulx,y,z
   ENINI  =  520.0     initial cutoff
   ENAUG  =  758.2 eV  augmentation charge cutoff
   NELM   =    100;   NELMIN=  2; NELMDL= -5     # of ELM steps 
   EDIFF  = 0.1E-07   stopping-criterion for ELM
   LREAL  =      F    real-space projection
   NLSPLINE    = F    spline interpolate recip. space projectors
   LCOMPAT=      F    compatible to vasp.4.4
   GGA_COMPAT  = T    GGA compatible to vasp.4.4-vasp.4.6
   LMAXPAW     = -100 max onsite density
   LMAXMIX     =    2 max onsite mixed and CHGCAR
   VOSKOWN=      0    Vosko Wilk Nusair interpolation
   ROPT   =    0.00000
 Ionic relaxation
   EDIFFG = 0.1E-06   stopping-criterion for IOM
   NSW    =      0    number of steps for IOM
   NBLOCK =      1;   KBLOCK =      1    inner block; outer block 
   IBRION =     -1    ionic relax: 0-MD 1-quasi-New 2-CG
   NFREE  =      0    steps in history (QN), initial steepest desc. (CG)
   ISIF   =      2    stress and relaxation
   IWAVPR =     10    prediction:  0-non 1-charg 2-wave 3-comb
   ISYM   =      2    0-nonsym 1-usesym 2-fastsym
   LCORR  =      T    Harris-Foulkes like correction to forces

   POTIM  = 0.5000    time-step for ionic-motion
   TEIN   =    0.0    initial temperature
   TEBEG  =    0.0;   TEEND  =   0.0 temperature during run
   SMASS  =  -3.00    Nose mass-parameter (am)
   estimated Nose-frequenzy (Omega)   =  0.10E-29 period in steps = 0.13E+47 mass=  -0.292E-27a.u.
   SCALEE = 1.0000    scale energy and forces
   NPACO  =    256;   APACO  = 16.0  distance and # of slots for P.C.
   PSTRESS=    0.0 pullay stress

  Mass of Ions in am
   POMASS =  63.55
  Ionic Valenz
   ZVAL   =  17.00
  Atomic Wigner-Seitz radii
   RWIGS  =  -1.00
  virtual crystal weights 
   VCA    =   1.00
   NELECT =      68.0000    total number of electrons
   NUPDOWN=      -1.0000    fix difference up-down

 DOS related values:
   EMIN   =  10.00;   EMAX   =-10.00  energy-range for DOS
   EFERMI =   0.00
   ISMEAR =     1;   SIGMA  =   0.20  broadening in eV -4-tet -1-fermi 0-gaus

 Electronic relaxation 2 (details)
   IALGO  =     68    algorithm
   LDIAG  =      T    sub-space diagonalisation (order eigenvalues)
   LSUBROT=      F    optimize rotation matrix (better conditioning)
   TURBO    =      0    0=normal 1=particle mesh
   IRESTART =      0    0=no restart 2=restart with 2 vectors
   NREBOOT  =      0    no. of reboots
   NMIN     =      0    reboot dimension
   EREF     =   0.00    reference energy to select bands
   IMIX   =      4    mixing-type and parameters
     AMIX     =   0.40;   BMIX     =  1.00
     AMIX_MAG =   1.60;   BMIX_MAG =  1.00
     AMIN     =   0.10
     WC   =   100.;   INIMIX=   1;  MIXPRE=   1;  MAXMIX= -45

 Intra band minimization:
   WEIMIN = 0.0000     energy-eigenvalue tresh-hold
   EBREAK =  0.63E-10  absolut break condition
   DEPER  =   0.30     relativ break condition  

   TIME   =   0.40     timestep for ELM

  volume/ion in A,a.u.               =      11.56        78.01
  Fermi-wavevector in a.u.,A,eV,Ry     =   1.861656  3.518020 47.154573  3.465763
  Thomas-Fermi vector in A             =   2.909401

 Write flags
   LWAVE        =      F    write WAVECAR
   LDOWNSAMPLE  =      F    k-point downsampling of WAVECAR
   LCHARG       =      T    write CHGCAR
   LVTOT        =      F    write LOCPOT, total local potential
   LVHAR        =      F    write LOCPOT, Hartree potential only
   LELF         =      F    write electronic localiz. function (ELF)
   LORBIT       =     11    0 simple, 1 ext, 2 COOP (PROOUT), +10 PAW based schemes


 Dipole corrections
   LMONO  =      F    monopole corrections only (constant potential shift)
   LDIPOL =      F    correct potential (dipole corrections)
   IDIPOL =      0    1-x, 2-y, 3-z, 4-all directions 
   EPSILON=  1.0000000 bulk dielectric constant

 Exchange correlation treatment:
   GGA     =    --    GGA type
   LEXCH   =     8    internal setting for exchange type
   VOSKOWN=      0    Vosko Wilk Nusair interpolation
   LHFCALC =     F    Hartree Fock is set to
   LHFONE  =     F    Hartree Fock one center treatment
   AEXX    =    0.0000 exact exchange contribution

 Linear response parameters
   LEPSILON=     F    determine dielectric tensor
   LRPA    =     F    only Hartree local field effects (RPA)
   LNABLA  =     F    use nabla operator in PAW spheres
   LVEL    =     F    velocity operator in full k-point grid
   LINTERFAST=   F  fast interpolation
   KINTER  =     0    interpolate to denser k-point grid
   CSHIFT  =0.1000    complex shift for real part using Kramers Kronig
   OMEGAMAX=  -1.0    maximum frequency
   DEG_THRESHOLD= 0.2000000E-02 threshold for treating states as degnerate
   RTIME   =   -0.100 relaxation time in fs
  (WPLASMAI=    0.000 imaginary part of plasma frequency in eV, 0.658/RTIME)
   DFIELD  = 0.0000000 0.0000000 0.0000000 field for delta impulse in time

 Orbital magnetization related:
   ORBITALMAG=     F  switch on orbital magnetization
   LCHIMAG   =     F  perturbation theory with respect to B field
   DQ        =  0.001000  dq finite difference perturbation B field
   LLRAUG    =     F  two centre corrections for induced B field



--------------------------------------------------------------------------------------------------------


 Static calculation
 charge density and potential will be updated during run
 non-spin polarized calculation
 RMM-DIIS sequential band-by-band and
  variant of blocked Davidson during initial phase
 perform sub-space diagonalisation
    before iterative eigenvector-optimisation
 modified Broyden-mixing scheme, WC =      100.0
 initial mixing is a Kerker type mixing with AMIX =  0.4000 and BMIX =      1.0000
 Hartree-type preconditioning will be used
 using additional bands            6
 reciprocal scheme for non local part
 use partial core corrections
 calculate Harris-corrections to forces   (improved forces if not selfconsistent)
 use gradient corrections 
 use of overlap-Matrix (Vanderbilt PP)
 Methfessel and Paxton  Order N= 1 SIGMA  =   0.20


--------------------------------------------------------------------------------------------------------


  energy-cutoff  :      520.00
  volume of cell :       46.24
      direct lattice vectors                 reciprocal lattice vectors
     3.577430672  0.000000000  0.000000000     0.279530225 -0.000000000  0.000000000
     0.000000000  3.577430672  0.000000000     0.000000000  0.279530225  0.000000000
     0.000000000  0.000000000  3.613204978    -0.000000000 -0.000000000  0.276762599

  length of vectors
     3.577430672  3.577430672  3.613204978     0.279530225  0.279530225  0.276762599



 k-points in units of 2pi/SCALE and weight: # Generated by Masgent for elastic const
   0.00000000  0.00000000  0.00000000       0.001
   0.02329419  0.00000000  0.00000000       0.002
   0.04658837  0.00000000  0.00000000       0.002
   0.06988256  0.00000000  0.00000000       0.002
   0.09317674  0.00000000  0.00000000       0.002
   0.11647093  0.00000000  0.00000000       0.002
   0.13976511  0.00000000  0.00000000       0.001
   0.02329419  0.02329419  0.00000000       0.002
   0.04658837  0.02329419  0.00000000       0.005
   0.06988256  0.02329419  0.00000000       0.005
   0.09317674  0.02329419  0.00000000       0.005
   0.11647093  0.02329419  0.00000000       0.005
   0.13976511  0.02329419  0.00000000       0.002
   0.04658837  0.04658837  0.00000000       0.002
   0.06988256  0.04658837  0.00000000       0.005
   0.09317674  0.04658837  0.00000000       0.005
   0.11647093  0.04658837  0.00000000       0.005
   0.13976511  0.04658837  0.00000000       0.002
   0.06988256  0.06988256  0.00000000       0.002
   0.09317674  0.06988256  0.00000000       0.005
   0.11647093  0.06988256  0.00000000       0.005
   0.13976511  0.06988256  0.00000000       0.002
   0.09317674  0.09317674  0.00000000       0.002
   0.11647093  0.09317674  0.00000000       0.005
   0.13976511  0.09317674  0.00000000       0.002
   0.11647093  0.11647093  0.00000000       0.002
   0.13976511  0.11647093  0.00000000       0.002
   0.13976511  0.13976511  0.00000000       0.001
   0.00000000  0.00000000  0.02306355       0.001
   0.02329419  0.00000000  0.02306355       0.005
   0.04658837  0.00000000  0.02306355       0.005
   0.06988256  0.00000000  0.02306355       0.005
   0.09317674  0.00000000  0.02306355       0.005
   0.11647093  0.00000000  0.02306355       0.005
   0.13976511  0.00000000  0.02306355       0.002
   0.02329419  0.02329419  0.02306355       0.005
   0.04658837  0.02329419  0.02306355       0.009
   0.06988256  0.02329419  0.02306355       0.009
   0.09317674  0.02329419  0.02306355       0.009
   0.11647093  0.02329419  0.02306355       0.009
   0.13976511  0.02329419  0.02306355       0.005
   0.04658837  0.04658837  0.02306355       0.005
   0.06988256  0.04658837  0.02306355       0.009
   0.09317674  0.04658837  0.02306355       0.009
   0.11647093  0.04658837  0.02306355       0.009
   0.13976511  0.04658837  0.02306355       0.005
   0.06988256  0.06988256  0.02306355       0.005
   0.09317674  0.06988256  0.02306355       0.009
   0.11647093  0.06988256  0.02306355       0.009
   0.13976511  0.06988256  0.02306355       0.005
   0.09317674  0.09317674  0.02306355       0.005
   0.11647093  0.09317674  0.02306355       0.009
   0.13976511  0.09317674  0.02306355       0.005
   0.11647093  0.11647093  0.02306355       0.005
   0.13976511  0.11647093  0.02306355       0.005
   0.13976511  0.13976511  0.02306355       0.001
   0.00000000  0.00000000  0.04612710       0.001
   0.02329419  0.00000000  0.04612710       0.005
   0.04658837  0.00000000  0.04612710       0.005
   0.06988256  0.00000000  0.04612710       0.005
   0.09317674  0.00000000  0.04612710       0.005
   0.11647093  0.00000000  0.04612710       0.005
   0.13976511  0.00000000  0.04612710       0.002
   0.02329419  0.02329419  0.04612710       0.005
   0.04658837  0.02329419  0.04612710       0.009
   0.06988256  0.02329419  0.04612710       0.009
   0.09317674  0.02329419  0.04612710       0.009
   0.11647093  0.02329419  0.04612710       0.009
   0.13976511  0.02329419  0.04612710       0.005
   0.04658837  0.04658837  0.04612710       0.005
   0.06988256  0.04658837  0.04612710       0.009
   0.09317674  0.04658837  0.04612710       0.009
   0.11647093  0.04658837  0.04612710       0.009
   0.13976511  0.04658837  0.04612710       0.005
   0.06988256  0.06988256  0.04612710       0.005
   0.09317674  0.06988256  0.04612710       0.009
   0.11647093  0.06988256  0.04612710       0.009
   0.13976511  0.06988256  0.04612710       0.005
   0.09317674  0.09317674  0.04612710       0.005
   0.11647093  0.09317674  0.04612710       0.009
   0.13976511  0.09317674  0.04612710       0.005
   0.11647093  0.11647093  0.04612710       0.005
   0.13976511  0.11647093  0.04612710       0.005
   0.13976511  0.13976511  0.04612710       0.001
   0.00000000  0.00000000  0.06919065       0.001
   0.02329419  0.00000000  0.06919065       0.005
   0.04658837  0.00000000  0.06919065       0.005
   0.06988256  0.00000000  0.06919065       0.005
   0.09317674  0.00000000  0.06919065       0.005
   0.11647093  0.00000000  0.06919065       0.005
   0.13976511  0.00000000  0.06919065       0.002
   0.02329419  0.02329419  0.06919065       0.005
   0.04658837  0.02329419  0.06919065       0.009
   0.06988256  0.02329419  0.06919065       0.009
   0.09317674  0.02329419  0.06919065       0.009
   0.11647093  0.02329419  0.06919065       0.009
   0.13976511  0.02329419  0.06919065       0.005
   0.04658837  0.04658837  0.06919065       0.005
   0.06988256  0.04658837  0.06919065       0.009
   0.09317674  0.04658837  0.06919065       0.009
   0.11647093  0.04658837  0.06919065       0.009
   0.13976511  0.04658837  0.06919065       0.005
   0.06988256  0.06988256  0.06919065       0.005
   0.09317674  0.06988256  0.06919065       0.009
   0.11647093  0.06988256  0.06919065       0.009
   0.13976511  0.06988256  0.06919065       0.005
   0.09317674  0.09317674  0.06919065       0.005
   0.11647093  0.09317674  0.06919065       0.009
   0.13976511  0.09317674  0.06919065       0.005
   0.11647093  0.11647093  0.06919065       0.005
   0.13976511  0.11647093  0.06919065       0.005
   0.13976511  0.13976511  0.06919065       0.001
   0.00000000  0.00000000  0.09225420       0.001
   0.02329419  0.00000000  0.09225420       0.005
   0.04658837  0.00000000  0.09225420       0.005
   0.06988256  0.00000000  0.09225420       0.005
   0.09317674  0.00000000  0.09225420       0.005
   0.11647093  0.00000000  0.09225420       0.005
   0.13976511  0.00000000  0.09225420       0.002
   0.02329419  0.02329419  0.09225420       0.005
   0.04658837  0.02329419  0.09225420       0.009
   0.06988256  0.02329419  0.09225420       0.009
   0.09317674  0.02329419  0.09225420       0.009
   0.11647093  0.02329419  0.09225420       0.009
   0.13976511  0.02329419  0.09225420       0.005
   0.04658837  0.04658837  0.09225420       0.005
   0.06988256  0.04658837  0.09225420       0.009
   0.09317674  0.04658837  0.09225420       0.009
   0.11647093  0.04658837  0.09225420       0.009
   0.13976511  0.04658837  0.09225420       0.005
   0.06988256  0.06988256  0.09225420       0.005
   0.09317674  0.06988256  0.09225420       0.009
   0.11647093  0.06988256  0.09225420       0.009
   0.13976511  0.06988256  0.09225420       0.005
   0.09317674  0.09317674  0.09225420       0.005
   0.11647093  0.09317674  0.09225420       0.009
   0.13976511  0.09317674  0.09225420       0.005
   0.11647093  0.11647093  0.09225420       0.005
   0.13976511  0.11647093  0.09225420       0.005
   0.13976511  0.13976511  0.09225420       0.001
   0.00000000  0.00000000  0.11531775       0.001
   0.02329419  0.00000000  0.11531775       0.005
   0.04658837  0.00000000  0.11531775       0.005
   0.06988256  0.00000000  0.11531775       0.005
   0.09317674  0.00000000  0.11531775       0.005
   0.11647093  0.00000000  0.11531775       0.005
   0.13976511  0.00000000  0.11531775       0.002
   0.02329419  0.02329419  0.11531775       0.005
   0.04658837  0.02329419  0.11531775       0.009
   0.06988256  0.02329419  0.11531775       0.009
   0.09317674  0.02329419  0.11531775       0.009
   0.11647093  0.02329419  0.11531775       0.009
   0.13976511  0.02329419  0.11531775       0.005
   0.04658837  0.04658837  0.11531775       0.005
   0.06988256  0.04658837  0.11531775       0.009
   0.09317674  0.04658837  0.11531775       0.009
   0.11647093  0.04658837  0.11531775       0.009
   0.13976511  0.04658837  0.11531775       0.005
   0.06988256  0.06988256  0.11531775       0.005
   0.09317674  0.06988256  0.11531775       0.009
   0.11647093  0.06988256  0.11531775       0.009
   0.13976511  0.06988256  0.11531775       0.005
   0.09317674  0.09317674  0.11531775       0.005
   0.11647093  0.09317674  0.11531775       0.009
   0.13976511  0.09317674  0.11531775       0.005
   0.11647093  0.11647093  0.11531775       0.005
   0.13976511  0.11647093  0.11531775       0.005
   0.13976511  0.13976511  0.11531775       0.001
   0.00000000  0.00000000  0.13838130       0.001
   0.02329419  0.00000000  0.13838130       0.002
   0.04658837  0.00000000  0.13838130       0.002
   0.06988256  0.00000000  0.13838130       0.002
   0.09317674  0.00000000  0.13838130       0.002
   0.11647093  0.00000000  0.13838130       0.002
   0.13976511  0.00000000  0.13838130       0.001
   0.02329419  0.02329419  0.13838130       0.002
   0.04658837  0.02329419  0.13838130       0.005
   0.06988256  0.02329419  0.13838130       0.005
   0.09317674  0.02329419  0.13838130       0.005
   0.11647093  0.02329419  0.13838130       0.005
   0.13976511  0.02329419  0.13838130       0.002
   0.04658837  0.04658837  0.13838130       0.002
   0.06988256  0.04658837  0.13838130       0.005
   0.09317674  0.04658837  0.13838130       0.005
   0.11647093  0.04658837  0.13838130       0.005
   0.13976511  0.04658837  0.13838130       0.002
   0.06988256  0.06988256  0.13838130       0.002
   0.09317674  0.06988256  0.13838130       0.005
   0.11647093  0.06988256  0.13838130       0.005
   0.13976511  0.06988256  0.13838130       0.002
   0.09317674  0.09317674  0.13838130       0.002
   0.11647093  0.09317674  0.13838130       0.005
   0.13976511  0.09317674  0.13838130       0.002
   0.11647093  0.11647093  0.13838130       0.002
   0.13976511  0.11647093  0.13838130       0.002
   0.13976511  0.13976511  0.13838130       0.001

 k-points in reciprocal lattice and weights: # Generated by Masgent for elastic const
   0.00000000  0.00000000  0.00000000       0.001
   0.08333333  0.00000000  0.00000000       0.002
   0.16666667  0.00000000  0.00000000       0.002
   0.25000000  0.00000000  0.00000000       0.002
   0.33333333  0.00000000  0.00000000       0.002
   0.41666667  0.00000000  0.00000000       0.002
   0.50000000  0.00000000  0.00000000       0.001
   0.08333333  0.08333333  0.00000000       0.002
   0.16666667  0.08333333  0.00000000       0.005
   0.25000000  0.08333333  0.00000000       0.005
   0.33333333  0.08333333  0.00000000       0.005
   0.41666667  0.08333333  0.00000000       0.005
   0.50000000  0.08333333  0.00000000       0.002
   0.16666667  0.16666667  0.00000000       0.002
   0.25000000  0.16666667  0.00000000       0.005
   0.33333333  0.16666667  0.00000000       0.005
   0.41666667  0.16666667  0.00000000       0.005
   0.50000000  0.16666667  0.00000000       0.002
   0.25000000  0.25000000  0.00000000       0.002
   0.33333333  0.25000000  0.00000000       0.005
   0.41666667  0.25000000  0.00000000       0.005
   0.50000000  0.25000000  0.00000000       0.002
   0.33333333  0.33333333  0.00000000       0.002
   0.41666667  0.33333333  0.00000000       0.005
   0.50000000  0.33333333  0.00000000       0.002
   0.41666667  0.41666667  0.00000000       0.002
   0.50000000  0.41666667  0.00000000       0.002
   0.50000000  0.50000000  0.00000000       0.001
   0.00000000  0.00000000  0.08333333       0.001
   0.08333333  0.00000000  0.08333333       0.005
   0.16666667  0.00000000  0.08333333       0.005
   0.25000000  0.00000000  0.08333333       0.005
   0.33333333  0.00000000  0.08333333       0.005
   0.41666667  0.00000000  0.08333333       0.005
   0.50000000  0.00000000  0.08333333       0.002
   0.08333333  0.08333333  0.08333333       0.005
   0.16666667  0.08333333  0.08333333       0.009
   0.25000000  0.08333333  0.08333333       0.009
   0.33333333  0.08333333  0.08333333       0.009
   0.41666667  0.08333333  0.08333333       0.009
   0.50000000  0.08333333  0.08333333       0.005
   0.16666667  0.16666667  0.08333333       0.005
   0.25000000  0.16666667  0.08333333       0.009
   0.33333333  0.16666667  0.08333333       0.009
   0.41666667  0.16666667  0.08333333       0.009
   0.50000000  0.16666667  0.08333333       0.005
   0.25000000  0.25000000  0.08333333       0.005
   0.33333333  0.25000000  0.08333333       0.009
   0.41666667  0.25000000  0.08333333       0.009
   0.50000000  0.25000000  0.08333333       0.005
   0.33333333  0.33333333  0.08333333       0.005
   0.41666667  0.33333333  0.08333333       0.009
   0.50000000  0.33333333  0.08333333       0.005
   0.41666667  0.41666667  0.08333333       0.005
   0.50000000  0.41666667  0.08333333       0.005
   0.50000000  0.50000000  0.08333333       0.001
   0.00000000  0.00000000  0.16666667       0.001
   0.08333333  0.00000000  0.16666667       0.005
   0.16666667  0.00000000  0.16666667       0.005
   0.25000000  0.00000000  0.16666667       0.005
   0.33333333  0.00000000  0.16666667       0.005
   0.41666667  0.00000000  0.16666667       0.005
   0.50000000  0.00000000  0.16666667       0.002
   0.08333333  0.08333333  0.16666667       0.005
   0.16666667  0.08333333  0.16666667       0.009
   0.25000000  0.08333333  0.16666667       0.009
   0.33333333  0.08333333  0.16666667       0.009
   0.41666667  0.08333333  0.16666667       0.009
   0.50000000  0.08333333  0.16666667       0.005
   0.16666667  0.16666667  0.16666667       0.005
   0.25000000  0.16666667  0.16666667       0.009
   0.33333333  0.16666667  0.16666667       0.009
   0.41666667  0.16666667  0.16666667       0.009
   0.50000000  0.16666667  0.16666667       0.005
   0.25000000  0.25000000  0.16666667       0.005
   0.33333333  0.25000000  0.16666667       0.009
   0.41666667  0.25000000  0.16666667       0.009
   0.50000000  0.25000000  0.16666667       0.005
   0.33333333  0.33333333  0.16666667       0.005
   0.41666667  0.33333333  0.16666667       0.009
   0.50000000  0.33333333  0.16666667       0.005
   0.41666667  0.41666667  0.16666667       0.005
   0.50000000  0.41666667  0.16666667       0.005
   0.50000000  0.50000000  0.16666667       0.001
   0.00000000  0.00000000  0.25000000       0.001
   0.08333333  0.00000000  0.25000000       0.005
   0.16666667  0.00000000  0.25000000       0.005
   0.25000000  0.00000000  0.25000000       0.005
   0.33333333  0.00000000  0.25000000       0.005
   0.41666667  0.00000000  0.25000000       0.005
   0.50000000  0.00000000  0.25000000       0.002
   0.08333333  0.08333333  0.25000000       0.005
   0.16666667  0.08333333  0.25000000       0.009
   0.25000000  0.08333333  0.25000000       0.009
   0.33333333  0.08333333  0.25000000       0.009
   0.41666667  0.08333333  0.25000000       0.009
   0.50000000  0.08333333  0.25000000       0.005
   0.16666667  0.16666667  0.25000000       0.005
   0.25000000  0.16666667  0.25000000       0.009
   0.33333333  0.16666667  0.25000000       0.009
   0.41666667  0.16666667  0.25000000       0.009
   0.50000000  0.16666667  0.25000000       0.005
   0.25000000  0.25000000  0.25000000       0.005
   0.33333333  0.25000000  0.25000000       0.009
   0.41666667  0.25000000  0.25000000       0.009
   0.50000000  0.25000000  0.25000000       0.005
   0.33333333  0.33333333  0.25000000       0.005
   0.41666667  0.33333333  0.25000000       0.009
   0.50000000  0.33333333  0.25000000       0.005
   0.41666667  0.41666667  0.25000000       0.005
   0.50000000  0.41666667  0.25000000       0.005
   0.50000000  0.50000000  0.25000000       0.001
   0.00000000  0.00000000  0.33333333       0.001
   0.08333333  0.00000000  0.33333333       0.005
   0.16666667  0.00000000  0.33333333       0.005
   0.25000000  0.00000000  0.33333333       0.005
   0.33333333  0.00000000  0.33333333       0.005
   0.41666667  0.00000000  0.33333333       0.005
   0.50000000  0.00000000  0.33333333       0.002
   0.08333333  0.08333333  0.33333333       0.005
   0.16666667  0.08333333  0.33333333       0.009
   0.25000000  0.08333333  0.33333333       0.009
   0.33333333  0.08333333  0.33333333       0.009
   0.41666667  0.08333333  0.33333333       0.009
   0.50000000  0.08333333  0.33333333       0.005
   0.16666667  0.16666667  0.33333333       0.005
   0.25000000  0.16666667  0.33333333       0.009
   0.33333333  0.16666667  0.33333333       0.009
   0.41666667  0.16666667  0.33333333       0.009
   0.50000000  0.16666667  0.33333333       0.005
   0.25000000  0.25000000  0.33333333       0.005
   0.33333333  0.25000000  0.33333333       0.009
   0.41666667  0.25000000  0.33333333       0.009
   0.50000000  0.25000000  0.33333333       0.005
   0.33333333  0.33333333  0.33333333       0.005
   0.41666667  0.33333333  0.33333333       0.009
   0.50000000  0.33333333  0.33333333       0.005
   0.41666667  0.41666667  0.33333333       0.005
   0.50000000  0.41666667  0.33333333       0.005
   0.50000000  0.50000000  0.33333333       0.001
   0.00000000  0.00000000  0.41666667       0.001
   0.08333333  0.00000000  0.41666667       0.005
   0.16666667  0.00000000  0.41666667       0.005
   0.25000000  0.00000000  0.41666667       0.005
   0.33333333  0.00000000  0.41666667       0.005
   0.41666667  0.00000000  0.41666667       0.005
   0.50000000  0.00000000  0.41666667       0.002
   0.08333333  0.08333333  0.41666667       0.005
   0.16666667  0.08333333  0.41666667       0.009
   0.25000000  0.08333333  0.41666667       0.009
   0.33333333  0.08333333  0.41666667       0.009
   0.41666667  0.08333333  0.41666667       0.009
   0.50000000  0.08333333  0.41666667       0.005
   0.16666667  0.16666667  0.41666667       0.005
   0.25000000  0.16666667  0.41666667       0.009
   0.33333333  0.16666667  0.41666667       0.009
   0.41666667  0.16666667  0.41666667       0.009
   0.50000000  0.16666667  0.41666667       0.005
   0.25000000  0.25000000  0.41666667       0.005
   0.33333333  0.25000000  0.41666667       0.009
   0.41666667  0.25000000  0.41666667       0.009
   0.50000000  0.25000000  0.41666667       0.005
   0.33333333  0.33333333  0.41666667       0.005
   0.41666667  0.33333333  0.41666667       0.009
   0.50000000  0.33333333  0.41666667       0.005
   0.41666667  0.41666667  0.41666667       0.005
   0.50000000  0.41666667  0.41666667       0.005
   0.50000000  0.50000000  0.41666667       0.001
   0.00000000  0.00000000  0.50000000       0.001
   0.08333333  0.00000000  0.50000000       0.002
   0.16666667  0.00000000  0.50000000       0.002
   0.25000000  0.00000000  0.50000000       0.002
   0.33333333  0.00000000  0.50000000       0.002
   0.41666667  0.00000000  0.50000000       0.002
   0.50000000  0.00000000  0.50000000       0.001
   0.08333333  0.08333333  0.50000000       0.002
   0.16666667  0.08333333  0.50000000       0.005
   0.25000000  0.08333333  0.50000000       0.005
   0.33333333  0.08333333  0.50000000       0.005
   0.41666667  0.08333333  0.50000000       0.005
   0.50000000  0.08333333  0.50000000       0.002
   0.16666667  0.16666667  0.50000000       0.002
   0.25000000  0.16666667  0.50000000       0.005
   0.33333333  0.16666667  0.50000000       0.005
   0.41666667  0.16666667  0.50000000       0.005
   0.50000000  0.16666667  0.50000000       0.002
   0.25000000  0.25000000  0.50000000       0.002
   0.33333333  0.25000000  0.50000000       0.005
   0.41666667  0.25000000  0.50000000       0.005
   0.50000000  0.25000000  0.50000000       0.002
   0.33333333  0.33333333  0.50000000       0.002
   0.41666667  0.33333333  0.50000000       0.005
   0.50000000  0.33333333  0.50000000       0.002
   0.41666667  0.41666667  0.50000000       0.002
   0.50000000  0.41666667  0.50000000       0.002
   0.50000000  0.50000000  0.50000000       0.001

 position of ions in fractional coordinates (direct lattice) 
   0.00000000  0.00000000  0.00000000
   0.00000000  0.50000000  0.50000000
   0.50000000  0.00000000  0.50000000
   0.50000000  0.50000000  0.00000000

 position of ions in cartesian coordinates  (Angst):
   0.00000000  0.00000000  0.00000000
   0.00000000  1.78871534  1.80660249
   1.78871534  0.00000000  1.80660249
   1.78871534  1.78871534  0.00000000



--------------------------------------------------------------------------------------------------------


 k-point   1 :   0.0000 0.0000 0.0000  plane waves:    1237
 k-point   2 :   0.0833 0.0000 0.0000  plane waves:    1251
 k-point   3 :   0.1667 0.0000 0.0000  plane waves:    1265
 k-point   4 :   0.2500 0.0000 0.0000  plane waves:    1253
 k-point   5 :   0.3333 0.0000 0.0000  plane waves:    1235
 k-point   6 :   0.4167 0.0000 0.0000  plane waves:    1232
 k-point   7 :   0.5000 0.0000 0.0000  plane waves:    1238
 k-point   8 :   0.0833 0.0833 0.0000  plane waves:    1259
 k-point   9 :   0.1667 0.0833 0.0000  plane waves:    1260
 k-point  10 :   0.2500 0.0833 0.0000  plane waves:    1260
 k-point  11 :   0.3333 0.0833 0.0000  plane waves:    1242
 k-point  12 :   0.4167 0.0833 0.0000  plane waves:    1238
 k-point  13 :   0.5000 0.0833 0.0000  plane waves:    1238
 k-point  14 :   0.1667 0.1667 0.0000  plane waves:    1265
 k-point  15 :   0.2500 0.1667 0.0000  plane waves:    1254
 k-point  16 :   0.3333 0.1667 0.0000  plane waves:    1245
 k-point  17 :   0.4167 0.1667 0.0000  plane waves:    1234
 k-point  18 :   0.5000 0.1667 0.0000  plane waves:    1242
 k-point  19 :   0.2500 0.2500 0.0000  plane waves:    1247
 k-point  20 :   0.3333 0.2500 0.0000  plane waves:    1247
 k-point  21 :   0.4167 0.2500 0.0000  plane waves:    1241
 k-point  22 :   0.5000 0.2500 0.0000  plane waves:    1242
 k-point  23 :   0.3333 0.3333 0.0000  plane waves:    1250
 k-point  24 :   0.4167 0.3333 0.0000  plane waves:    1246
 k-point  25 :   0.5000 0.3333 0.0000  plane waves:    1240
 k-point  26 :   0.4167 0.4167 0.0000  plane waves:    1246
 k-point  27 :   0.5000 0.4167 0.0000  plane waves:    1242
 k-point  28 :   0.5000 0.5000 0.0000  plane waves:    1244
 k-point  29 :   0.0000 0.0000 0.0833  plane waves:    1245
 k-point  30 :   0.0833 0.0000 0.0833  plane waves:    1254
 k-point  31 :   0.1667 0.0000 0.0833  plane waves:    1260
 k-point  32 :   0.2500 0.0000 0.0833  plane waves:    1251
 k-point  33 :   0.3333 0.0000 0.0833  plane waves:    1239
 k-point  34 :   0.4167 0.0000 0.0833  plane waves:    1238
 k-point  35 :   0.5000 0.0000 0.0833  plane waves:    1236
 k-point  36 :   0.0833 0.0833 0.0833  plane waves:    1253
 k-point  37 :   0.1667 0.0833 0.0833  plane waves:    1263
 k-point  38 :   0.2500 0.0833 0.0833  plane waves:    1257
 k-point  39 :   0.3333 0.0833 0.0833  plane waves:    1242
 k-point  40 :   0.4167 0.0833 0.0833  plane waves:    1237
 k-point  41 :   0.5000 0.0833 0.0833  plane waves:    1240
 k-point  42 :   0.1667 0.1667 0.0833  plane waves:    1255
 k-point  43 :   0.2500 0.1667 0.0833  plane waves:    1252
 k-point  44 :   0.3333 0.1667 0.0833  plane waves:    1239
 k-point  45 :   0.4167 0.1667 0.0833  plane waves:    1239
 k-point  46 :   0.5000 0.1667 0.0833  plane waves:    1236
 k-point  47 :   0.2500 0.2500 0.0833  plane waves:    1246
 k-point  48 :   0.3333 0.2500 0.0833  plane waves:    1242
 k-point  49 :   0.4167 0.2500 0.0833  plane waves:    1243
 k-point  50 :   0.5000 0.2500 0.0833  plane waves:    1252
 k-point  51 :   0.3333 0.3333 0.0833  plane waves:    1248
 k-point  52 :   0.4167 0.3333 0.0833  plane waves:    1245
 k-point  53 :   0.5000 0.3333 0.0833  plane waves:    1242
 k-point  54 :   0.4167 0.4167 0.0833  plane waves:    1240
 k-point  55 :   0.5000 0.4167 0.0833  plane waves:    1236
 k-point  56 :   0.5000 0.5000 0.0833  plane waves:    1248
 k-point  57 :   0.0000 0.0000 0.1667  plane waves:    1257
 k-point  58 :   0.0833 0.0000 0.1667  plane waves:    1256
 k-point  59 :   0.1667 0.0000 0.1667  plane waves:    1257
 k-point  60 :   0.2500 0.0000 0.1667  plane waves:    1254
 k-point  61 :   0.3333 0.0000 0.1667  plane waves:    1241
 k-point  62 :   0.4167 0.0000 0.1667  plane waves:    1240
 k-point  63 :   0.5000 0.0000 0.1667  plane waves:    1248
 k-point  64 :   0.0833 0.0833 0.1667  plane waves:    1266
 k-point  65 :   0.1667 0.0833 0.1667  plane waves:    1257
 k-point  66 :   0.2500 0.0833 0.1667  plane waves:    1247
 k-point  67 :   0.3333 0.0833 0.1667  plane waves:    1239
 k-point  68 :   0.4167 0.0833 0.1667  plane waves:    1243
 k-point  69 :   0.5000 0.0833 0.1667  plane waves:    1240
 k-point  70 :   0.1667 0.1667 0.1667  plane waves:    1253
 k-point  71 :   0.2500 0.1667 0.1667  plane waves:    1243
 k-point  72 :   0.3333 0.1667 0.1667  plane waves:    1245
 k-point  73 :   0.4167 0.1667 0.1667  plane waves:    1246
 k-point  74 :   0.5000 0.1667 0.1667  plane waves:    1246
 k-point  75 :   0.2500 0.2500 0.1667  plane waves:    1243
 k-point  76 :   0.3333 0.2500 0.1667  plane waves:    1241
 k-point  77 :   0.4167 0.2500 0.1667  plane waves:    1242
 k-point  78 :   0.5000 0.2500 0.1667  plane waves:    1244
 k-point  79 :   0.3333 0.3333 0.1667  plane waves:    1239
 k-point  80 :   0.4167 0.3333 0.1667  plane waves:    1237
 k-point  81 :   0.5000 0.3333 0.1667  plane waves:    1240
 k-point  82 :   0.4167 0.4167 0.1667  plane waves:    1240
 k-point  83 :   0.5000 0.4167 0.1667  plane waves:    1240
 k-point  84 :   0.5000 0.5000 0.1667  plane waves:    1240
 k-point  85 :   0.0000 0.0000 0.2500  plane waves:    1253
 k-point  86 :   0.0833 0.0000 0.2500  plane waves:    1254
 k-point  87 :   0.1667 0.0000 0.2500  plane waves:    1254
 k-point  88 :   0.2500 0.0000 0.2500  plane waves:    1251
 k-point  89 :   0.3333 0.0000 0.2500  plane waves:    1245
 k-point  90 :   0.4167 0.0000 0.2500  plane waves:    1247
 k-point  91 :   0.5000 0.0000 0.2500  plane waves:    1244
 k-point  92 :   0.0833 0.0833 0.2500  plane waves:    1254
 k-point  93 :   0.1667 0.0833 0.2500  plane waves:    1251
 k-point  94 :   0.2500 0.0833 0.2500  plane waves:    1246
 k-point  95 :   0.3333 0.0833 0.2500  plane waves:    1243
 k-point  96 :   0.4167 0.0833 0.2500  plane waves:    1244
 k-point  97 :   0.5000 0.0833 0.2500  plane waves:    1246
 k-point  98 :   0.1667 0.1667 0.2500  plane waves:    1242
 k-point  99 :   0.2500 0.1667 0.2500  plane waves:    1239
 k-point 100 :   0.3333 0.1667 0.2500  plane waves:    1246
 k-point 101 :   0.4167 0.1667 0.2500  plane waves:    1242
 k-point 102 :   0.5000 0.1667 0.2500  plane waves:    1244
 k-point 103 :   0.2500 0.2500 0.2500  plane waves:    1248
 k-point 104 :   0.3333 0.2500 0.2500  plane waves:    1245
 k-point 105 :   0.4167 0.2500 0.2500  plane waves:    1241
 k-point 106 :   0.5000 0.2500 0.2500  plane waves:    1236
 k-point 107 :   0.3333 0.3333 0.2500  plane waves:    1245
 k-point 108 :   0.4167 0.3333 0.2500  plane waves:    1239
 k-point 109 :   0.5000 0.3333 0.2500  plane waves:    1238
 k-point 110 :   0.4167 0.4167 0.2500  plane waves:    1241
 k-point 111 :   0.5000 0.4167 0.2500  plane waves:    1234
 k-point 112 :   0.5000 0.5000 0.2500  plane waves:    1240
 k-point 113 :   0.0000 0.0000 0.3333  plane waves:    1238
 k-point 114 :   0.0833 0.0000 0.3333  plane waves:    1246
 k-point 115 :   0.1667 0.0000 0.3333  plane waves:    1243
 k-point 116 :   0.2500 0.0000 0.3333  plane waves:    1246
 k-point 117 :   0.3333 0.0000 0.3333  plane waves:    1256
 k-point 118 :   0.4167 0.0000 0.3333  plane waves:    1252
 k-point 119 :   0.5000 0.0000 0.3333  plane waves:    1252
 k-point 120 :   0.0833 0.0833 0.3333  plane waves:    1245
 k-point 121 :   0.1667 0.0833 0.3333  plane waves:    1243
 k-point 122 :   0.2500 0.0833 0.3333  plane waves:    1240
 k-point 123 :   0.3333 0.0833 0.3333  plane waves:    1246
 k-point 124 :   0.4167 0.0833 0.3333  plane waves:    1245
 k-point 125 :   0.5000 0.0833 0.3333  plane waves:    1246
 k-point 126 :   0.1667 0.1667 0.3333  plane waves:    1247
 k-point 127 :   0.2500 0.1667 0.3333  plane waves:    1246
 k-point 128 :   0.3333 0.1667 0.3333  plane waves:    1243
 k-point 129 :   0.4167 0.1667 0.3333  plane waves:    1240
 k-point 130 :   0.5000 0.1667 0.3333  plane waves:    1242
 k-point 131 :   0.2500 0.2500 0.3333  plane waves:    1249
 k-point 132 :   0.3333 0.2500 0.3333  plane waves:    1240
 k-point 133 :   0.4167 0.2500 0.3333  plane waves:    1237
 k-point 134 :   0.5000 0.2500 0.3333  plane waves:    1240
 k-point 135 :   0.3333 0.3333 0.3333  plane waves:    1238
 k-point 136 :   0.4167 0.3333 0.3333  plane waves:    1244
 k-point 137 :   0.5000 0.3333 0.3333  plane waves:    1244
 k-point 138 :   0.4167 0.4167 0.3333  plane waves:    1248
 k-point 139 :   0.5000 0.4167 0.3333  plane waves:    1252
 k-point 140 :   0.5000 0.5000 0.3333  plane waves:    1264
 k-point 141 :   0.0000 0.0000 0.4167  plane waves:    1242
 k-point 142 :   0.0833 0.0000 0.4167  plane waves:    1239
 k-point 143 :   0.1667 0.0000 0.4167  plane waves:    1235
 k-point 144 :   0.2500 0.0000 0.4167  plane waves:    1250
 k-point 145 :   0.3333 0.0000 0.4167  plane waves:    1247
 k-point 146 :   0.4167 0.0000 0.4167  plane waves:    1242
 k-point 147 :   0.5000 0.0000 0.4167  plane waves:    1252
 k-point 148 :   0.0833 0.0833 0.4167  plane waves:    1239
 k-point 149 :   0.1667 0.0833 0.4167  plane waves:    1244
 k-point 150 :   0.2500 0.0833 0.4167  plane waves:    1245
 k-point 151 :   0.3333 0.0833 0.4167  plane waves:    1247
 k-point 152 :   0.4167 0.0833 0.4167  plane waves:    1248
 k-point 153 :   0.5000 0.0833 0.4167  plane waves:    1248
 k-point 154 :   0.1667 0.1667 0.4167  plane waves:    1247
 k-point 155 :   0.2500 0.1667 0.4167  plane waves:    1248
 k-point 156 :   0.3333 0.1667 0.4167  plane waves:    1245
 k-point 157 :   0.4167 0.1667 0.4167  plane waves:    1247
 k-point 158 :   0.5000 0.1667 0.4167  plane waves:    1250
 k-point 159 :   0.2500 0.2500 0.4167  plane waves:    1244
 k-point 160 :   0.3333 0.2500 0.4167  plane waves:    1239
 k-point 161 :   0.4167 0.2500 0.4167  plane waves:    1247
 k-point 162 :   0.5000 0.2500 0.4167  plane waves:    1240
 k-point 163 :   0.3333 0.3333 0.4167  plane waves:    1244
 k-point 164 :   0.4167 0.3333 0.4167  plane waves:    1248
 k-point 165 :   0.5000 0.3333 0.4167  plane waves:    1244
 k-point 166 :   0.4167 0.4167 0.4167  plane waves:    1261
 k-point 167 :   0.5000 0.4167 0.4167  plane waves:    1254
 k-point 168 :   0.5000 0.5000 0.4167  plane waves:    1244
 k-point 169 :   0.0000 0.0000 0.5000  plane waves:    1238
 k-point 170 :   0.0833 0.0000 0.5000  plane waves:    1240
 k-point 171 :   0.1667 0.0000 0.5000  plane waves:    1244
 k-point 172 :   0.2500 0.0000 0.5000  plane waves:    1248
 k-point 173 :   0.3333 0.0000 0.5000  plane waves:    1252
 k-point 174 :   0.4167 0.0000 0.5000  plane waves:    1242
 k-point 175 :   0.5000 0.0000 0.5000  plane waves:    1240
 k-point 176 :   0.0833 0.0833 0.5000  plane waves:    1240
 k-point 177 :   0.1667 0.0833 0.5000  plane waves:    1246
 k-point 178 :   0.2500 0.0833 0.5000  plane waves:    1248
 k-point 179 :   0.3333 0.0833 0.5000  plane waves:    1246
 k-point 180 :   0.4167 0.0833 0.5000  plane waves:    1246
 k-point 181 :   0.5000 0.0833 0.5000  plane waves:    1244
 k-point 182 :   0.1667 0.1667 0.5000  plane waves:    1240
 k-point 183 :   0.2500 0.1667 0.5000  plane waves:    1242
 k-point 184 :   0.3333 0.1667 0.5000  plane waves:    1242
 k-point 185 :   0.4167 0.1667 0.5000  plane waves:    1240
 k-point 186 :   0.5000 0.1667 0.5000  plane waves:    1240
 k-point 187 :   0.2500 0.2500 0.5000  plane waves:    1234
 k-point 188 :   0.3333 0.2500 0.5000  plane waves:    1240
 k-point 189 :   0.4167 0.2500 0.5000  plane waves:    1246
 k-point 190 :   0.5000 0.2500 0.5000  plane waves:    1248
 k-point 191 :   0.3333 0.3333 0.5000  plane waves:    1250
 k-point 192 :   0.4167 0.3333 0.5000  plane waves:    1250
 k-point 193 :   0.5000 0.3333 0.5000  plane waves:    1248
 k-point 194 :   0.4167 0.4167 0.5000  plane waves:    1258
 k-point 195 :   0.5000 0.4167 0.5000  plane waves:    1264
 k-point 196 :   0.5000 0.5000 0.5000  plane waves:    1240

 maximum and minimum number of plane-waves per node :      1266     1232

 maximum number of plane-waves:      1266
 maximum index in each direction: 
   IXMAX=    6   IYMAX=    6   IZMAX=    6
   IXMIN=   -7   IYMIN=   -7   IZMIN=   -7


 serial   3D FFT for wavefunctions
 parallel 3D FFT for charge:
    minimum data exchange during FFTs selected (reduces bandwidth)


 total amount of memory used by VASP MPI-rank0   112620. kBytes
=======================================================================

   base      :      30000. kBytes
   nonl-proj :      35869. kBytes
   fftplans  :       1619. kBytes
   grid      :       3048. kBytes
   one-center:         62. kBytes
   wavefun   :      42022. kBytes

     INWAV:  cpu time    0.0000: real time    0.0002
 Broyden mixing: mesh for mixing (old mesh)
   NGX = 13   NGY = 13   NGZ = 13
  (NGX  = 56   NGY  = 56   NGZ  = 56)
  gives a total of   2197 points

 initial charge density was supplied:
 charge density of overlapping atoms calculated
 number of electron      68.0000000 magnetization 
 keeping initial charge density in first step


--------------------------------------------------------------------------------------------------------


 Maximum index for augmentation-charges         2275 (set IRDMAX)


--------------------------------------------------------------------------------------------------------


 First call to EWALD:  gamma=   0.494
 Maximum number of real-space cells 3x 3x 3
 Maximum number of reciprocal cells 3x 3x 3

    FEWALD:  cpu time    0.0005: real time    0.0005


--------------------------------------- Iteration      1(   1)  ---------------------------------------


    POTLOK:  cpu time    0.0186: real time    0.0187
    SETDIJ:  cpu time    0.0766: real time    0.0767
     EDDAV:  cpu time    4.8755: real time    4.8758
       DOS:  cpu time    0.0034: real time    0.0034
    --------------------------------------------
      LOOP:  cpu time    4.9742: real time    4.9746

 eigenvalue-minimisations  : 18072
 total energy-change (2. order) : 0.9083680E+03  (-0.4662083E+04)
 number of electron      68.0000000 magnetization 
 augmentation part       68.0000000 magnetization 

 Free energy of the ion-electron system (eV)
  ---------------------------------------------------
  alpha Z        PSCENC =       625.98352205
  Ewald energy   TEWEN  =    -10631.57985322
  -Hartree energ DENC   =     -5137.51798885
  -exchange      EXHF   =         0.00000000
  -V(xc)+E(xc)   XCENC  =       433.40976685
  PAW double counting   =     12922.79092432   -13518.70815821
  entropy T*S    EENTRO =        -0.00014888
  eigenvalues    EBANDS =      -262.55489654
  atomic energy  EATOM  =     16476.54478555
  Solvation  Ediel_sol  =         0.00000000
  ---------------------------------------------------
  free energy    TOTEN  =       908.36795305 eV

  energy without entropy =      908.36810194  energy(sigma->0) =      908.36800268


--------------------------------------------------------------------------------------------------------




--------------------------------------- Iteration      1(   2)  ---------------------------------------


     EDDAV:  cpu time    4.5983: real time    4.5987
       DOS:  cpu time    0.0029: real time    0.0030
    --------------------------------------------
      LOOP:  cpu time    4.6012: real time    4.6017

 eigenvalue-minimisations  : 16032
 total energy-change (2. order) :-0.8696691E+03  (-0.8500276E+03)
 number of electron      68.0000000 magnetization 
 augmentation part       68.0000000 magnetization 

 Free energy of the ion-electron system (eV)
  ---------------------------------------------------
  alpha Z        PSCENC =       625.98352205
  Ewald energy   TEWEN  =    -10631.57985322
  -Hartree energ DENC   =     -5137.51798885
  -exchange      EXHF   =         0.00000000
  -V(xc)+E(xc)   XCENC  =       433.40976685
  PAW double counting   =     12922.79092432   -13518.70815821
  entropy T*S    EENTRO =        -0.00202088
  eigenvalues    EBANDS =     -1132.22211768
  atomic energy  EATOM  =     16476.54478555
  Solvation  Ediel_sol  =         0.00000000
  ---------------------------------------------------
  free energy    TOTEN  =        38.69885992 eV

  energy without entropy =       38.70088081  energy(sigma->0) =       38.69953355


--------------------------------------------------------------------------------------------------------




--------------------------------------- Iteration      1(   3)  ---------------------------------------


     EDDAV:  cpu time    4.8716: real time    4.8789
       DOS:  cpu time    0.0028: real time    0.0029
    --------------------------------------------
      LOOP:  cpu time    4.8745: real time    4.8818

 eigenvalue-minimisations  : 17128
 total energy-change (2. order) :-0.5709093E+02  (-0.5502200E+02)
 number of electron      68.0000000 magnetization 
 augmentation part       68.0000000 magnetization 

 Free energy of the ion-electron system (eV)
  ---------------------------------------------------
  alpha Z        PSCENC =       625.98352205
  Ewald energy   TEWEN  =    -10631.57985322
  -Hartree energ DENC   =     -5137.51798885
  -exchange      EXHF   =         0.00000000
  -V(xc)+E(xc)   XCENC  =       433.40976685
  PAW double counting   =     12922.79092432   -13518.70815821
  entropy T*S    EENTRO =        -0.00006260
  eigenvalues    EBANDS =     -1189.31500753
  atomic energy  EATOM  =     16476.54478555
  Solvation  Ediel_sol  =         0.00000000
  ---------------------------------------------------
  free energy    TOTEN  =       -18.39207165 eV

  energy without entropy =      -18.39200905  energy(sigma->0) =      -18.39205078


--------------------------------------------------------------------------------------------------------




--------------------------------------- Iteration      1(   4)  ---------------------------------------


     EDDAV:  cpu time    4.7870: real time    4.7872
       DOS:  cpu time    0.0029: real time    0.0029
    --------------------------------------------
      LOOP:  cpu time    4.7898: real time    4.7902

 eigenvalue-minimisations  : 17160
 total energy-change (2. order) :-0.1383529E+01  (-0.1373643E+01)
 number of electron      68.0000000 magnetization 
 augmentation part       68.0000000 magnetization 

 Free energy of the ion-electron system (eV)
  ---------------------------------------------------
  alpha Z        PSCENC =       625.98352205
  Ewald energy   TEWEN  =    -10631.57985322
  -Hartree energ DENC   =     -5137.51798885
  -exchange      EXHF   =         0.00000000
  -V(xc)+E(xc)   XCENC  =       433.40976685
  PAW double counting   =     12922.79092432   -13518.70815821
  entropy T*S    EENTRO =         0.00016416
  eigenvalues    EBANDS =     -1190.69876350
  atomic energy  EATOM  =     16476.54478555
  Solvation  Ediel_sol  =         0.00000000
  ---------------------------------------------------
  free energy    TOTEN  =       -19.77560086 eV

  energy without entropy =      -19.77576502  energy(sigma->0) =      -19.77565558


--------------------------------------------------------------------------------------------------------




--------------------------------------- Iteration      1(   5)  ---------------------------------------


     EDDAV:  cpu time    5.2520: real time    5.2522
       DOS:  cpu time    0.0029: real time    0.0029
    CHARGE:  cpu time    0.5403: real time    0.5448
    MIXING:  cpu time    0.0005: real time    0.0005
    --------------------------------------------
      LOOP:  cpu time    5.7956: real time    5.8005

 eigenvalue-minimisations  : 19344
 total energy-change (2. order) :-0.4434278E-01  (-0.4434205E-01)
 number of electron      67.9999985 magnetization 
 augmentation part       41.5113712 magnetization 

 Broyden mixing:
  rms(total) = 0.16110E+01    rms(broyden)= 0.16106E+01
  rms(prec ) = 0.36954E+01
  weight for this iteration     100.00

 Free energy of the ion-electron system (eV)
  ---------------------------------------------------
  alpha Z        PSCENC =       625.98352205
  Ewald energy   TEWEN  =    -10631.57985322
  -Hartree energ DENC   =     -5137.51798885
  -exchange      EXHF   =         0.00000000
  -V(xc)+E(xc)   XCENC  =       433.40976685
  PAW double counting   =     12922.79092432   -13518.70815821
  entropy T*S    EENTRO =         0.00015763
  eigenvalues    EBANDS =     -1190.74309975
  atomic energy  EATOM  =     16476.54478555
  Solvation  Ediel_sol  =         0.00000000
  ---------------------------------------------------
  free energy    TOTEN  =       -19.81994364 eV

  energy without entropy =      -19.82010126  energy(sigma->0) =      -19.81999618


--------------------------------------------------------------------------------------------------------




--------------------------------------- Iteration      1(   6)  ---------------------------------------


    POTLOK:  cpu time    0.0146: real time    0.0148
    SETDIJ:  cpu time    0.0756: real time    0.0756
    EDDIAG:  cpu time    1.3402: real time    1.3403
  RMM-DIIS:  cpu time    3.5772: real time    3.5774
    ORTHCH:  cpu time    0.0726: real time    0.0726
       DOS:  cpu time    0.0028: real time    0.0028
    CHARGE:  cpu time    0.5281: real time    0.5281
    MIXING:  cpu time    0.0005: real time    0.0005
    --------------------------------------------
      LOOP:  cpu time    5.6117: real time    5.6122

 eigenvalue-minimisations  : 16021
 total energy-change (2. order) : 0.1940543E+01  (-0.3662931E+01)
 number of electron      67.9999985 magnetization 
 augmentation part       44.6032521 magnetization 

 Broyden mixing:
  rms(total) = 0.10502E+01    rms(broyden)= 0.10498E+01
  rms(prec ) = 0.20708E+01
  weight for this iteration     100.00

 eigenvalues of (default mixing * dielectric matrix)
  average eigenvalue GAMMA=   0.6061
  0.6061

 Free energy of the ion-electron system (eV)
  ---------------------------------------------------
  alpha Z        PSCENC =       625.98352205
  Ewald energy   TEWEN  =    -10631.57985322
  -Hartree energ DENC   =     -4920.42011806
  -exchange      EXHF   =         0.00000000
  -V(xc)+E(xc)   XCENC  =       425.50157823
  PAW double counting   =     12596.22224107   -13176.87953136
  entropy T*S    EENTRO =         0.00437316
  eigenvalues    EBANDS =     -1413.25639775
  atomic energy  EATOM  =     16476.54478555
  Solvation  Ediel_sol  =         0.00000000
  ---------------------------------------------------
  free energy    TOTEN  =       -17.87940035 eV

  energy without entropy =      -17.88377351  energy(sigma->0) =      -17.88085807


--------------------------------------------------------------------------------------------------------




--------------------------------------- Iteration      1(   7)  ---------------------------------------


    POTLOK:  cpu time    0.0148: real time    0.0150
    SETDIJ:  cpu time    0.0764: real time    0.0764
    EDDIAG:  cpu time    1.2913: real time    1.2914
  RMM-DIIS:  cpu time    3.5425: real time    3.5427
    ORTHCH:  cpu time    0.0828: real time    0.0828
       DOS:  cpu time    0.0025: real time    0.0026
    CHARGE:  cpu time    0.5325: real time    0.5325
    MIXING:  cpu time    0.0005: real time    0.0005
    --------------------------------------------
      LOOP:  cpu time    5.5433: real time    5.5439

 eigenvalue-minimisations  : 15719
 total energy-change (2. order) : 0.1476963E+01  (-0.6735860E+00)
 number of electron      67.9999985 magnetization 
 augmentation part       43.3650731 magnetization 

 Broyden mixing:
  rms(total) = 0.11861E+00    rms(broyden)= 0.11833E+00
  rms(prec ) = 0.27534E+00
  weight for this iteration     100.00

 eigenvalues of (default mixing * dielectric matrix)
  average eigenvalue GAMMA=   1.3108
  2.0050  0.6165

 Free energy of the ion-electron system (eV)
  ---------------------------------------------------
  alpha Z        PSCENC =       625.98352205
  Ewald energy   TEWEN  =    -10631.57985322
  -Hartree energ DENC   =     -4993.74779978
  -exchange      EXHF   =         0.00000000
  -V(xc)+E(xc)   XCENC  =       428.30731603
  PAW double counting   =     12742.93692101   -13343.33708744
  entropy T*S    EENTRO =         0.00311910
[...]
     25       4.2628      2.00000
     26       4.2628      2.00000
     27       4.2628      2.00000
     28       4.2628      2.00000
     29       5.3041      2.00000
     30       5.3041      2.00000
     31       5.3041      2.00000
     32       5.3041      2.00000
     33       6.7033      2.00501
     34       6.7033      2.00501
     35       6.7033      2.00501
     36       6.7033      2.00501
     37      12.9879      0.00000
     38      12.9879      0.00000
     39      12.9879      0.00000
     40      12.9879      0.00000

 k-point   191 :       0.3333    0.3333    0.5000
  band No.  band energies     occupation 
      1     -62.8150      2.00000
      2     -62.8150      2.00000
      3     -62.8071      2.00000
      4     -62.8071      2.00000
      5     -62.7375      2.00000
      6     -62.7375      2.00000
      7     -62.7284      2.00000
      8     -62.7284      2.00000
      9     -62.7252      2.00000
     10     -62.7252      2.00000
     11     -62.7234      2.00000
     12     -62.7234      2.00000
     13       1.7560      2.00000
     14       1.7560      2.00000
     15       2.3369      2.00000
     16       2.3369      2.00000
     17       3.7635      2.00000
     18       3.7635      2.00000
     19       3.9697      2.00000
     20       3.9697      2.00000
     21       4.2050      2.00000
     22       4.2050      2.00000
     23       4.2516      2.00000
     24       4.2516      2.00000
     25       4.2519      2.00000
     26       4.2519      2.00000
     27       4.3684      2.00000
     28       4.3684      2.00000
     29       5.4595      2.00000
     30       5.4595      2.00000
     31       5.4915      2.00000
     32       5.4915      2.00000
     33       5.8112      2.00000
     34       5.8112      2.00000
     35       7.9518     -0.00000
     36       7.9518     -0.00000
     37      11.2196     -0.00000
     38      11.2196     -0.00000
     39      13.8141      0.00000
     40      13.8141      0.00000

 k-point   192 :       0.4167    0.3333    0.5000
  band No.  band energies     occupation 
      1     -62.8171      2.00000
      2     -62.8171      2.00000
      3     -62.8126      2.00000
      4     -62.8126      2.00000
      5     -62.7318      2.00000
      6     -62.7318      2.00000
      7     -62.7264      2.00000
      8     -62.7264      2.00000
      9     -62.7261      2.00000
     10     -62.7261      2.00000
     11     -62.7227      2.00000
     12     -62.7227      2.00000
     13       1.8832      2.00000
     14       1.8832      2.00000
     15       2.1675      2.00000
     16       2.1675      2.00000
     17       3.8942      2.00000
     18       3.8942      2.00000
     19       3.9832      2.00000
     20       3.9832      2.00000
     21       4.1439      2.00000
     22       4.1439      2.00000
     23       4.1534      2.00000
     24       4.1534      2.00000
     25       4.5872      2.00000
     26       4.5872      2.00000
     27       4.5924      2.00000
     28       4.5924      2.00000
     29       5.4221      2.00000
     30       5.4221      2.00000
     31       5.4770      2.00000
     32       5.4770      2.00000
     33       6.0495      2.00000
     34       6.0495      2.00000
     35       7.2395      0.42881
     36       7.2395      0.42881
     37      11.3850     -0.00000
     38      11.3850     -0.00000
     39      12.7702      0.00000
     40      12.7702      0.00000

 k-point   193 :       0.5000    0.3333    0.5000
  band No.  band energies     occupation 
      1     -62.8163      2.00000
      2     -62.8163      2.00000
      3     -62.8163      2.00000
      4     -62.8163      2.00000
      5     -62.7284      2.00000
      6     -62.7284      2.00000
      7     -62.7284      2.00000
      8     -62.7284      2.00000
      9     -62.7236      2.00000
     10     -62.7236      2.00000
     11     -62.7236      2.00000
     12     -62.7236      2.00000
     13       2.0178      2.00000
     14       2.0178      2.00000
     15       2.0178      2.00000
     16       2.0178      2.00000
     17       3.9732      2.00000
     18       3.9732      2.00000
     19       3.9732      2.00000
     20       3.9732      2.00000
     21       4.1120      2.00000
     22       4.1120      2.00000
     23       4.1120      2.00000
     24       4.1120      2.00000
     25       4.7173      2.00000
     26       4.7173      2.00000
     27       4.7173      2.00000
     28       4.7173      2.00000
     29       5.4208      2.00000
     30       5.4208      2.00000
     31       5.4208      2.00000
     32       5.4208      2.00000
     33       6.5385      2.00008
     34       6.5385      2.00008
     35       6.5385      2.00008
     36       6.5385      2.00008
     37      11.9445     -0.00000
     38      11.9445     -0.00000
     39      11.9445     -0.00000
     40      11.9445     -0.00000

 k-point   194 :       0.4167    0.4167    0.5000
  band No.  band energies     occupation 
      1     -62.8205      2.00000
      2     -62.8205      2.00000
      3     -62.8182      2.00000
      4     -62.8182      2.00000
      5     -62.7264      2.00000
      6     -62.7264      2.00000
      7     -62.7253      2.00000
      8     -62.7253      2.00000
      9     -62.7247      2.00000
     10     -62.7247      2.00000
     11     -62.7224      2.00000
     12     -62.7224      2.00000
     13       1.9089      2.00000
     14       1.9089      2.00000
     15       2.0479      2.00000
     16       2.0479      2.00000
     17       3.9840      2.00000
     18       3.9840      2.00000
     19       3.9960      2.00000
     20       3.9960      2.00000
     21       4.0693      2.00000
     22       4.0693      2.00000
     23       4.0957      2.00000
     24       4.0957      2.00000
     25       4.9372      2.00000
     26       4.9372      2.00000
     27       5.0675      2.00000
     28       5.0675      2.00000
     29       5.4944      2.00000
     30       5.4944      2.00000
     31       5.5168      2.00000
     32       5.5168      2.00000
     33       5.9849      2.00000
     34       5.9849      2.00000
     35       6.8110      2.03043
     36       6.8110      2.03043
     37      11.0723     -0.00000
     38      11.0723     -0.00000
     39      11.8606     -0.00000
     40      11.8606     -0.00000

 k-point   195 :       0.5000    0.4167    0.5000
  band No.  band energies     occupation 
      1     -62.8209      2.00000
      2     -62.8209      2.00000
      3     -62.8209      2.00000
      4     -62.8209      2.00000
      5     -62.7252      2.00000
      6     -62.7252      2.00000
      7     -62.7252      2.00000
      8     -62.7252      2.00000
      9     -62.7230      2.00000
     10     -62.7230      2.00000
     11     -62.7230      2.00000
     12     -62.7230      2.00000
     13       1.9619      2.00000
     14       1.9619      2.00000
     15       1.9619      2.00000
     16       1.9619      2.00000
     17       4.0111      2.00000
     18       4.0111      2.00000
     19       4.0111      2.00000
     20       4.0111      2.00000
     21       4.0569      2.00000
     22       4.0569      2.00000
     23       4.0569      2.00000
     24       4.0569      2.00000
     25       5.2034      2.00000
     26       5.2034      2.00000
     27       5.2034      2.00000
     28       5.2034      2.00000
     29       5.4956      2.00000
     30       5.4956      2.00000
     31       5.4956      2.00000
     32       5.4956      2.00000
     33       6.2785      2.00000
     34       6.2785      2.00000
     35       6.2785      2.00000
     36       6.2785      2.00000
     37      11.2656     -0.00000
     38      11.2656     -0.00000
     39      11.2656     -0.00000
     40      11.2656     -0.00000

 k-point   196 :       0.5000    0.5000    0.5000
  band No.  band energies     occupation 
      1     -62.8222      2.00000
      2     -62.8222      2.00000
      3     -62.8222      2.00000
      4     -62.8222      2.00000
      5     -62.7243      2.00000
      6     -62.7243      2.00000
      7     -62.7243      2.00000
      8     -62.7243      2.00000
      9     -62.7217      2.00000
     10     -62.7217      2.00000
     11     -62.7217      2.00000
     12     -62.7217      2.00000
     13       1.9426      2.00000
     14       1.9426      2.00000
     15       1.9426      2.00000
     16       1.9426      2.00000
     17       4.0062      2.00000
     18       4.0062      2.00000
     19       4.0062      2.00000
     20       4.0062      2.00000
     21       4.0572      2.00000
     22       4.0572      2.00000
     23       4.0572      2.00000
     24       4.0572      2.00000
     25       5.5065      2.00000
     26       5.5065      2.00000
     27       5.5065      2.00000
     28       5.5065      2.00000
     29       5.5262      2.00000
     30       5.5262      2.00000
     31       5.5262      2.00000
     32       5.5262      2.00000
     33       6.0568      2.00000
     34       6.0568      2.00000
     35       6.0568      2.00000
     36       6.0568      2.00000
     37      11.0288     -0.00000
     38      11.0288     -0.00000
     39      11.0288     -0.00000
     40      11.0288     -0.00000


--------------------------------------------------------------------------------------------------------


 soft charge-density along one line, spin component           1
         0         1         2         3         4         5         6         7         8         9
 total charge-density along one line

 pseudopotential strength for first ion, spin component:           1
-67.192   0.000   0.000  31.552  -0.000  -0.000  -0.000  -0.000
  0.000 -67.192   0.000  -0.000  31.552  -0.000  -0.000  -0.000
  0.000   0.000 -67.192  -0.000  -0.000  31.552  -0.000  -0.000
 31.552  -0.000  -0.000  -8.905   0.000   0.000   0.000   0.000
 -0.000  31.552  -0.000   0.000  -8.905   0.000   0.000   0.000
 -0.000  -0.000  31.552   0.000   0.000  -8.905   0.000   0.000
 -0.000  -0.000  -0.000   0.000   0.000   0.000  -6.460   0.000
 -0.000  -0.000  -0.000   0.000   0.000   0.000   0.000  -6.460
  0.000  -0.000   0.000  -0.000   0.000  -0.000  -0.000   0.000
 -0.000  -0.000  -0.000   0.000   0.000   0.000   0.000   0.000
  0.000  -0.000  -0.000  -0.000   0.000   0.000  -0.000  -0.000
  0.000   0.000   0.000  -0.000  -0.000  -0.000  -0.752  -0.000
  0.000   0.000   0.000  -0.000  -0.000  -0.000  -0.000  -0.752
 -0.000   0.000  -0.000   0.000  -0.000   0.000   0.000  -0.000
  0.000   0.000   0.000  -0.000  -0.000  -0.000  -0.000  -0.000
 -0.000   0.000   0.000   0.000  -0.000  -0.000   0.000   0.000
  0.000   0.000   0.000  -0.000  -0.000  -0.000  -0.000  -0.000
 -0.000  -0.000  -0.000   0.000   0.000   0.000   0.000   0.000
 total augmentation occupancy for first ion, spin component:           1
  1.999   0.000   0.000   0.029   0.000   0.000   0.000  -0.000   0.000   0.000   0.000   0.000  -0.000   0.000   0.000  -0.000
  0.000   1.999   0.000   0.000   0.029   0.000   0.000   0.000  -0.000   0.000  -0.000  -0.000  -0.000  -0.000  -0.000  -0.000
  0.000   0.000   1.999   0.000   0.000   0.029  -0.000  -0.000   0.000   0.000   0.000   0.000   0.000   0.000  -0.000   0.000
  0.029   0.000   0.000   0.139   0.000   0.000   0.000   0.000  -0.000   0.000   0.000  -0.000  -0.000   0.000   0.000   0.000
  0.000   0.029   0.000   0.000   0.138   0.000  -0.000  -0.000   0.000   0.000  -0.000  -0.000   0.000   0.000   0.000   0.000
  0.000   0.000   0.029   0.000   0.000   0.139   0.000  -0.000   0.000  -0.000   0.000  -0.000  -0.000   0.000  -0.000  -0.000
  0.000   0.000  -0.000   0.000  -0.000   0.000   1.897   0.000  -0.000   0.000  -0.000  -0.054  -0.000   0.000  -0.000   0.000
 -0.000   0.000  -0.000   0.000  -0.000  -0.000   0.000   1.897   0.000   0.000  -0.000  -0.000  -0.057  -0.000  -0.000   0.000
  0.000  -0.000   0.000  -0.000   0.000   0.000  -0.000   0.000   1.921   0.000   0.000   0.000  -0.000  -0.100  -0.000   0.000
  0.000   0.000   0.000   0.000   0.000  -0.000   0.000   0.000   0.000   1.897   0.000  -0.000  -0.000  -0.000  -0.057  -0.000
  0.000  -0.000   0.000   0.000  -0.000   0.000  -0.000  -0.000   0.000   0.000   1.922   0.000   0.000  -0.000  -0.000  -0.102
  0.000  -0.000   0.000  -0.000  -0.000  -0.000  -0.054  -0.000   0.000  -0.000   0.000   0.094   0.000  -0.000   0.000   0.000
 -0.000  -0.000   0.000  -0.000   0.000  -0.000  -0.000  -0.057  -0.000  -0.000   0.000   0.000   0.094   0.000   0.000  -0.000
  0.000  -0.000   0.000   0.000   0.000   0.000   0.000  -0.000  -0.100  -0.000   0.000  -0.000   0.000   0.089   0.000  -0.000
  0.000  -0.000  -0.000   0.000   0.000  -0.000  -0.000  -0.000  -0.000  -0.057  -0.000   0.000   0.000   0.000   0.094   0.000
 -0.000  -0.000   0.000   0.000   0.000  -0.000   0.000   0.000   0.000  -0.000  -0.102   0.000  -0.000  -0.000   0.000   0.089
  0.000   0.000   0.000   0.000   0.000   0.000   0.000  -0.000  -0.001  -0.000   0.000   0.000  -0.000  -0.000   0.000  -0.000
  0.000  -0.000   0.000  -0.000   0.000   0.000   0.000  -0.000  -0.000  -0.000   0.000  -0.000   0.000   0.000  -0.000   0.000


------------------------ aborting loop because EDIFF is reached ----------------------------------------





 total charge

# of ion       s       p       d       tot
------------------------------------------
    1        0.298   6.197   8.877  15.371
    2        0.298   6.197   8.877  15.371
    3        0.298   6.197   8.877  15.371
    4        0.298   6.197   8.877  15.371
--------------------------------------------------
tot          1.191  24.787  35.506  61.484

    CHARGE:  cpu time    0.5279: real time    0.5279
    FORLOC:  cpu time    0.0006: real time    0.0006
    FORNL :  cpu time    1.0661: real time    1.0662
    STRESS:  cpu time    1.3894: real time    1.3894
    FORCOR:  cpu time    0.0146: real time    0.0146
    FORHAR:  cpu time    0.0033: real time    0.0033
    MIXING:  cpu time    0.0005: real time    0.0005
    OFIELD:  cpu time    0.0000: real time    0.0000

  FORCE on cell =-STRESS in cart. coord.  units (eV):
  Direction    XX          YY          ZZ          XY          YZ          ZX
  --------------------------------------------------------------------------------------
  Alpha Z   625.98352   625.98352   625.98352
  Ewald   -3542.08407 -3542.08407 -3547.41640    -0.00000     0.00000     0.00000
  Hartree  1658.80613  1658.80613  1655.94341    -0.00000    -0.00000    -0.00000
  E(xc)    -535.22635  -535.22635  -535.23039     0.00000     0.00000    -0.00000
  Local     551.99138   551.99138   560.08366    -0.00000    -0.00000    -0.00000
  n-local  -350.22925  -355.72473  -353.00819     1.06283     1.53487     0.43314
  augment   751.68693   751.68693   751.69449     0.00000     0.00000     0.00000
  Kinetic   848.12661   837.55134   842.79521    -1.07605    -0.19509    -2.13640
  Fock        0.00000     0.00000     0.00000     0.00000     0.00000     0.00000
  -------------------------------------------------------------------------------------
  Total       1.01953     1.01953     0.84530     0.00000     0.00000     0.00000
  in kB      35.32450    35.32450    29.28785     0.00000     0.00000     0.00000
  external pressure =       33.31 kB  Pullay stress =        0.00 kB


 VOLUME and BASIS-vectors are now :
 -----------------------------------------------------------------------------
  energy-cutoff  :      520.00
  volume of cell :       46.24
      direct lattice vectors                 reciprocal lattice vectors
     3.577430672  0.000000000  0.000000000     0.279530225 -0.000000000  0.000000000
     0.000000000  3.577430672  0.000000000     0.000000000  0.279530225  0.000000000
     0.000000000  0.000000000  3.613204978    -0.000000000 -0.000000000  0.276762599

  length of vectors
     3.577430672  3.577430672  3.613204978     0.279530225  0.279530225  0.276762599


 FORCES acting on ions
    electron-ion (+dipol)            ewald-force                    non-local-force                 convergence-correction
 -----------------------------------------------------------------------------------------------
   -.118E-12 -.155E-12 -.166E-12   0.168E-13 0.135E-13 -.359E-13   0.202E-23 -.993E-23 0.132E-22   -.396E-12 -.222E-12 -.362E-13
   -.125E-12 0.222E-11 0.208E-11   0.145E-13 0.699E-14 0.154E-13   0.101E-22 0.662E-23 0.132E-22   -.454E-12 -.145E-12 -.654E-13
   0.219E-11 -.152E-12 0.307E-10   -.138E-13 -.458E-14 0.146E-13   0.654E-24 -.662E-23 0.993E-23   -.114E-12 -.204E-12 -.125E-12
   0.215E-11 0.150E-10 0.891E-11   -.161E-13 -.111E-13 0.872E-14   0.101E-22 -.331E-23 0.199E-22   -.123E-12 -.978E-13 -.921E-13
 -----------------------------------------------------------------------------------------------
   0.409E-11 0.169E-10 0.415E-10   0.152E-14 0.481E-14 0.285E-14   0.229E-22 -.132E-22 0.562E-22   -.109E-11 -.669E-12 -.319E-12


 POSITION                                       TOTAL-FORCE (eV/Angst)
 -----------------------------------------------------------------------------------
      0.00000      0.00000      0.00000        -0.000000      0.000000     -0.000000
      0.00000      1.78872      1.80660        -0.000000      0.000000      0.000000
      1.78872      0.00000      1.80660         0.000000      0.000000      0.000000
      1.78872      1.78872      0.00000         0.000000     -0.000000      0.000000
 -----------------------------------------------------------------------------------
    total drift:                                0.000000      0.000000      0.000000


--------------------------------------------------------------------------------------------------------



  FREE ENERGIE OF THE ION-ELECTRON SYSTEM (eV)
  ---------------------------------------------------
  free  energy   TOTEN  =       -16.36676163 eV

  energy  without entropy=      -16.37011915  energy(sigma->0) =      -16.36788080



--------------------------------------------------------------------------------------------------------


    POTLOK:  cpu time    0.0919: real time    0.0919


--------------------------------------------------------------------------------------------------------


 stress matrix after NEB project (eV)
      1.01953      0.00000      0.00000
      0.00000      1.01953      0.00000
      0.00000      0.00000      0.84530
  FORCES: max atom, RMS     0.000000    0.000000
  FORCE total and by dimension    0.000000    0.000000
  Stress total and by dimension    1.671354    1.019531
     LOOP+:  cpu time  105.2299: real time  105.2529
    4ORBIT:  cpu time    0.0000: real time    0.0000



 total charge

# of ion       s       p       d       tot
------------------------------------------
    1        0.298   6.197   8.877  15.371
    2        0.298   6.197   8.877  15.371
    3        0.298   6.197   8.877  15.371
    4        0.298   6.197   8.877  15.371
--------------------------------------------------
tot          1.191  24.787  35.506  61.484


 total amount of memory used by VASP MPI-rank0   112620. kBytes
=======================================================================

   base      :      30000. kBytes
   nonl-proj :      35869. kBytes
   fftplans  :       1619. kBytes
   grid      :       3048. kBytes
   one-center:         62. kBytes
   wavefun   :      42022. kBytes

  
  
 General timing and accounting informations for this job:
 ========================================================
  
                  Total CPU time used (sec):      107.110
                            User time (sec):      106.426
                          System time (sec):        0.684
                         Elapsed time (sec):      107.138
  
                   Maximum memory used (kb):      117800.
                   Average memory used (kb):          N/A
  
                          Minor page faults:       269930
                          Major page faults:          410
                 Voluntary context switches:          693
