<?xml version="1.0" encoding="ISO-8859-1"?>
<modeling>
 <generator>
  <i name="program" type="string">vasp </i>
  <i name="version" type="string">6.2.1  </i>
  <i name="subversion" type="string">16May21 (build Aug 15 2022 14:47:30) complex                          parallel </i>
  <i name="platform" type="string">LinuxGNU </i>
  <i name="date" type="string">2025 12 24 </i>
  <i name="time" type="string">15:19:29 </i>
 </generator>
 <incar>
  <i type="string" name="PREC">Accurate</i>
  <i type="string" name="ALGO">Fast</i>
  <i type="int" name="NELM">   100</i>
  <i name="EDIFF">      0.00000001</i>
  <i type="int" name="NSW">     0</i>
  <i name="ENCUT">    520.00000000</i>
  <i type="logical" name="LREAL"> F  </i>
  <i type="int" name="ISMEAR">     1</i>
  <i type="logical" name="LWAVE"> F  </i>
  <i type="logical" name="LCHARG"> T  </i>
  <i type="int" name="LORBIT">    11</i>
  <i type="logical" name="LASPH"> T  </i>
 </incar>
 <primitive_cell>
  <structure name="primitive_cell" >
   <crystal>
    <varray name="basis" >
     <v>       0.00000000      -1.78871534      -1.80660249 </v>
     <v>       0.00000000       1.78871534      -1.80660249 </v>
     <v>       1.78871534       0.00000000       1.80660249 </v>
    </varray>
    <i name="volume">     11.56045855 </i>
    <varray name="rec_basis" >
     <v>       0.27953022      -0.27953022      -0.27676260 </v>
     <v>       0.27953022       0.27953022      -0.27676260 </v>
     <v>       0.55906045       0.00000000       0.00000000 </v>
    </varray>
   </crystal>
   <varray name="positions" >
    <v>       0.00000000       0.00000000       0.00000000 </v>
   </varray>
  </structure>
  <varray name="primitive_index" >
   <v type="int" >        1 </v>
  </varray>
 </primitive_cell>
 <kpoints>
  <generation param="Gamma">
   <v type="int" name="divisions">      12       12       12 </v>
   <v name="usershift">      0.00000000       0.00000000       0.00000000 </v>
   <v name="genvec1">      0.08333333       0.00000000       0.00000000 </v>
   <v name="genvec2">      0.00000000       0.08333333       0.00000000 </v>
   <v name="genvec3">      0.00000000       0.00000000       0.08333333 </v>
   <v name="shift">      0.00000000       0.00000000       0.00000000 </v>
  </generation>
  <varray name="kpointlist" >
   <v>       0.00000000       0.00000000       0.00000000 </v>
   <v>       0.08333333       0.00000000       0.00000000 </v>
   <v>       0.16666667       0.00000000       0.00000000 </v>
   <v>       0.25000000       0.00000000       0.00000000 </v>
   <v>       0.33333333       0.00000000       0.00000000 </v>
   <v>       0.41666667       0.00000000       0.00000000 </v>
   <v>       0.50000000       0.00000000       0.00000000 </v>
   <v>       0.08333333       0.08333333       0.00000000 </v>
   <v>       0.16666667       0.08333333       0.00000000 </v>
   <v>       0.25000000       0.08333333       0.00000000 </v>
   <v>       0.33333333       0.08333333       0.00000000 </v>
   <v>       0.41666667       0.08333333       0.00000000 </v>
   <v>       0.50000000       0.08333333       0.00000000 </v>
   <v>       0.16666667       0.16666667       0.00000000 </v>
   <v>       0.25000000       0.16666667       0.00000000 </v>
   <v>       0.33333333       0.16666667       0.00000000 </v>
   <v>       0.41666667       0.16666667       0.00000000 </v>
   <v>       0.50000000       0.16666667       0.00000000 </v>
   <v>       0.25000000       0.25000000       0.00000000 </v>
   <v>       0.33333333       0.25000000       0.00000000 </v>
   <v>       0.41666667       0.25000000       0.00000000 </v>
   <v>       0.50000000       0.25000000       0.00000000 </v>
   <v>       0.33333333       0.33333333       0.00000000 </v>
   <v>       0.41666667       0.33333333       0.00000000 </v>
   <v>       0.50000000       0.33333333       0.00000000 </v>
   <v>       0.41666667       0.41666667       0.00000000 </v>
   <v>       0.50000000       0.41666667       0.00000000 </v>
   <v>       0.50000000       0.50000000       0.00000000 </v>
   <v>       0.00000000       0.00000000       0.08333333 </v>
   <v>       0.08333333       0.00000000       0.08333333 </v>
   <v>       0.16666667       0.00000000       0.08333333 </v>
   <v>       0.25000000       0.00000000       0.08333333 </v>
   <v>       0.33333333       0.00000000       0.08333333 </v>
   <v>       0.41666667       0.00000000       0.08333333 </v>
   <v>       0.50000000       0.00000000       0.08333333 </v>
   <v>       0.08333333       0.08333333       0.08333333 </v>
   <v>       0.16666667       0.08333333       0.08333333 </v>
   <v>       0.25000000       0.08333333       0.08333333 </v>
   <v>       0.33333333       0.08333333       0.08333333 </v>
   <v>       0.41666667       0.08333333       0.08333333 </v>
   <v>       0.50000000       0.08333333       0.08333333 </v>
   <v>       0.16666667       0.16666667       0.08333333 </v>
   <v>       0.25000000       0.16666667       0.08333333 </v>
   <v>       0.33333333       0.16666667       0.08333333 </v>
   <v>       0.41666667       0.16666667       0.08333333 </v>
   <v>       0.50000000       0.16666667       0.08333333 </v>
   <v>       0.25000000       0.25000000       0.08333333 </v>
   <v>       0.33333333       0.25000000       0.08333333 </v>
   <v>       0.41666667       0.25000000       0.08333333 </v>
   <v>       0.50000000       0.25000000       0.08333333 </v>
   <v>       0.33333333       0.33333333       0.08333333 </v>
   <v>       0.41666667       0.33333333       0.08333333 </v>
   <v>       0.50000000       0.33333333       0.08333333 </v>
   <v>       0.41666667       0.41666667       0.08333333 </v>
   <v>       0.50000000       0.41666667       0.08333333 </v>
   <v>       0.50000000       0.50000000       0.08333333 </v>
   <v>       0.00000000       0.00000000       0.16666667 </v>
   <v>       0.08333333       0.00000000       0.16666667 </v>
   <v>       0.16666667       0.00000000       0.16666667 </v>
   <v>       0.25000000       0.00000000       0.16666667 </v>
   <v>       0.33333333       0.00000000       0.16666667 </v>
   <v>       0.41666667       0.00000000       0.16666667 </v>
   <v>       0.50000000       0.00000000       0.16666667 </v>
   <v>       0.08333333       0.08333333       0.16666667 </v>
   <v>       0.16666667       0.08333333       0.16666667 </v>
   <v>       0.25000000       0.08333333       0.16666667 </v>
   <v>       0.33333333       0.08333333       0.16666667 </v>
   <v>       0.41666667       0.08333333       0.16666667 </v>
   <v>       0.50000000       0.08333333       0.16666667 </v>
   <v>       0.16666667       0.16666667       0.16666667 </v>
   <v>       0.25000000       0.16666667       0.16666667 </v>
   <v>       0.33333333       0.16666667       0.16666667 </v>
   <v>       0.41666667       0.16666667       0.16666667 </v>
   <v>       0.50000000       0.16666667       0.16666667 </v>
   <v>       0.25000000       0.25000000       0.16666667 </v>
   <v>       0.33333333       0.25000000       0.16666667 </v>
   <v>       0.41666667       0.25000000       0.16666667 </v>
   <v>       0.50000000       0.25000000       0.16666667 </v>
   <v>       0.33333333       0.33333333       0.16666667 </v>
   <v>       0.41666667       0.33333333       0.16666667 </v>
   <v>       0.50000000       0.33333333       0.16666667 </v>
   <v>       0.41666667       0.41666667       0.16666667 </v>
   <v>       0.50000000       0.41666667       0.16666667 </v>
   <v>       0.50000000       0.50000000       0.16666667 </v>
   <v>       0.00000000       0.00000000       0.25000000 </v>
   <v>       0.08333333       0.00000000       0.25000000 </v>
   <v>       0.16666667       0.00000000       0.25000000 </v>
   <v>       0.25000000       0.00000000       0.25000000 </v>
   <v>       0.33333333       0.00000000       0.25000000 </v>
   <v>       0.41666667       0.00000000       0.25000000 </v>
   <v>       0.50000000       0.00000000       0.25000000 </v>
   <v>       0.08333333       0.08333333       0.25000000 </v>
   <v>       0.16666667       0.08333333       0.25000000 </v>
   <v>       0.25000000       0.08333333       0.25000000 </v>
   <v>       0.33333333       0.08333333       0.25000000 </v>
   <v>       0.41666667       0.08333333       0.25000000 </v>
   <v>       0.50000000       0.08333333       0.25000000 </v>
   <v>       0.16666667       0.16666667       0.25000000 </v>
   <v>       0.25000000       0.16666667       0.25000000 </v>
   <v>       0.33333333       0.16666667       0.25000000 </v>
   <v>       0.41666667       0.16666667       0.25000000 </v>
   <v>       0.50000000       0.16666667       0.25000000 </v>
   <v>       0.25000000       0.25000000       0.25000000 </v>
   <v>       0.33333333       0.25000000       0.25000000 </v>
   <v>       0.41666667       0.25000000       0.25000000 </v>
   <v>       0.50000000       0.25000000       0.25000000 </v>
   <v>       0.33333333       0.33333333       0.25000000 </v>
   <v>       0.41666667       0.33333333       0.25000000 </v>
   <v>       0.50000000       0.33333333       0.25000000 </v>
   <v>       0.41666667       0.41666667       0.25000000 </v>
   <v>       0.50000000       0.41666667       0.25000000 </v>
   <v>       0.50000000       0.50000000       0.25000000 </v>
   <v>       0.00000000       0.00000000       0.33333333 </v>
   <v>       0.08333333       0.00000000       0.33333333 </v>
   <v>       0.16666667       0.00000000       0.33333333 </v>
   <v>       0.25000000       0.00000000       0.33333333 </v>
   <v>       0.33333333       0.00000000       0.33333333 </v>
   <v>       0.41666667       0.00000000       0.33333333 </v>
   <v>       0.50000000       0.00000000       0.33333333 </v>
   <v>       0.08333333       0.08333333       0.33333333 </v>
   <v>       0.16666667       0.08333333       0.33333333 </v>
   <v>       0.25000000       0.08333333       0.33333333 </v>
   <v>       0.33333333       0.08333333       0.33333333 </v>
   <v>       0.41666667       0.08333333       0.33333333 </v>
   <v>       0.50000000       0.08333333       0.33333333 </v>
   <v>       0.16666667       0.16666667       0.33333333 </v>
   <v>       0.25000000       0.16666667       0.33333333 </v>
   <v>       0.33333333       0.16666667       0.33333333 </v>
   <v>       0.41666667       0.16666667       0.33333333 </v>
   <v>       0.50000000       0.16666667       0.33333333 </v>
   <v>       0.25000000       0.25000000       0.33333333 </v>
   <v>       0.33333333       0.25000000       0.33333333 </v>
   <v>       0.41666667       0.25000000       0.33333333 </v>
   <v>       0.50000000       0.25000000       0.33333333 </v>
   <v>       0.33333333       0.33333333       0.33333333 </v>
   <v>       0.41666667       0.33333333       0.33333333 </v>
   <v>       0.50000000       0.33333333       0.33333333 </v>
   <v>       0.41666667       0.41666667       0.33333333 </v>
   <v>       0.50000000       0.41666667       0.33333333 </v>
   <v>       0.50000000       0.50000000       0.33333333 </v>
   <v>       0.00000000       0.00000000       0.41666667 </v>
   <v>       0.08333333       0.00000000       0.41666667 </v>
   <v>       0.16666667       0.00000000       0.41666667 </v>
   <v>       0.25000000       0.00000000       0.41666667 </v>
   <v>       0.33333333       0.00000000       0.41666667 </v>
   <v>       0.41666667       0.00000000       0.41666667 </v>
   <v>       0.50000000       0.00000000       0.41666667 </v>
   <v>       0.08333333       0.08333333       0.41666667 </v>
   <v>       0.16666667       0.08333333       0.41666667 </v>
   <v>       0.25000000       0.08333333       0.41666667 </v>
   <v>       0.33333333       0.08333333       0.41666667 </v>
   <v>       0.41666667       0.08333333       0.41666667 </v>
   <v>       0.50000000       0.08333333       0.41666667 </v>
   <v>       0.16666667       0.16666667       0.41666667 </v>
   <v>       0.25000000       0.16666667       0.41666667 </v>
   <v>       0.33333333       0.16666667       0.41666667 </v>
   <v>       0.41666667       0.16666667       0.41666667 </v>
   <v>       0.50000000       0.16666667       0.41666667 </v>
   <v>       0.25000000       0.25000000       0.41666667 </v>
   <v>       0.33333333       0.25000000       0.41666667 </v>
   <v>       0.41666667       0.25000000       0.41666667 </v>
   <v>       0.50000000       0.25000000       0.41666667 </v>
   <v>       0.33333333       0.33333333       0.41666667 </v>
   <v>       0.41666667       0.33333333       0.41666667 </v>
   <v>       0.50000000       0.33333333       0.41666667 </v>
   <v>       0.41666667       0.41666667       0.41666667 </v>
   <v>       0.50000000       0.41666667       0.41666667 </v>
   <v>       0.50000000       0.50000000       0.41666667 </v>
   <v>       0.00000000       0.00000000       0.50000000 </v>
   <v>       0.08333333       0.00000000       0.50000000 </v>
   <v>       0.16666667       0.00000000       0.50000000 </v>
   <v>       0.25000000       0.00000000       0.50000000 </v>
   <v>       0.33333333       0.00000000       0.50000000 </v>
   <v>       0.41666667       0.00000000       0.50000000 </v>
   <v>       0.50000000       0.00000000       0.50000000 </v>
   <v>       0.08333333       0.08333333       0.50000000 </v>
   <v>       0.16666667       0.08333333       0.50000000 </v>
   <v>       0.25000000       0.08333333       0.50000000 </v>
   <v>       0.33333333       0.08333333       0.50000000 </v>
   <v>       0.41666667       0.08333333       0.50000000 </v>
   <v>       0.50000000       0.08333333       0.50000000 </v>
   <v>       0.16666667       0.16666667       0.50000000 </v>
   <v>       0.25000000       0.16666667       0.50000000 </v>
   <v>       0.33333333       0.16666667       0.50000000 </v>
   <v>       0.41666667       0.16666667       0.50000000 </v>
   <v>       0.50000000       0.16666667       0.50000000 </v>
   <v>       0.25000000       0.25000000       0.50000000 </v>
   <v>       0.33333333       0.25000000       0.50000000 </v>
   <v>       0.41666667       0.25000000       0.50000000 </v>
   <v>       0.50000000       0.25000000       0.50000000 </v>
   <v>       0.33333333       0.33333333       0.50000000 </v>
   <v>       0.41666667       0.33333333       0.50000000 </v>
   <v>       0.50000000       0.33333333       0.50000000 </v>
   <v>       0.41666667       0.41666667       0.50000000 </v>
   <v>       0.50000000       0.41666667       0.50000000 </v>
   <v>       0.50000000       0.50000000       0.50000000 </v>
  </varray>
  <varray name="weights" >
   <v>       0.00057870 </v>
   <v>       0.00231481 </v>
   <v>       0.00231481 </v>
   <v>       0.00231481 </v>
   <v>       0.00231481 </v>
   <v>       0.00231481 </v>
   <v>       0.00115741 </v>
   <v>       0.00231481 </v>
   <v>       0.00462963 </v>
   <v>       0.00462963 </v>
   <v>       0.00462963 </v>
   <v>       0.00462963 </v>
   <v>       0.00231481 </v>
   <v>       0.00231481 </v>
   <v>       0.00462963 </v>
   <v>       0.00462963 </v>
   <v>       0.00462963 </v>
   <v>       0.00231481 </v>
   <v>       0.00231481 </v>
   <v>       0.00462963 </v>
   <v>       0.00462963 </v>
   <v>       0.00231481 </v>
   <v>       0.00231481 </v>
   <v>       0.00462963 </v>
   <v>       0.00231481 </v>
   <v>       0.00231481 </v>
   <v>       0.00231481 </v>
   <v>       0.00057870 </v>
   <v>       0.00115741 </v>
   <v>       0.00462963 </v>
   <v>       0.00462963 </v>
   <v>       0.00462963 </v>
   <v>       0.00462963 </v>
   <v>       0.00462963 </v>
   <v>       0.00231481 </v>
   <v>       0.00462963 </v>
   <v>       0.00925926 </v>
   <v>       0.00925926 </v>
   <v>       0.00925926 </v>
   <v>       0.00925926 </v>
   <v>       0.00462963 </v>
   <v>       0.00462963 </v>
   <v>       0.00925926 </v>
   <v>       0.00925926 </v>
   <v>       0.00925926 </v>
   <v>       0.00462963 </v>
   <v>       0.00462963 </v>
   <v>       0.00925926 </v>
   <v>       0.00925926 </v>
   <v>       0.00462963 </v>
   <v>       0.00462963 </v>
   <v>       0.00925926 </v>
   <v>       0.00462963 </v>
   <v>       0.00462963 </v>
   <v>       0.00462963 </v>
   <v>       0.00115741 </v>
   <v>       0.00115741 </v>
   <v>       0.00462963 </v>
   <v>       0.00462963 </v>
   <v>       0.00462963 </v>
   <v>       0.00462963 </v>
   <v>       0.00462963 </v>
   <v>       0.00231481 </v>
   <v>       0.00462963 </v>
   <v>       0.00925926 </v>
   <v>       0.00925926 </v>
   <v>       0.00925926 </v>
   <v>       0.00925926 </v>
   <v>       0.00462963 </v>
   <v>       0.00462963 </v>
   <v>       0.00925926 </v>
   <v>       0.00925926 </v>
   <v>       0.00925926 </v>
   <v>       0.00462963 </v>
   <v>       0.00462963 </v>
   <v>       0.00925926 </v>
   <v>       0.00925926 </v>
   <v>       0.00462963 </v>
   <v>       0.00462963 </v>
   <v>       0.00925926 </v>
   <v>       0.00462963 </v>
   <v>       0.00462963 </v>
   <v>       0.00462963 </v>
   <v>       0.00115741 </v>
   <v>       0.00115741 </v>
   <v>       0.00462963 </v>
   <v>       0.00462963 </v>
   <v>       0.00462963 </v>
   <v>       0.00462963 </v>
   <v>       0.00462963 </v>
   <v>       0.00231481 </v>
   <v>       0.00462963 </v>
   <v>       0.00925926 </v>
   <v>       0.00925926 </v>
   <v>       0.00925926 </v>
   <v>       0.00925926 </v>
   <v>       0.00462963 </v>
   <v>       0.00462963 </v>
   <v>       0.00925926 </v>
   <v>       0.00925926 </v>
   <v>       0.00925926 </v>
   <v>       0.00462963 </v>
   <v>       0.00462963 </v>
   <v>       0.00925926 </v>
   <v>       0.00925926 </v>
   <v>       0.00462963 </v>
   <v>       0.00462963 </v>
   <v>       0.00925926 </v>
   <v>       0.00462963 </v>
   <v>       0.00462963 </v>
   <v>       0.00462963 </v>
   <v>       0.00115741 </v>
   <v>       0.00115741 </v>
   <v>       0.00462963 </v>
   <v>       0.00462963 </v>
   <v>       0.00462963 </v>
   <v>       0.00462963 </v>
   <v>       0.00462963 </v>
   <v>       0.00231481 </v>
   <v>       0.00462963 </v>
   <v>       0.00925926 </v>
   <v>       0.00925926 </v>
   <v>       0.00925926 </v>
   <v>       0.00925926 </v>
   <v>       0.00462963 </v>
   <v>       0.00462963 </v>
   <v>       0.00925926 </v>
   <v>       0.00925926 </v>
   <v>       0.00925926 </v>
   <v>       0.00462963 </v>
   <v>       0.00462963 </v>
   <v>       0.00925926 </v>
   <v>       0.00925926 </v>
   <v>       0.00462963 </v>
   <v>       0.00462963 </v>
   <v>       0.00925926 </v>
   <v>       0.00462963 </v>
   <v>       0.00462963 </v>
   <v>       0.00462963 </v>
   <v>       0.00115741 </v>
   <v>       0.00115741 </v>
   <v>       0.00462963 </v>
   <v>       0.00462963 </v>
   <v>       0.00462963 </v>
   <v>       0.00462963 </v>
   <v>       0.00462963 </v>
   <v>       0.00231481 </v>
   <v>       0.00462963 </v>
   <v>       0.00925926 </v>
   <v>       0.00925926 </v>
   <v>       0.00925926 </v>
   <v>       0.00925926 </v>
   <v>       0.00462963 </v>
   <v>       0.00462963 </v>
   <v>       0.00925926 </v>
   <v>       0.00925926 </v>
   <v>       0.00925926 </v>
   <v>       0.00462963 </v>
   <v>       0.00462963 </v>
   <v>       0.00925926 </v>
   <v>       0.00925926 </v>
   <v>       0.00462963 </v>
   <v>       0.00462963 </v>
   <v>       0.00925926 </v>
   <v>       0.00462963 </v>
   <v>       0.00462963 </v>
   <v>       0.00462963 </v>
   <v>       0.00115741 </v>
   <v>       0.00057870 </v>
   <v>       0.00231481 </v>
   <v>       0.00231481 </v>
   <v>       0.00231481 </v>
   <v>       0.00231481 </v>
   <v>       0.00231481 </v>
   <v>       0.00115741 </v>
   <v>       0.00231481 </v>
   <v>       0.00462963 </v>
   <v>       0.00462963 </v>
   <v>       0.00462963 </v>
   <v>       0.00462963 </v>
   <v>       0.00231481 </v>
   <v>       0.00231481 </v>
   <v>       0.00462963 </v>
   <v>       0.00462963 </v>
   <v>       0.00462963 </v>
   <v>       0.00231481 </v>
   <v>       0.00231481 </v>
   <v>       0.00462963 </v>
   <v>       0.00462963 </v>
   <v>       0.00231481 </v>
   <v>       0.00231481 </v>
   <v>       0.00462963 </v>
   <v>       0.00231481 </v>
   <v>       0.00231481 </v>
   <v>       0.00231481 </v>
   <v>       0.00057870 </v>
  </varray>
 </kpoints>
 <parameters>
  <separator name="general" >
   <i type="string" name="SYSTEM">unknown system</i>
   <i type="logical" name="LCOMPAT"> F  </i>
  </separator>
  <separator name="electronic" >
   <i type="string" name="PREC">accura</i>
   <i name="ENMAX">    520.00000000</i>
   <i name="ENAUG">    758.23300000</i>
   <i name="EDIFF">      0.00000001</i>
   <i type="int" name="IALGO">    68</i>
   <i type="int" name="IWAVPR">    10</i>
   <i type="int" name="NBANDS">    40</i>
   <i type="int" name="NBANDSLOW">    -1</i>
   <i type="int" name="NBANDSHIGH">    -1</i>
   <i name="NELECT">     68.00000000</i>
   <i type="int" name="TURBO">     0</i>
   <i type="int" name="IRESTART">     0</i>
   <i type="int" name="NREBOOT">     0</i>
   <i type="int" name="NMIN">     0</i>
   <i name="EREF">      0.00000000</i>
   <separator name="electronic smearing" >
    <i type="int" name="ISMEAR">     1</i>
    <i name="SIGMA">      0.20000000</i>
    <i name="KSPACING">      0.50000000</i>
    <i type="logical" name="KGAMMA"> T  </i>
    <i type="logical" name="KBLOWUP"> T  </i>
   </separator>
   <separator name="electronic projectors" >
    <i type="logical" name="LREAL"> F  </i>
    <v name="ROPT">      0.00000000</v>
    <i type="int" name="LMAXPAW">  -100</i>
    <i type="int" name="LMAXMIX">     2</i>
    <i type="logical" name="NLSPLINE"> F  </i>
   </separator>
   <separator name="electronic startup" >
    <i type="int" name="ISTART">     0</i>
    <i type="int" name="ICHARG">     2</i>
    <i type="int" name="INIWAV">     1</i>
   </separator>
   <separator name="electronic spin" >
    <i type="int" name="ISPIN">     1</i>
    <i type="logical" name="LNONCOLLINEAR"> F  </i>
    <v name="MAGMOM">      1.00000000      1.00000000      1.00000000      1.00000000</v>
    <i name="NUPDOWN">     -1.00000000</i>
    <i type="logical" name="LSORBIT"> F  </i>
    <v name="SAXIS">      0.00000000      0.00000000      1.00000000</v>
    <i type="logical" name="LSPIRAL"> F  </i>
    <v name="QSPIRAL">      0.00000000      0.00000000      0.00000000</v>
    <i type="logical" name="LZEROZ"> F  </i>
   </separator>
   <separator name="electronic exchange-correlation" >
    <i type="logical" name="LASPH"> T  </i>
    <i type="logical" name="LMETAGGA"> F  </i>
   </separator>
   <separator name="electronic convergence" >
    <i type="int" name="NELM">   100</i>
    <i type="int" name="NELMDL">    -5</i>
    <i type="int" name="NELMIN">     2</i>
    <i name="ENINI">    520.00000000</i>
    <separator name="electronic convergence detail" >
     <i type="logical" name="LDIAG"> T  </i>
     <i type="logical" name="LSUBROT"> F  </i>
     <i name="WEIMIN">      0.00000000</i>
     <i name="EBREAK">      0.00000000</i>
     <i name="DEPER">      0.30000000</i>
     <i type="int" name="NRMM">     4</i>
     <i name="TIME">      0.40000000</i>
    </separator>
   </separator>
   <separator name="electronic mixer" >
    <i name="AMIX">      0.40000000</i>
    <i name="BMIX">      1.00000000</i>
    <i name="AMIN">      0.10000000</i>
    <i name="AMIX_MAG">      1.60000000</i>
    <i name="BMIX_MAG">      1.00000000</i>
    <separator name="electronic mixer details" >
     <i type="int" name="IMIX">     4</i>
     <i type="logical" name="MIXFIRST"> F  </i>
     <i type="int" name="MAXMIX">   -45</i>
     <i name="WC">    100.00000000</i>
     <i type="int" name="INIMIX">     1</i>
     <i type="int" name="MIXPRE">     1</i>
     <i type="int" name="MREMOVE">     5</i>
    </separator>
   </separator>
   <separator name="electronic dipolcorrection" >
    <i type="logical" name="LDIPOL"> F  </i>
    <i type="logical" name="LMONO"> F  </i>
    <i type="int" name="IDIPOL">     0</i>
    <i name="EPSILON">      1.00000000</i>
    <v name="DIPOL">   -100.00000000   -100.00000000   -100.00000000</v>
    <i name="EFIELD">      0.00000000</i>
   </separator>
  </separator>
  <separator name="grids" >
   <i type="int" name="NGX">    28</i>
   <i type="int" name="NGY">    28</i>
   <i type="int" name="NGZ">    28</i>
   <i type="int" name="NGXF">    56</i>
   <i type="int" name="NGYF">    56</i>
   <i type="int" name="NGZF">    56</i>
   <i type="logical" name="ADDGRID"> F  </i>
  </separator>
  <separator name="ionic" >
   <i type="int" name="NSW">     0</i>
   <i type="int" name="IBRION">    -1</i>
   <i type="int" name="MDALGO">     0</i>
   <i type="int" name="ISIF">     2</i>
   <i name="PSTRESS">      0.00000000</i>
   <i name="EDIFFG">      0.00000010</i>
   <i type="int" name="NFREE">     0</i>
   <i name="POTIM">      0.50000000</i>
   <i name="SMASS">     -3.00000000</i>
   <i name="SCALEE">      1.00000000</i>
  </separator>
  <separator name="ionic md" >
   <i name="TEBEG">      0.00010000</i>
   <i name="TEEND">      0.00010000</i>
   <i type="int" name="NBLOCK">     1</i>
   <i type="int" name="KBLOCK">     1</i>
   <i type="int" name="NPACO">   256</i>
   <i name="APACO">     16.00000000</i>
  </separator>
  <separator name="symmetry" >
   <i type="int" name="ISYM">     2</i>
   <i name="SYMPREC">      0.00001000</i>
  </separator>
  <separator name="dos" >
   <i type="int" name="LORBIT">    11</i>
   <v name="RWIGS">     -1.00000000</v>
   <i type="int" name="NEDOS">   301</i>
   <i name="EMIN">     10.00000000</i>
   <i name="EMAX">    -10.00000000</i>
   <i name="EFERMI">      0.00000000</i>
  </separator>
  <separator name="writing" >
   <i type="int" name="NWRITE">     2</i>
   <i type="logical" name="LWAVE"> F  </i>
   <i type="logical" name="LDOWNSAMPLE"> F  </i>
   <i type="logical" name="LCHARG"> T  </i>
   <i type="logical" name="LPARD"> F  </i>
   <i type="logical" name="LVTOT"> F  </i>
   <i type="logical" name="LVHAR"> F  </i>
   <i type="logical" name="LELF"> F  </i>
   <i type="logical" name="LOPTICS"> F  </i>
   <v name="STM">      0.00000000      0.00000000      0.00000000      0.00000000      0.00000000      0.00000000      0.00000000</v>
  </separator>
  <separator name="performance" >
   <i type="int" name="NPAR">     4</i>
   <i type="int" name="NSIM">     4</i>
   <i type="int" name="NBLK">    -1</i>
   <i type="logical" name="LPLANE"> T  </i>
   <i type="logical" name="LSCALAPACK"> T  </i>
   <i type="logical" name="LSCAAWARE"> F  </i>
   <i type="logical" name="LSCALU"> F  </i>
   <i type="logical" name="LASYNC"> F  </i>
   <i type="logical" name="LORBITALREAL"> F  </i>
  </separator>
  <separator name="miscellaneous" >
   <i type="int" name="IDIOT">     3</i>
   <i type="int" name="PHON_NSTRUCT">    -1</i>
   <i type="logical" name="LMUSIC"> F  </i>
   <v name="POMASS">     63.54600000</v>
   <v name="DARWINR">      0.00000000</v>
   <v name="DARWINV">      1.00000000</v>
   <i type="logical" name="LCORR"> T  </i>
  </separator>
  <i type="logical" name="GGA_COMPAT"> T  </i>
  <i type="logical" name="LBERRY"> F  </i>
  <i type="int" name="ICORELEVEL">     0</i>
  <i type="logical" name="LDAU"> F  </i>
  <i type="int" name="I_CONSTRAINED_M">     0</i>
  <separator name="electronic exchange-correlation" >
   <i type="string" name="GGA">--</i>
   <i type="int" name="VOSKOWN">     0</i>
   <i type="logical" name="LHFCALC"> F  </i>
   <i type="string" name="PRECFOCK"></i>
   <i type="logical" name="LSYMGRAD"> F  </i>
   <i type="logical" name="LHFONE"> F  </i>
   <i type="logical" name="LRHFCALC"> F  </i>
   <i type="logical" name="LTHOMAS"> F  </i>
   <i type="logical" name="LMODELHF"> F  </i>
   <i type="logical" name="LFOCKACE"> F  </i>
   <i name="ENCUT4O">     -1.00000000</i>
   <i type="int" name="EXXOEP">     0</i>
   <i type="int" name="FOURORBIT">     0</i>
   <i name="AEXX">      0.00000000</i>
   <i name="HFALPHA">      0.00000000</i>
   <i name="MCALPHA">      0.00000000</i>
   <i name="ALDAX">      1.00000000</i>
   <i name="AGGAX">      1.00000000</i>
   <i name="ALDAC">      1.00000000</i>
   <i name="AGGAC">      1.00000000</i>
   <i type="int" name="NKREDX">     1</i>
   <i type="int" name="NKREDY">     1</i>
   <i type="int" name="NKREDZ">     1</i>
   <i type="logical" name="SHIFTRED"> F  </i>
   <i type="logical" name="ODDONLY"> F  </i>
   <i type="logical" name="EVENONLY"> F  </i>
   <i type="int" name="LMAXFOCK">     0</i>
   <i type="int" name="NMAXFOCKAE">     0</i>
   <i type="logical" name="LFOCKAEDFT"> F  </i>
   <i name="HFSCREEN">      0.00000000</i>
   <i name="HFSCREENC">      0.00000000</i>
   <i type="int" name="NBANDSGWLOW">     0</i>
  </separator>
  <separator name="vdW DFT" >
   <i type="logical" name="LUSE_VDW"> F  </i>
   <i name="Zab_VDW">     -0.84910000</i>
   <i name="PARAM1">      0.12340000</i>
   <i name="PARAM2">      1.00000000</i>
   <i name="PARAM3">      0.00000000</i>
  </separator>
  <separator name="model GW" >
   <i type="int" name="MODEL_GW">     0</i>
   <i name="MODEL_EPS0">      6.93627513</i>
   <i name="MODEL_ALPHA">      1.00000000</i>
  </separator>
  <separator name="linear response parameters" >
   <i type="logical" name="LEPSILON"> F  </i>
   <i type="logical" name="LRPA"> F  </i>
   <i type="logical" name="LNABLA"> F  </i>
   <i type="logical" name="LVEL"> F  </i>
   <i type="int" name="KINTER">     0</i>
   <i name="CSHIFT">      0.10000000</i>
   <i name="OMEGAMAX">     -1.00000000</i>
   <i name="DEG_THRESHOLD">      0.00200000</i>
   <i name="RTIME">     -0.10000000</i>
   <i name="WPLASMAI">      0.00000000</i>
   <v name="DFIELD">      0.00000000      0.00000000      0.00000000</v>
   <v name="WPLASMA">      0.00000000      0.00000000      0.00000000      0.00000000      0.00000000      0.00000000      0.00000000      0.00000000      0.00000000</v>
  </separator>
  <separator name="orbital magnetization" >
   <i type="logical" name="NUCIND"> F  </i>
   <v name="MAGPOS">      0.00000000      0.00000000      0.00000000</v>
   <i type="logical" name="LNICSALL"> T  </i>
   <i type="logical" name="ORBITALMAG"> F  </i>
   <i type="logical" name="LMAGBLOCH"> F  </i>
   <i type="logical" name="LCHIMAG"> F  </i>
   <i type="logical" name="LGAUGE"> T  </i>
   <i type="int" name="MAGATOM">     0</i>
   <v name="MAGDIPOL">      0.00000000      0.00000000      0.00000000</v>
   <v name="AVECCONST">      0.00000000      0.00000000      0.00000000</v>
  </separator>
  <separator name="response functions" >
   <i type="logical" name="LFINITE_TEMPERATURE"> F  </i>
   <i type="logical" name="LADDER"> F  </i>
   <i type="logical" name="LRPAFORCE"> F  </i>
   <i type="logical" name="LFXC"> F  </i>
   <i type="logical" name="LHARTREE"> T  </i>
   <i type="int" name="IBSE">     0</i>
   <v type="int" name="KPOINT">    -1     0     0     0</v>
   <i type="logical" name="LTCTC"> F  </i>
   <i type="logical" name="LTCTE"> F  </i>
   <i type="logical" name="LTETE"> F  </i>
   <i type="logical" name="LTRIPLET"> F  </i>
   <i type="logical" name="LFXCEPS"> F  </i>
   <i type="logical" name="LFXHEG"> F  </i>
   <i type="int" name="NATURALO">     2</i>
   <i type="logical" name="LHOLEGF"> F  </i>
   <i type="logical" name="L2ORDER"> F  </i>
   <i type="logical" name="LDMP1"> F  </i>
   <i type="logical" name="LMP2LT"> F  </i>
   <i type="logical" name="LSMP2LT"> F  </i>
   <i type="logical" name="LGWLF"> F  </i>
   <i name="ENCUTGW">     -2.00000000</i>
   <i name="ENCUTGWSOFT">     -2.00000000</i>
   <i name="ENCUTLF">     -1.00000000</i>
   <i type="logical" name="LESF_SPLINES"> F  </i>
   <i type="int" name="LMAXMP2">    -1</i>
   <i name="SCISSOR">      0.00000000</i>
   <i type="int" name="NOMEGA">     0</i>
   <i type="int" name="NOMEGAR">     0</i>
   <i type="int" name="NBANDSGW">    -1</i>
   <i type="int" name="NBANDSO">    -1</i>
   <i type="int" name="NBANDSV">    -1</i>
   <i type="int" name="NELM">   100</i>
   <i type="int" name="NELMHF">     1</i>
   <i type="int" name="DIM">     3</i>
   <i type="int" name="IESPILON">     4</i>
   <i type="int" name="ANTIRES">     0</i>
   <i name="OMEGAMAX">    -30.00000000</i>
   <i name="OMEGAMIN">    -30.00000000</i>
   <i name="OMEGATL">   -200.00000000</i>
   <i type="int" name="OMEGAGRID">     0</i>
   <i name="CSHIFT">     -0.10000000</i>
   <i type="logical" name="LSELFENERGY"> F  </i>
   <i type="logical" name="LSPECTRAL"> F  </i>
   <i type="logical" name="LSPECTRALGW"> F  </i>
   <i type="logical" name="LSINGLES"> F  </i>
   <i type="logical" name="LFERMIGW"> F  </i>
   <i type="logical" name="ODDONLYGW"> F  </i>
   <i type="logical" name="EVENONLYGW"> F  </i>
   <i type="int" name="NKREDLFX">     1</i>
   <i type="int" name="NKREDLFY">     1</i>
   <i type="int" name="NKREDLFZ">     1</i>
   <i type="int" name="MAXMEM">  2800</i>
   <i type="int" name="TELESCOPE">     0</i>
   <i type="int" name="NTAUPAR">    -1</i>
   <i type="int" name="NOMEGAPAR">    -1</i>
   <i name="DAMP_NEWTON">      0.80000001</i>
   <i name="LAMBDA">      1.00000000</i>
  </separator>
  <separator name="External order field" >
   <i name="OFIELD_KAPPA">      0.00000000</i>
   <v name="OFIELD_K">      0.00000000      0.00000000      0.00000000</v>
   <i name="OFIELD_Q6_NEAR">      0.00000000</i>
   <i name="OFIELD_Q6_FAR">      0.00000000</i>
   <i name="OFIELD_A">      0.00000000</i>
  </separator>
 </parameters>
 <atominfo>
  <atoms>       4 </atoms>
  <types>       1 </types>
  <array name="atoms" >
   <dimension dim="1">ion</dimension>
   <field type="string">element</field>
   <field type="int">atomtype</field>
   <set>
    <rc><c>Cu</c><c>   1</c></rc>
    <rc><c>Cu</c><c>   1</c></rc>
    <rc><c>Cu</c><c>   1</c></rc>
    <rc><c>Cu</c><c>   1</c></rc>
   </set>
  </array>
  <array name="atomtypes" >
   <dimension dim="1">type</dimension>
   <field type="int">atomspertype</field>
   <field type="string">element</field>
   <field>mass</field>
   <field>valence</field>
   <field type="string">pseudopotential</field>
   <set>
    <rc><c>   4</c><c>Cu</c><c>     63.54600000</c><c>     17.00000000</c><c> PAW_PBE Cu_pv 06Sep2000                </c></rc>
   </set>
  </array>
 </atominfo>
 <structure name="initialpos" >
  <crystal>
   <varray name="basis" >
    <v>       3.57743067       0.00000000       0.00000000 </v>
    <v>       0.00000000       3.57743067       0.00000000 </v>
    <v>       0.00000000       0.00000000       3.61320498 </v>
   </varray>
   <i name="volume">     46.24183420 </i>
   <varray name="rec_basis" >
    <v>       0.27953022      -0.00000000       0.00000000 </v>
    <v>       0.00000000       0.27953022       0.00000000 </v>
    <v>      -0.00000000      -0.00000000       0.27676260 </v>
   </varray>
  </crystal>
  <varray name="positions" >
   <v>       0.00000000       0.00000000       0.00000000 </v>
   <v>       0.00000000       0.50000000       0.50000000 </v>
   <v>       0.50000000       0.00000000       0.50000000 </v>
   <v>       0.50000000       0.50000000       0.00000000 </v>
  </varray>
 </structure>
 <calculation>
  <scstep>
   <time name="dav">    4.88    4.88</time>
   <time name="total">    4.97    4.97</time>
   <energy>
    <i name="alphaZ">    625.98352205 </i>
    <i name="ewald"> -10631.57985322 </i>
    <i name="hartreedc">  -5137.51798885 </i>
    <i name="XCdc">    433.40976685 </i>
    <i name="pawpsdc">  12922.79092432 </i>
    <i name="pawaedc"> -13518.70815821 </i>
    <i name="eentropy">     -0.00014888 </i>
    <i name="bandstr">   -262.55489654 </i>
    <i name="atom">  16476.54478555 </i>
    <i name="e_fr_energy">    908.36795305 </i>
    <i name="e_wo_entrp">    908.36810194 </i>
    <i name="e_0_energy">    908.36800268 </i>
   </energy>
  </scstep>
  <scstep>
   <time name="dav">    4.60    4.60</time>
   <time name="total">    4.60    4.60</time>
   <energy>
    <i name="e_fr_energy">     38.69885992 </i>
    <i name="e_wo_entrp">     38.70088081 </i>
    <i name="e_0_energy">     38.69953355 </i>
   </energy>
  </scstep>
  <scstep>
   <time name="dav">    4.87    4.88</time>
   <time name="total">    4.87    4.88</time>
   <energy>
    <i name="e_fr_energy">    -18.39207165 </i>
    <i name="e_wo_entrp">    -18.39200905 </i>
    <i name="e_0_energy">    -18.39205078 </i>
   </energy>
  </scstep>
  <scstep>
   <time name="dav">    4.79    4.79</time>
   <time name="total">    4.79    4.79</time>
   <energy>
    <i name="e_fr_energy">    -19.77560086 </i>
    <i name="e_wo_entrp">    -19.77576502 </i>
    <i name="e_0_energy">    -19.77565558 </i>
   </energy>
  </scstep>
  <scstep>
   <time name="dav">    5.25    5.25</time>
   <time name="total">    5.80    5.80</time>
   <energy>
    <i name="e_fr_energy">    -19.81994364 </i>
    <i name="e_wo_entrp">    -19.82010126 </i>
    <i name="e_0_energy">    -19.81999618 </i>
   </energy>
  </scstep>
  <scstep>
   <time name="diag">    1.34    1.34</time>
   <time name="diis">    3.58    3.58</time>
   <time name="orth">    0.07    0.07</time>
   <time name="total">    5.61    5.61</time>
   <energy>
    <i name="e_fr_energy">    -17.87940035 </i>
    <i name="e_wo_entrp">    -17.88377351 </i>
    <i name="e_0_energy">    -17.88085807 </i>
   </energy>
  </scstep>
  <scstep>
   <time name="diag">    1.29    1.29</time>
   <time name="diis">    3.54    3.54</time>
   <time name="orth">    0.08    0.08</time>
   <time name="total">    5.54    5.54</time>
   <energy>
    <i name="e_fr_energy">    -16.40243701 </i>
    <i name="e_wo_entrp">    -16.40555611 </i>
    <i name="e_0_energy">    -16.40347671 </i>
   </energy>
  </scstep>
  <scstep>
   <time name="diag">    1.37    1.37</time>
   <time name="diis">    3.75    3.75</time>
   <time name="orth">    0.07    0.07</time>
   <time name="total">    5.80    5.80</time>
   <energy>
    <i name="e_fr_energy">    -16.36738191 </i>
    <i name="e_wo_entrp">    -16.37059388 </i>
    <i name="e_0_energy">    -16.36845257 </i>
   </energy>
  </scstep>
  <scstep>
   <time name="diag">    1.27    1.27</time>
   <time name="diis">    3.72    3.72</time>
   <time name="orth">    0.07    0.07</time>
   <time name="total">    5.69    5.69</time>
   <energy>
    <i name="e_fr_energy">    -16.36643611 </i>
    <i name="e_wo_entrp">    -16.36983152 </i>
    <i name="e_0_energy">    -16.36756791 </i>
   </energy>
  </scstep>
  <scstep>
   <time name="diag">    1.30    1.30</time>
   <time name="diis">    3.94    3.94</time>
   <time name="orth">    0.08    0.08</time>
   <time name="total">    5.96    5.96</time>
   <energy>
    <i name="e_fr_energy">    -16.36670828 </i>
    <i name="e_wo_entrp">    -16.37004475 </i>
    <i name="e_0_energy">    -16.36782044 </i>
   </energy>
  </scstep>
  <scstep>
   <time name="diag">    1.34    1.34</time>
   <time name="diis">    4.16    4.16</time>
   <time name="orth">    0.08    0.08</time>
   <time name="total">    6.24    6.24</time>
   <energy>
    <i name="e_fr_energy">    -16.36673205 </i>
    <i name="e_wo_entrp">    -16.37009883 </i>
    <i name="e_0_energy">    -16.36785431 </i>
   </energy>
  </scstep>
  <scstep>
   <time name="diag">    1.37    1.37</time>
   <time name="diis">    4.56    4.56</time>
   <time name="orth">    0.07    0.07</time>
   <time name="total">    6.62    6.62</time>
   <energy>
    <i name="e_fr_energy">    -16.36675179 </i>
    <i name="e_wo_entrp">    -16.37010723 </i>
    <i name="e_0_energy">    -16.36787027 </i>
   </energy>
  </scstep>
  <scstep>
   <time name="diag">    1.32    1.32</time>
   <time name="diis">    4.67    4.67</time>
   <time name="orth">    0.07    0.07</time>
   <time name="total">    6.68    6.68</time>
   <energy>
    <i name="e_fr_energy">    -16.36675988 </i>
    <i name="e_wo_entrp">    -16.37011795 </i>
    <i name="e_0_energy">    -16.36787924 </i>
   </energy>
  </scstep>
  <scstep>
   <time name="diag">    1.37    1.37</time>
   <time name="diis">    4.86    4.86</time>
   <time name="orth">    0.07    0.07</time>
   <time name="total">    6.94    6.94</time>
   <energy>
    <i name="e_fr_energy">    -16.36676147 </i>
    <i name="e_wo_entrp">    -16.37011883 </i>
    <i name="e_0_energy">    -16.36788059 </i>
   </energy>
  </scstep>
  <scstep>
   <time name="diag">    1.30    1.30</time>
   <time name="diis">    5.02    5.02</time>
   <time name="orth">    0.08    0.08</time>
   <time name="total">    7.06    7.06</time>
   <energy>
    <i name="e_fr_energy">    -16.36676163 </i>
    <i name="e_wo_entrp">    -16.37011917 </i>
    <i name="e_0_energy">    -16.36788081 </i>
   </energy>
  </scstep>
  <scstep>
   <time name="diag">    1.37    1.37</time>
   <time name="diis">    4.14    4.14</time>
   <time name="orth">    0.07    0.07</time>
   <time name="total">    6.22    6.22</time>
   <energy>
    <i name="e_fr_energy">    -16.36676167 </i>
    <i name="e_wo_entrp">    -16.37011909 </i>
    <i name="e_0_energy">    -16.36788081 </i>
   </energy>
  </scstep>
  <scstep>
   <time name="diag">    1.31    1.31</time>
   <time name="diis">    2.67    2.67</time>
   <time name="orth">    0.07    0.07</time>
   <time name="total">    4.69    4.69</time>
   <energy>
    <i name="e_fr_energy">    -16.36676162 </i>
    <i name="e_wo_entrp">    -16.37011916 </i>
    <i name="e_0_energy">    -16.36788080 </i>
   </energy>
  </scstep>
  <scstep>
   <time name="diag">    1.29    1.29</time>
   <time name="diis">    2.40    2.40</time>
   <time name="orth">    0.07    0.07</time>
   <time name="total">    3.86    3.86</time>
   <energy>
    <i name="alphaZ">    625.98352205 </i>
    <i name="ewald"> -10631.57985322 </i>
    <i name="hartreedc">  -4973.55812485 </i>
    <i name="XCdc">    427.72414431 </i>
    <i name="pawpsdc">  12800.46221994 </i>
    <i name="pawaedc"> -13414.30006585 </i>
    <i name="eentropy">      0.00335752 </i>
    <i name="bandstr">  -1327.64674706 </i>
    <i name="atom">  16476.54478555 </i>
    <i name="e_fr_energy">    -16.36676163 </i>
    <i name="e_wo_entrp">    -16.37011915 </i>
    <i name="e_0_energy">    -16.36788080 </i>
   </energy>
  </scstep>
  <structure>
   <crystal>
    <varray name="basis" >
     <v>       3.57743067       0.00000000       0.00000000 </v>
     <v>       0.00000000       3.57743067       0.00000000 </v>
     <v>       0.00000000       0.00000000       3.61320498 </v>
    </varray>
    <i name="volume">     46.24183420 </i>
    <varray name="rec_basis" >
     <v>       0.27953022      -0.00000000       0.00000000 </v>
     <v>       0.00000000       0.27953022       0.00000000 </v>
     <v>      -0.00000000      -0.00000000       0.27676260 </v>
    </varray>
   </crystal>
   <varray name="positions" >
    <v>       0.00000000       0.00000000       0.00000000 </v>
    <v>       0.00000000       0.50000000       0.50000000 </v>
    <v>       0.50000000       0.00000000       0.50000000 </v>
    <v>       0.50000000       0.50000000       0.00000000 </v>
   </varray>
  </structure>
  <varray name="forces" >
   <v>      -0.00000000       0.00000000      -0.00000000 </v>
   <v>      -0.00000000       0.00000000       0.00000000 </v>
   <v>       0.00000000       0.00000000       0.00000000 </v>
   <v>       0.00000000      -0.00000000       0.00000000 </v>
  </varray>
  <varray name="stress" >
   <v>      35.32449869       0.00000000       0.00000000 </v>
   <v>       0.00000000      35.32449869       0.00000000 </v>
   <v>       0.00000000       0.00000000      29.28784576 </v>
  </varray>
  <energy>
   <i name="e_fr_energy">    -16.36676163 </i>
   <i name="e_wo_entrp">    -16.37011915 </i>
   <i name="e_0_energy">    -16.36788080 </i>
  </energy>
  <time name="totalsc">  105.23  105.25</time>
  <eigenvalues>
   <array>
    <dimension dim="1">band</dimension>
    <dimension dim="2">kpoint</dimension>
    <dimension dim="3">spin</dimension>
    <field>eigene</field>
    <field>occ</field>
    <set>
     <set comment="spin 1">
      <set comment="kpoint 1">
       <r>  -62.8157    1.0000 </r>
       <r>  -62.8157    1.0000 </r>
       <r>  -62.8150    1.0000 </r>
       <r>  -62.7522    1.0000 </r>
       <r>  -62.7522    1.0000 </r>
       <r>  -62.7495    1.0000 </r>
       <r>  -62.7495    1.0000 </r>
       <r>  -62.7484    1.0000 </r>
       <r>  -62.7484    1.0000 </r>
       <r>  -62.7069    1.0000 </r>
       <r>  -62.7065    1.0000 </r>
       <r>  -62.7065    1.0000 </r>
       <r>   -2.3872    1.0000 </r>
       <r>    2.1272    1.0000 </r>
       <r>    2.1399    1.0000 </r>
       <r>    2.1399    1.0000 </r>
       <r>    2.6124    1.0000 </r>
       <r>    2.6124    1.0000 </r>
       <r>    2.6174    1.0000 </r>
       <r>    4.0333    1.0000 </r>
       <r>    4.0835    1.0000 </r>
       <r>    4.0835    1.0000 </r>
       <r>    4.8981    1.0000 </r>
       <r>    4.9485    1.0000 </r>
       <r>    5.4962    1.0000 </r>
       <r>    5.4962    1.0000 </r>
       <r>    5.4990    1.0000 </r>
       <r>    5.6505    1.0000 </r>
       <r>    5.6505    1.0000 </r>
       <r>    5.6636    1.0000 </r>
       <r>    5.6636    1.0000 </r>
       <r>    5.6840    1.0000 </r>
       <r>    5.6840    1.0000 </r>
       <r>    8.4633   -0.0000 </r>
       <r>    8.6791   -0.0000 </r>
       <r>    8.6791   -0.0000 </r>
       <r>   14.2504    0.0000 </r>
       <r>   14.5141    0.0000 </r>
       <r>   14.5141    0.0000 </r>
       <r>   20.3547    0.0000 </r>
      </set>
      <set comment="kpoint 2">
       <r>  -62.8146    1.0000 </r>
       <r>  -62.8146    1.0000 </r>
       <r>  -62.8146    1.0000 </r>
       <r>  -62.7524    1.0000 </r>
       <r>  -62.7517    1.0000 </r>
       <r>  -62.7506    1.0000 </r>
       <r>  -62.7499    1.0000 </r>
       <r>  -62.7492    1.0000 </r>
       <r>  -62.7490    1.0000 </r>
       <r>  -62.7078    1.0000 </r>
       <r>  -62.7075    1.0000 </r>
       <r>  -62.7067    1.0000 </r>
       <r>   -2.3008    1.0000 </r>
       <r>    2.1396    1.0000 </r>
       <r>    2.1685    1.0000 </r>
       <r>    2.1808    1.0000 </r>
       <r>    2.6359    1.0000 </r>
       <r>    2.6364    1.0000 </r>
       <r>    2.6421    1.0000 </r>
       <r>    4.0550    1.0000 </r>
       <r>    4.0570    1.0000 </r>
       <r>    4.1038    1.0000 </r>
       <r>    4.8949    1.0000 </r>
       <r>    4.9383    1.0000 </r>
       <r>    5.4657    1.0000 </r>
       <r>    5.4681    1.0000 </r>
       <r>    5.4858    1.0000 </r>
       <r>    5.4975    1.0000 </r>
       <r>    5.5254    1.0000 </r>
       <r>    5.6141    1.0000 </r>
       <r>    5.6459    1.0000 </r>
       <r>    5.6508    1.0000 </r>
       <r>    5.6630    1.0000 </r>
       <r>    8.1603   -0.0000 </r>
       <r>    8.7058   -0.0000 </r>
       <r>    8.9143   -0.0000 </r>
       <r>   14.2805    0.0000 </r>
       <r>   14.5444    0.0000 </r>
       <r>   15.2020    0.0000 </r>
       <r>   19.8136    0.0000 </r>
      </set>
      <set comment="kpoint 3">
       <r>  -62.8119    1.0000 </r>
       <r>  -62.8113    1.0000 </r>
       <r>  -62.8102    1.0000 </r>
       <r>  -62.7542    1.0000 </r>
       <r>  -62.7533    1.0000 </r>
       <r>  -62.7526    1.0000 </r>
       <r>  -62.7497    1.0000 </r>
       <r>  -62.7493    1.0000 </r>
       <r>  -62.7472    1.0000 </r>
       <r>  -62.7132    1.0000 </r>
       <r>  -62.7096    1.0000 </r>
       <r>  -62.7089    1.0000 </r>
       <r>   -2.0434    1.0000 </r>
       <r>    2.1218    1.0000 </r>
       <r>    2.2870    1.0000 </r>
       <r>    2.2976    1.0000 </r>
       <r>    2.7055    1.0000 </r>
       <r>    2.7087    1.0000 </r>
       <r>    2.7170    1.0000 </r>
       <r>    3.9795    1.0000 </r>
       <r>    4.1189    1.0000 </r>
       <r>    4.1643    1.0000 </r>
       <r>    4.8407    1.0000 </r>
       <r>    4.9527    1.0000 </r>
       <r>    5.1165    1.0000 </r>
       <r>    5.1531    1.0000 </r>
       <r>    5.3773    1.0000 </r>
       <r>    5.3787    1.0000 </r>
       <r>    5.4557    1.0000 </r>
       <r>    5.5114    1.0000 </r>
       <r>    5.5377    1.0000 </r>
       <r>    5.6511    1.0000 </r>
       <r>    5.6625    1.0000 </r>
       <r>    7.0613    0.8853 </r>
       <r>    9.3174   -0.0000 </r>
       <r>    9.5155   -0.0000 </r>
       <r>   14.3738    0.0000 </r>
       <r>   14.6383    0.0000 </r>
       <r>   16.8212    0.0000 </r>
       <r>   18.5819    0.0000 </r>
      </set>
      <set comment="kpoint 4">
       <r>  -62.8063    1.0000 </r>
       <r>  -62.8063    1.0000 </r>
       <r>  -62.8015    1.0000 </r>
       <r>  -62.7594    1.0000 </r>
       <r>  -62.7587    1.0000 </r>
       <r>  -62.7521    1.0000 </r>
       <r>  -62.7495    1.0000 </r>
       <r>  -62.7460    1.0000 </r>
       <r>  -62.7437    1.0000 </r>
       <r>  -62.7219    1.0000 </r>
       <r>  -62.7124    1.0000 </r>
       <r>  -62.7122    1.0000 </r>
       <r>   -1.6213    1.0000 </r>
       <r>    2.0276    1.0000 </r>
       <r>    2.4638    1.0000 </r>
       <r>    2.4726    1.0000 </r>
       <r>    2.8171    1.0000 </r>
       <r>    2.8309    1.0000 </r>
       <r>    2.8431    1.0000 </r>
       <r>    3.8574    1.0000 </r>
       <r>    4.2237    1.0000 </r>
       <r>    4.2634    1.0000 </r>
       <r>    4.6738    1.0000 </r>
       <r>    4.7142    1.0000 </r>
       <r>    4.7388    1.0000 </r>
       <r>    4.9961    1.0000 </r>
       <r>    5.2412    1.0000 </r>
       <r>    5.2415    1.0000 </r>
       <r>    5.3560    1.0000 </r>
       <r>    5.3742    1.0000 </r>
       <r>    5.4083    1.0000 </r>
       <r>    5.6524    1.0000 </r>
       <r>    5.6616    1.0000 </r>
       <r>    5.9275    1.0000 </r>
       <r>   10.1429   -0.0000 </r>
       <r>   10.3358   -0.0000 </r>
       <r>   14.5393    0.0000 </r>
       <r>   14.8039    0.0000 </r>
       <r>   17.2213    0.0000 </r>
       <r>   17.4325    0.0000 </r>
      </set>
      <set comment="kpoint 5">
       <r>  -62.7997    1.0000 </r>
       <r>  -62.7994    1.0000 </r>
       <r>  -62.7895    1.0000 </r>
       <r>  -62.7662    1.0000 </r>
       <r>  -62.7657    1.0000 </r>
       <r>  -62.7514    1.0000 </r>
       <r>  -62.7495    1.0000 </r>
       <r>  -62.7407    1.0000 </r>
       <r>  -62.7388    1.0000 </r>
       <r>  -62.7335    1.0000 </r>
       <r>  -62.7170    1.0000 </r>
       <r>  -62.7166    1.0000 </r>
       <r>   -1.0476    1.0000 </r>
       <r>    1.7430    1.0000 </r>
       <r>    2.6652    1.0000 </r>
       <r>    2.6709    1.0000 </r>
       <r>    2.9641    1.0000 </r>
       <r>    3.0049    1.0000 </r>
       <r>    3.0222    1.0000 </r>
       <r>    3.6997    1.0000 </r>
       <r>    4.2432    1.0000 </r>
       <r>    4.2820    1.0000 </r>
       <r>    4.3660    1.0000 </r>
       <r>    4.3984    1.0000 </r>
       <r>    4.6159    1.0000 </r>
       <r>    5.0546    1.0000 </r>
       <r>    5.0551    1.0000 </r>
       <r>    5.0803    1.0000 </r>
       <r>    5.0808    1.0000 </r>
       <r>    5.1662    1.0000 </r>
       <r>    5.1747    1.0000 </r>
       <r>    5.3472    1.0000 </r>
       <r>    5.6539    1.0000 </r>
       <r>    5.6605    1.0000 </r>
       <r>   11.1057   -0.0000 </r>
       <r>   11.2976   -0.0000 </r>
       <r>   14.7900    0.0000 </r>
       <r>   15.0516    0.0000 </r>
       <r>   15.8686    0.0000 </r>
       <r>   16.0743    0.0000 </r>
      </set>
      <set comment="kpoint 6">
       <r>  -62.7915    1.0000 </r>
       <r>  -62.7914    1.0000 </r>
       <r>  -62.7761    1.0000 </r>
       <r>  -62.7743    1.0000 </r>
       <r>  -62.7737    1.0000 </r>
       <r>  -62.7513    1.0000 </r>
       <r>  -62.7502    1.0000 </r>
       <r>  -62.7465    1.0000 </r>
       <r>  -62.7350    1.0000 </r>
       <r>  -62.7334    1.0000 </r>
       <r>  -62.7226    1.0000 </r>
       <r>  -62.7218    1.0000 </r>
       <r>   -0.3471    1.0000 </r>
       <r>    1.1809    1.0000 </r>
       <r>    2.8353    1.0000 </r>
       <r>    2.8381    1.0000 </r>
       <r>    3.1375    1.0000 </r>
       <r>    3.2324    1.0000 </r>
       <r>    3.2558    1.0000 </r>
       <r>    3.5184    1.0000 </r>
       <r>    3.8533    1.0000 </r>
       <r>    3.8880    1.0000 </r>
       <r>    4.5042    1.0000 </r>
       <r>    4.5413    1.0000 </r>
       <r>    4.5647    1.0000 </r>
       <r>    4.5889    1.0000 </r>
       <r>    4.9396    1.0000 </r>
       <r>    4.9401    1.0000 </r>
       <r>    4.9579    1.0000 </r>
       <r>    4.9602    1.0000 </r>
       <r>    5.1247    1.0000 </r>
       <r>    5.2760    1.0000 </r>
       <r>    5.6557    1.0000 </r>
       <r>    5.6592    1.0000 </r>
       <r>   12.1734   -0.0000 </r>
       <r>   12.3669   -0.0000 </r>
       <r>   14.5654    0.0000 </r>
       <r>   14.7662    0.0000 </r>
       <r>   15.1352    0.0000 </r>
       <r>   15.3750    0.0000 </r>
      </set>
      <set comment="kpoint 7">
       <r>  -62.7826    1.0000 </r>
       <r>  -62.7826    1.0000 </r>
       <r>  -62.7825    1.0000 </r>
       <r>  -62.7825    1.0000 </r>
       <r>  -62.7618    1.0000 </r>
       <r>  -62.7618    1.0000 </r>
       <r>  -62.7509    1.0000 </r>
       <r>  -62.7509    1.0000 </r>
       <r>  -62.7289    1.0000 </r>
       <r>  -62.7289    1.0000 </r>
       <r>  -62.7277    1.0000 </r>
       <r>  -62.7277    1.0000 </r>
       <r>    0.4299    1.0000 </r>
       <r>    0.4299    1.0000 </r>
       <r>    2.9052    1.0000 </r>
       <r>    2.9052    1.0000 </r>
       <r>    3.3264    1.0000 </r>
       <r>    3.3264    1.0000 </r>
       <r>    3.5154    1.0000 </r>
       <r>    3.5154    1.0000 </r>
       <r>    3.5446    1.0000 </r>
       <r>    3.5446    1.0000 </r>
       <r>    4.4590    1.0000 </r>
       <r>    4.4590    1.0000 </r>
       <r>    4.7420    1.0000 </r>
       <r>    4.7420    1.0000 </r>
       <r>    4.7551    1.0000 </r>
       <r>    4.7551    1.0000 </r>
       <r>    4.8814    1.0000 </r>
       <r>    4.8814    1.0000 </r>
       <r>    5.2001    1.0000 </r>
       <r>    5.2001    1.0000 </r>
       <r>    5.6575    1.0000 </r>
       <r>    5.6575    1.0000 </r>
       <r>   13.3301    0.0000 </r>
       <r>   13.3301    0.0000 </r>
       <r>   13.5267    0.0000 </r>
       <r>   13.5267    0.0000 </r>
       <r>   15.5054    0.0000 </r>
       <r>   15.5055    0.0000 </r>
      </set>
      <set comment="kpoint 8">
       <r>  -62.8135    1.0000 </r>
       <r>  -62.8134    1.0000 </r>
       <r>  -62.8134    1.0000 </r>
       <r>  -62.7524    1.0000 </r>
       <r>  -62.7516    1.0000 </r>
       <r>  -62.7516    1.0000 </r>
       <r>  -62.7503    1.0000 </r>
       <r>  -62.7503    1.0000 </r>
       <r>  -62.7479    1.0000 </r>
       <r>  -62.7109    1.0000 </r>
       <r>  -62.7082    1.0000 </r>
       <r>  -62.7063    1.0000 </r>
       <r>   -2.2147    1.0000 </r>
       <r>    2.1815    1.0000 </r>
       <r>    2.1815    1.0000 </r>
       <r>    2.2089    1.0000 </r>
       <r>    2.6595    1.0000 </r>
       <r>    2.6595    1.0000 </r>
       <r>    2.6661    1.0000 </r>
       <r>    4.0409    1.0000 </r>
       <r>    4.0742    1.0000 </r>
       <r>    4.1142    1.0000 </r>
       <r>    4.9037    1.0000 </r>
       <r>    4.9177    1.0000 </r>
       <r>    5.3755    1.0000 </r>
       <r>    5.4258    1.0000 </r>
       <r>    5.4258    1.0000 </r>
       <r>    5.4385    1.0000 </r>
       <r>    5.5088    1.0000 </r>
       <r>    5.5088    1.0000 </r>
       <r>    5.6143    1.0000 </r>
       <r>    5.6143    1.0000 </r>
       <r>    5.6403    1.0000 </r>
       <r>    8.3929   -0.0000 </r>
       <r>    8.3929   -0.0000 </r>
       <r>    8.9273   -0.0000 </r>
       <r>   14.3106    0.0000 </r>
       <r>   15.2435    0.0000 </r>
       <r>   15.2435    0.0000 </r>
       <r>   18.8540    0.0000 </r>
      </set>
      <set comment="kpoint 9">
       <r>  -62.8104    1.0000 </r>
       <r>  -62.8103    1.0000 </r>
       <r>  -62.8092    1.0000 </r>
       <r>  -62.7566    1.0000 </r>
       <r>  -62.7535    1.0000 </r>
       <r>  -62.7514    1.0000 </r>
       <r>  -62.7493    1.0000 </r>
       <r>  -62.7482    1.0000 </r>
       <r>  -62.7471    1.0000 </r>
       <r>  -62.7168    1.0000 </r>
       <r>  -62.7101    1.0000 </r>
       <r>  -62.7077    1.0000 </r>
       <r>   -1.9585    1.0000 </r>
       <r>    2.1667    1.0000 </r>
       <r>    2.3013    1.0000 </r>
       <r>    2.3244    1.0000 </r>
       <r>    2.7276    1.0000 </r>
       <r>    2.7305    1.0000 </r>
       <r>    2.7384    1.0000 </r>
       <r>    3.9709    1.0000 </r>
       <r>    4.1313    1.0000 </r>
       <r>    4.1690    1.0000 </r>
       <r>    4.8489    1.0000 </r>
       <r>    4.9399    1.0000 </r>
       <r>    5.0428    1.0000 </r>
       <r>    5.0806    1.0000 </r>
       <r>    5.2963    1.0000 </r>
       <r>    5.3529    1.0000 </r>
       <r>    5.3864    1.0000 </r>
       <r>    5.4679    1.0000 </r>
       <r>    5.5114    1.0000 </r>
       <r>    5.6151    1.0000 </r>
       <r>    5.6277    1.0000 </r>
       <r>    7.3134    0.0294 </r>
       <r>    8.9681   -0.0000 </r>
       <r>    9.5032   -0.0000 </r>
       <r>   14.4031    0.0000 </r>
       <r>   15.3714    0.0000 </r>
       <r>   16.8755    0.0000 </r>
       <r>   17.4790    0.0000 </r>
      </set>
      <set comment="kpoint 10">
       <r>  -62.8057    1.0000 </r>
       <r>  -62.8053    1.0000 </r>
       <r>  -62.8012    1.0000 </r>
       <r>  -62.7619    1.0000 </r>
       <r>  -62.7587    1.0000 </r>
       <r>  -62.7510    1.0000 </r>
       <r>  -62.7470    1.0000 </r>
       <r>  -62.7452    1.0000 </r>
       <r>  -62.7447    1.0000 </r>
       <r>  -62.7257    1.0000 </r>
       <r>  -62.7134    1.0000 </r>
       <r>  -62.7111    1.0000 </r>
       <r>   -1.5385    1.0000 </r>
       <r>    2.0775    1.0000 </r>
       <r>    2.4809    1.0000 </r>
       <r>    2.4975    1.0000 </r>
       <r>    2.8369    1.0000 </r>
       <r>    2.8501    1.0000 </r>
       <r>    2.8592    1.0000 </r>
       <r>    3.8529    1.0000 </r>
       <r>    4.2216    1.0000 </r>
       <r>    4.2662    1.0000 </r>
       <r>    4.6320    1.0000 </r>
       <r>    4.6449    1.0000 </r>
       <r>    4.7526    1.0000 </r>
       <r>    4.9915    1.0000 </r>
       <r>    5.0619    1.0000 </r>
       <r>    5.2211    1.0000 </r>
       <r>    5.2492    1.0000 </r>
       <r>    5.3559    1.0000 </r>
       <r>    5.4030    1.0000 </r>
       <r>    5.6159    1.0000 </r>
       <r>    5.6235    1.0000 </r>
       <r>    6.2613    1.0000 </r>
       <r>    9.7272   -0.0000 </r>
       <r>   10.3006   -0.0000 </r>
       <r>   14.5583    0.0000 </r>
       <r>   15.5952    0.0000 </r>
       <r>   16.1490    0.0000 </r>
       <r>   17.3283    0.0000 </r>
      </set>
      <set comment="kpoint 11">
       <r>  -62.7991    1.0000 </r>
       <r>  -62.7986    1.0000 </r>
       <r>  -62.7904    1.0000 </r>
       <r>  -62.7686    1.0000 </r>
       <r>  -62.7655    1.0000 </r>
       <r>  -62.7497    1.0000 </r>
       <r>  -62.7469    1.0000 </r>
       <r>  -62.7401    1.0000 </r>
       <r>  -62.7400    1.0000 </r>
       <r>  -62.7369    1.0000 </r>
       <r>  -62.7177    1.0000 </r>
       <r>  -62.7156    1.0000 </r>
       <r>   -0.9679    1.0000 </r>
       <r>    1.7993    1.0000 </r>
       <r>    2.6864    1.0000 </r>
       <r>    2.6968    1.0000 </r>
       <r>    2.9808    1.0000 </r>
       <r>    3.0204    1.0000 </r>
       <r>    3.0273    1.0000 </r>
       <r>    3.6994    1.0000 </r>
       <r>    4.2212    1.0000 </r>
       <r>    4.2223    1.0000 </r>
       <r>    4.3276    1.0000 </r>
       <r>    4.4001    1.0000 </r>
       <r>    4.6571    1.0000 </r>
       <r>    4.7157    1.0000 </r>
       <r>    5.0600    1.0000 </r>
       <r>    5.0661    1.0000 </r>
       <r>    5.0890    1.0000 </r>
       <r>    5.1658    1.0000 </r>
       <r>    5.2876    1.0000 </r>
       <r>    5.5852    1.0000 </r>
       <r>    5.6170    1.0000 </r>
       <r>    5.6216    1.0000 </r>
       <r>   10.5955   -0.0000 </r>
       <r>   11.2443   -0.0000 </r>
       <r>   14.6090    0.0000 </r>
       <r>   15.0960    0.0000 </r>
       <r>   15.9221    0.0000 </r>
       <r>   15.9761    0.0000 </r>
      </set>
      <set comment="kpoint 12">
       <r>  -62.7921    1.0000 </r>
       <r>  -62.7907    1.0000 </r>
       <r>  -62.7775    1.0000 </r>
       <r>  -62.7763    1.0000 </r>
       <r>  -62.7735    1.0000 </r>
       <r>  -62.7496    1.0000 </r>
       <r>  -62.7492    1.0000 </r>
       <r>  -62.7478    1.0000 </r>
       <r>  -62.7344    1.0000 </r>
       <r>  -62.7339    1.0000 </r>
       <r>  -62.7228    1.0000 </r>
       <r>  -62.7210    1.0000 </r>
       <r>   -0.2716    1.0000 </r>
       <r>    1.2441    1.0000 </r>
       <r>    2.8622    1.0000 </r>
       <r>    2.8686    1.0000 </r>
       <r>    3.1505    1.0000 </r>
       <r>    3.2414    1.0000 </r>
       <r>    3.2428    1.0000 </r>
       <r>    3.5225    1.0000 </r>
       <r>    3.8385    1.0000 </r>
       <r>    3.8466    1.0000 </r>
       <r>    4.3733    1.0000 </r>
       <r>    4.4337    1.0000 </r>
       <r>    4.5657    1.0000 </r>
       <r>    4.6639    1.0000 </r>
       <r>    4.9322    1.0000 </r>
       <r>    4.9461    1.0000 </r>
       <r>    4.9603    1.0000 </r>
       <r>    5.0565    1.0000 </r>
       <r>    5.1412    1.0000 </r>
       <r>    5.3431    1.0000 </r>
       <r>    5.6180    1.0000 </r>
       <r>    5.6203    1.0000 </r>
       <r>   11.5420   -0.0000 </r>
       <r>   12.2989   -0.0000 </r>
       <r>   13.6309    0.0000 </r>
       <r>   14.6761    0.0000 </r>
       <r>   15.2704    0.0000 </r>
       <r>   16.2103    0.0000 </r>
      </set>
      <set comment="kpoint 13">
       <r>  -62.7843    1.0000 </r>
       <r>  -62.7843    1.0000 </r>
       <r>  -62.7820    1.0000 </r>
       <r>  -62.7820    1.0000 </r>
       <r>  -62.7636    1.0000 </r>
       <r>  -62.7636    1.0000 </r>
       <r>  -62.7487    1.0000 </r>
       <r>  -62.7487    1.0000 </r>
       <r>  -62.7286    1.0000 </r>
       <r>  -62.7286    1.0000 </r>
       <r>  -62.7273    1.0000 </r>
       <r>  -62.7273    1.0000 </r>
       <r>    0.4998    1.0000 </r>
       <r>    0.4998    1.0000 </r>
       <r>    2.9370    1.0000 </r>
       <r>    2.9370    1.0000 </r>
       <r>    3.3352    1.0000 </r>
       <r>    3.3352    1.0000 </r>
       <r>    3.5100    1.0000 </r>
       <r>    3.5100    1.0000 </r>
       <r>    3.5186    1.0000 </r>
       <r>    3.5186    1.0000 </r>
       <r>    4.3529    1.0000 </r>
       <r>    4.3529    1.0000 </r>
       <r>    4.7557    1.0000 </r>
       <r>    4.7557    1.0000 </r>
       <r>    4.8248    1.0000 </r>
       <r>    4.8248    1.0000 </r>
       <r>    4.8815    1.0000 </r>
       <r>    4.8815    1.0000 </r>
       <r>    5.2327    1.0000 </r>
       <r>    5.2327    1.0000 </r>
       <r>    5.6192    1.0000 </r>
       <r>    5.6192    1.0000 </r>
       <r>   12.5559   -0.0000 </r>
       <r>   12.5559   -0.0000 </r>
       <r>   13.4466    0.0000 </r>
       <r>   13.4466    0.0000 </r>
       <r>   15.7445    0.0000 </r>
       <r>   15.7445    0.0000 </r>
      </set>
      <set comment="kpoint 14">
       <r>  -62.8074    1.0000 </r>
       <r>  -62.8069    1.0000 </r>
       <r>  -62.8069    1.0000 </r>
       <r>  -62.7620    1.0000 </r>
       <r>  -62.7514    1.0000 </r>
       <r>  -62.7514    1.0000 </r>
       <r>  -62.7485    1.0000 </r>
       <r>  -62.7485    1.0000 </r>
       <r>  -62.7448    1.0000 </r>
       <r>  -62.7241    1.0000 </r>
       <r>  -62.7122    1.0000 </r>
       <r>  -62.7075    1.0000 </r>
       <r>   -1.7058    1.0000 </r>
       <r>    2.2956    1.0000 </r>
       <r>    2.2956    1.0000 </r>
       <r>    2.4314    1.0000 </r>
       <r>    2.7944    1.0000 </r>
       <r>    2.7944    1.0000 </r>
       <r>    2.8026    1.0000 </r>
       <r>    3.9260    1.0000 </r>
       <r>    4.1673    1.0000 </r>
       <r>    4.2032    1.0000 </r>
       <r>    4.8227    1.0000 </r>
       <r>    4.8343    1.0000 </r>
       <r>    4.8966    1.0000 </r>
       <r>    4.8966    1.0000 </r>
       <r>    4.9425    1.0000 </r>
       <r>    5.2776    1.0000 </r>
       <r>    5.3791    1.0000 </r>
       <r>    5.3791    1.0000 </r>
       <r>    5.5116    1.0000 </r>
       <r>    5.5116    1.0000 </r>
       <r>    5.5728    1.0000 </r>
       <r>    7.8724   -0.0000 </r>
       <r>    7.8724   -0.0000 </r>
       <r>   10.0096   -0.0000 </r>
       <r>   14.4809    0.0000 </r>
       <r>   15.9996    0.0000 </r>
       <r>   17.0401    0.0000 </r>
       <r>   17.0401    0.0000 </r>
      </set>
      <set comment="kpoint 15">
       <r>  -62.8032    1.0000 </r>
       <r>  -62.8022    1.0000 </r>
       <r>  -62.8006    1.0000 </r>
       <r>  -62.7676    1.0000 </r>
       <r>  -62.7565    1.0000 </r>
       <r>  -62.7479    1.0000 </r>
       <r>  -62.7471    1.0000 </r>
       <r>  -62.7438    1.0000 </r>
       <r>  -62.7431    1.0000 </r>
       <r>  -62.7337    1.0000 </r>
       <r>  -62.7157    1.0000 </r>
       <r>  -62.7092    1.0000 </r>
       <r>   -1.2922    1.0000 </r>
       <r>    2.2215    1.0000 </r>
       <r>    2.4904    1.0000 </r>
       <r>    2.5927    1.0000 </r>
       <r>    2.8966    1.0000 </r>
       <r>    2.9067    1.0000 </r>
       <r>    2.9083    1.0000 </r>
       <r>    3.8300    1.0000 </r>
       <r>    4.2203    1.0000 </r>
       <r>    4.2858    1.0000 </r>
       <r>    4.4662    1.0000 </r>
       <r>    4.5047    1.0000 </r>
       <r>    4.6339    1.0000 </r>
       <r>    4.7636    1.0000 </r>
       <r>    5.0065    1.0000 </r>
       <r>    5.1607    1.0000 </r>
       <r>    5.2493    1.0000 </r>
       <r>    5.3279    1.0000 </r>
       <r>    5.3556    1.0000 </r>
       <r>    5.5118    1.0000 </r>
       <r>    5.5405    1.0000 </r>
       <r>    6.8155    1.0161 </r>
       <r>    8.5599   -0.0000 </r>
       <r>   10.7449   -0.0000 </r>
       <r>   14.3210    0.0000 </r>
       <r>   14.9449    0.0000 </r>
       <r>   17.3133    0.0000 </r>
       <r>   17.6430    0.0000 </r>
      </set>
      <set comment="kpoint 16">
       <r>  -62.7988    1.0000 </r>
       <r>  -62.7954    1.0000 </r>
       <r>  -62.7918    1.0000 </r>
       <r>  -62.7738    1.0000 </r>
       <r>  -62.7630    1.0000 </r>
       <r>  -62.7457    1.0000 </r>
       <r>  -62.7448    1.0000 </r>
       <r>  -62.7430    1.0000 </r>
       <r>  -62.7421    1.0000 </r>
       <r>  -62.7379    1.0000 </r>
       <r>  -62.7205    1.0000 </r>
       <r>  -62.7130    1.0000 </r>
       <r>   -0.7312    1.0000 </r>
       <r>    1.9623    1.0000 </r>
       <r>    2.7172    1.0000 </r>
       <r>    2.7845    1.0000 </r>
       <r>    3.0310    1.0000 </r>
       <r>    3.0457    1.0000 </r>
       <r>    3.0659    1.0000 </r>
       <r>    3.6939    1.0000 </r>
       <r>    4.0642    1.0000 </r>
       <r>    4.1578    1.0000 </r>
       <r>    4.2636    1.0000 </r>
       <r>    4.3568    1.0000 </r>
       <r>    4.4114    1.0000 </r>
       <r>    4.7024    1.0000 </r>
       <r>    5.0225    1.0000 </r>
       <r>    5.0935    1.0000 </r>
       <r>    5.1037    1.0000 </r>
       <r>    5.1658    1.0000 </r>
       <r>    5.2215    1.0000 </r>
       <r>    5.5123    1.0000 </r>
       <r>    5.5251    1.0000 </r>
       <r>    6.0517    1.0000 </r>
       <r>    9.3256   -0.0000 </r>
       <r>   11.6420   -0.0000 </r>
       <r>   13.2125    0.0000 </r>
       <r>   15.0655    0.0000 </r>
       <r>   16.2921    0.0000 </r>
       <r>   17.4056    0.0000 </r>
      </set>
      <set comment="kpoint 17">
       <r>  -62.7932    1.0000 </r>
       <r>  -62.7875    1.0000 </r>
       <r>  -62.7811    1.0000 </r>
       <r>  -62.7805    1.0000 </r>
       <r>  -62.7708    1.0000 </r>
       <r>  -62.7565    1.0000 </r>
       <r>  -62.7443    1.0000 </r>
       <r>  -62.7424    1.0000 </r>
       <r>  -62.7372    1.0000 </r>
       <r>  -62.7311    1.0000 </r>
       <r>  -62.7257    1.0000 </r>
       <r>  -62.7182    1.0000 </r>
       <r>   -0.0485    1.0000 </r>
       <r>    1.4277    1.0000 </r>
       <r>    2.9214    1.0000 </r>
       <r>    2.9640    1.0000 </r>
       <r>    3.1891    1.0000 </r>
       <r>    3.2020    1.0000 </r>
       <r>    3.2727    1.0000 </r>
       <r>    3.5328    1.0000 </r>
       <r>    3.7099    1.0000 </r>
       <r>    3.8249    1.0000 </r>
       <r>    4.1979    1.0000 </r>
       <r>    4.2467    1.0000 </r>
       <r>    4.5720    1.0000 </r>
       <r>    4.7324    1.0000 </r>
       <r>    4.9063    1.0000 </r>
       <r>    4.9491    1.0000 </r>
       <r>    4.9615    1.0000 </r>
       <r>    5.0551    1.0000 </r>
       <r>    5.2259    1.0000 </r>
       <r>    5.5130    1.0000 </r>
       <r>    5.5180    1.0000 </r>
       <r>    5.6158    1.0000 </r>
       <r>   10.1622   -0.0000 </r>
       <r>   12.0928   -0.0000 </r>
       <r>   12.6632    0.0000 </r>
       <r>   15.0010    0.0000 </r>
       <r>   15.4441    0.0000 </r>
       <r>   16.6470    0.0000 </r>
      </set>
      <set comment="kpoint 18">
       <r>  -62.7873    1.0000 </r>
       <r>  -62.7873    1.0000 </r>
       <r>  -62.7793    1.0000 </r>
       <r>  -62.7793    1.0000 </r>
       <r>  -62.7689    1.0000 </r>
       <r>  -62.7689    1.0000 </r>
       <r>  -62.7437    1.0000 </r>
       <r>  -62.7437    1.0000 </r>
       <r>  -62.7313    1.0000 </r>
       <r>  -62.7313    1.0000 </r>
       <r>  -62.7245    1.0000 </r>
       <r>  -62.7245    1.0000 </r>
       <r>    0.7048    1.0000 </r>
       <r>    0.7048    1.0000 </r>
       <r>    3.0261    1.0000 </r>
       <r>    3.0261    1.0000 </r>
       <r>    3.3603    1.0000 </r>
       <r>    3.3603    1.0000 </r>
       <r>    3.4153    1.0000 </r>
       <r>    3.4153    1.0000 </r>
       <r>    3.5266    1.0000 </r>
       <r>    3.5266    1.0000 </r>
       <r>    4.1908    1.0000 </r>
       <r>    4.1908    1.0000 </r>
       <r>    4.7589    1.0000 </r>
       <r>    4.7589    1.0000 </r>
       <r>    4.8686    1.0000 </r>
       <r>    4.8686    1.0000 </r>
       <r>    4.8729    1.0000 </r>
       <r>    4.8729    1.0000 </r>
       <r>    5.3813    1.0000 </r>
       <r>    5.3813    1.0000 </r>
       <r>    5.5144    1.0000 </r>
       <r>    5.5144    1.0000 </r>
       <r>   11.0791   -0.0000 </r>
       <r>   11.0791   -0.0000 </r>
       <r>   13.7873    0.0000 </r>
       <r>   13.7873    0.0000 </r>
       <r>   15.9708    0.0000 </r>
       <r>   15.9708    0.0000 </r>
      </set>
      <set comment="kpoint 19">
       <r>  -62.7991    1.0000 </r>
       <r>  -62.7991    1.0000 </r>
       <r>  -62.7970    1.0000 </r>
       <r>  -62.7735    1.0000 </r>
       <r>  -62.7527    1.0000 </r>
       <r>  -62.7527    1.0000 </r>
       <r>  -62.7437    1.0000 </r>
       <r>  -62.7416    1.0000 </r>
       <r>  -62.7416    1.0000 </r>
       <r>  -62.7399    1.0000 </r>
       <r>  -62.7196    1.0000 </r>
       <r>  -62.7096    1.0000 </r>
       <r>   -0.8899    1.0000 </r>
       <r>    2.4411    1.0000 </r>
       <r>    2.4411    1.0000 </r>
       <r>    2.7336    1.0000 </r>
       <r>    2.9901    1.0000 </r>
       <r>    2.9968    1.0000 </r>
       <r>    2.9968    1.0000 </r>
       <r>    3.7708    1.0000 </r>
       <r>    4.2223    1.0000 </r>
       <r>    4.2337    1.0000 </r>
       <r>    4.2337    1.0000 </r>
       <r>    4.2999    1.0000 </r>
       <r>    4.3429    1.0000 </r>
       <r>    4.7260    1.0000 </r>
       <r>    5.0643    1.0000 </r>
       <r>    5.0887    1.0000 </r>
       <r>    5.2081    1.0000 </r>
       <r>    5.2081    1.0000 </r>
       <r>    5.3556    1.0000 </r>
       <r>    5.3556    1.0000 </r>
       <r>    5.4628    1.0000 </r>
       <r>    7.4345   -0.0338 </r>
       <r>    7.4345   -0.0338 </r>
       <r>   11.4151   -0.0000 </r>
       <r>   13.0455    0.0000 </r>
       <r>   14.9975    0.0000 </r>
       <r>   18.1486    0.0000 </r>
       <r>   18.1486    0.0000 </r>
      </set>
      <set comment="kpoint 20">
       <r>  -62.7971    1.0000 </r>
       <r>  -62.7934    1.0000 </r>
       <r>  -62.7907    1.0000 </r>
       <r>  -62.7798    1.0000 </r>
       <r>  -62.7591    1.0000 </r>
       <r>  -62.7541    1.0000 </r>
       <r>  -62.7477    1.0000 </r>
       <r>  -62.7396    1.0000 </r>
       <r>  -62.7378    1.0000 </r>
       <r>  -62.7353    1.0000 </r>
       <r>  -62.7244    1.0000 </r>
       <r>  -62.7118    1.0000 </r>
       <r>   -0.3463    1.0000 </r>
       <r>    2.2121    1.0000 </r>
       <r>    2.7023    1.0000 </r>
       <r>    2.9016    1.0000 </r>
       <r>    3.0899    1.0000 </r>
       <r>    3.1144    1.0000 </r>
       <r>    3.1376    1.0000 </r>
       <r>    3.6716    1.0000 </r>
       <r>    3.8785    1.0000 </r>
       <r>    4.0413    1.0000 </r>
       <r>    4.0477    1.0000 </r>
       <r>    4.2109    1.0000 </r>
       <r>    4.4469    1.0000 </r>
       <r>    4.6803    1.0000 </r>
       <r>    4.9479    1.0000 </r>
       <r>    5.0610    1.0000 </r>
       <r>    5.1105    1.0000 </r>
       <r>    5.1670    1.0000 </r>
       <r>    5.2274    1.0000 </r>
       <r>    5.3566    1.0000 </r>
       <r>    5.4112    1.0000 </r>
       <r>    6.5637    1.0001 </r>
       <r>    8.1107   -0.0000 </r>
       <r>   11.7859   -0.0000 </r>
       <r>   12.2578   -0.0000 </r>
       <r>   15.2940    0.0000 </r>
       <r>   16.7996    0.0000 </r>
       <r>   17.9099    0.0000 </r>
      </set>
      <set comment="kpoint 21">
       <r>  -62.7941    1.0000 </r>
       <r>  -62.7855    1.0000 </r>
       <r>  -62.7852    1.0000 </r>
       <r>  -62.7829    1.0000 </r>
       <r>  -62.7667    1.0000 </r>
       <r>  -62.7647    1.0000 </r>
       <r>  -62.7418    1.0000 </r>
       <r>  -62.7381    1.0000 </r>
       <r>  -62.7366    1.0000 </r>
       <r>  -62.7300    1.0000 </r>
       <r>  -62.7284    1.0000 </r>
       <r>  -62.7160    1.0000 </r>
       <r>    0.3111    1.0000 </r>
       <r>    1.7131    1.0000 </r>
       <r>    2.9522    1.0000 </r>
       <r>    3.0907    1.0000 </r>
       <r>    3.1588    1.0000 </r>
       <r>    3.2516    1.0000 </r>
       <r>    3.3184    1.0000 </r>
       <r>    3.5427    1.0000 </r>
       <r>    3.5717    1.0000 </r>
       <r>    3.7847    1.0000 </r>
       <r>    3.9874    1.0000 </r>
       <r>    4.1503    1.0000 </r>
       <r>    4.5924    1.0000 </r>
       <r>    4.7011    1.0000 </r>
       <r>    4.8525    1.0000 </r>
       <r>    4.9196    1.0000 </r>
       <r>    4.9639    1.0000 </r>
       <r>    4.9659    1.0000 </r>
       <r>    5.3595    1.0000 </r>
       <r>    5.3822    1.0000 </r>
       <r>    5.4071    1.0000 </r>
       <r>    5.9930    1.0000 </r>
       <r>    8.8590   -0.0000 </r>
       <r>   10.6727   -0.0000 </r>
       <r>   13.2367    0.0000 </r>
       <r>   15.5212    0.0000 </r>
       <r>   15.7252    0.0000 </r>
       <r>   17.0290    0.0000 </r>
      </set>
      <set comment="kpoint 22">
       <r>  -62.7904    1.0000 </r>
       <r>  -62.7904    1.0000 </r>
       <r>  -62.7755    1.0000 </r>
       <r>  -62.7755    1.0000 </r>
       <r>  -62.7748    1.0000 </r>
       <r>  -62.7748    1.0000 </r>
       <r>  -62.7372    1.0000 </r>
       <r>  -62.7372    1.0000 </r>
       <r>  -62.7357    1.0000 </r>
       <r>  -62.7357    1.0000 </r>
       <r>  -62.7216    1.0000 </r>
       <r>  -62.7216    1.0000 </r>
       <r>    1.0301    1.0000 </r>
       <r>    1.0301    1.0000 </r>
       <r>    3.1204    1.0000 </r>
       <r>    3.1204    1.0000 </r>
       <r>    3.3118    1.0000 </r>
       <r>    3.3118    1.0000 </r>
       <r>    3.3983    1.0000 </r>
       <r>    3.3983    1.0000 </r>
       <r>    3.5365    1.0000 </r>
       <r>    3.5365    1.0000 </r>
       <r>    4.0522    1.0000 </r>
       <r>    4.0522    1.0000 </r>
       <r>    4.7696    1.0000 </r>
       <r>    4.7696    1.0000 </r>
       <r>    4.8086    1.0000 </r>
       <r>    4.8086    1.0000 </r>
       <r>    4.8360    1.0000 </r>
       <r>    4.8360    1.0000 </r>
       <r>    5.3669    1.0000 </r>
       <r>    5.3669    1.0000 </r>
       <r>    5.6428    1.0000 </r>
       <r>    5.6428    1.0000 </r>
       <r>    9.7039   -0.0000 </r>
       <r>    9.7039   -0.0000 </r>
       <r>   14.3294    0.0000 </r>
       <r>   14.3294    0.0000 </r>
       <r>   16.2999    0.0000 </r>
       <r>   16.2999    0.0000 </r>
      </set>
      <set comment="kpoint 23">
       <r>  -62.7940    1.0000 </r>
       <r>  -62.7940    1.0000 </r>
       <r>  -62.7853    1.0000 </r>
       <r>  -62.7846    1.0000 </r>
       <r>  -62.7638    1.0000 </r>
       <r>  -62.7540    1.0000 </r>
       <r>  -62.7540    1.0000 </r>
       <r>  -62.7341    1.0000 </r>
       <r>  -62.7329    1.0000 </r>
       <r>  -62.7329    1.0000 </r>
       <r>  -62.7295    1.0000 </r>
       <r>  -62.7124    1.0000 </r>
       <r>    0.1696    1.0000 </r>
       <r>    2.5113    1.0000 </r>
       <r>    2.5113    1.0000 </r>
       <r>    2.9986    1.0000 </r>
       <r>    3.1797    1.0000 </r>
       <r>    3.2300    1.0000 </r>
       <r>    3.2300    1.0000 </r>
       <r>    3.6215    1.0000 </r>
       <r>    3.7756    1.0000 </r>
       <r>    3.7756    1.0000 </r>
       <r>    3.8974    1.0000 </r>
       <r>    4.1609    1.0000 </r>
       <r>    4.5213    1.0000 </r>
       <r>    4.6285    1.0000 </r>
       <r>    4.8521    1.0000 </r>
       <r>    4.9733    1.0000 </r>
       <r>    4.9733    1.0000 </r>
       <r>    5.1713    1.0000 </r>
       <r>    5.1713    1.0000 </r>
       <r>    5.3141    1.0000 </r>
       <r>    5.4158    1.0000 </r>
       <r>    7.1293    0.6564 </r>
       <r>    7.1293    0.6564 </r>
       <r>   10.5216   -0.0000 </r>
       <r>   13.0499    0.0000 </r>
       <r>   15.6462    0.0000 </r>
       <r>   17.4767    0.0000 </r>
       <r>   17.4767    0.0000 </r>
      </set>
      <set comment="kpoint 24">
       <r>  -62.7936    1.0000 </r>
       <r>  -62.7896    1.0000 </r>
       <r>  -62.7890    1.0000 </r>
       <r>  -62.7772    1.0000 </r>
       <r>  -62.7733    1.0000 </r>
       <r>  -62.7612    1.0000 </r>
       <r>  -62.7478    1.0000 </r>
       <r>  -62.7354    1.0000 </r>
       <r>  -62.7316    1.0000 </r>
       <r>  -62.7313    1.0000 </r>
       <r>  -62.7260    1.0000 </r>
       <r>  -62.7154    1.0000 </r>
       <r>    0.7855    1.0000 </r>
       <r>    2.0637    1.0000 </r>
       <r>    2.7991    1.0000 </r>
       <r>    3.0440    1.0000 </r>
       <r>    3.2929    1.0000 </r>
       <r>    3.3351    1.0000 </r>
       <r>    3.3747    1.0000 </r>
       <r>    3.5426    1.0000 </r>
       <r>    3.5640    1.0000 </r>
       <r>    3.7221    1.0000 </r>
       <r>    3.8203    1.0000 </r>
       <r>    4.0765    1.0000 </r>
       <r>    4.6242    1.0000 </r>
       <r>    4.6393    1.0000 </r>
       <r>    4.7700    1.0000 </r>
       <r>    4.8399    1.0000 </r>
       <r>    4.8400    1.0000 </r>
       <r>    4.9783    1.0000 </r>
       <r>    5.1824    1.0000 </r>
       <r>    5.2463    1.0000 </r>
       <r>    5.6559    1.0000 </r>
       <r>    6.4321    1.0000 </r>
       <r>    7.7731   -0.0001 </r>
       <r>    9.4383   -0.0000 </r>
       <r>   13.9866    0.0000 </r>
       <r>   16.1304    0.0000 </r>
       <r>   16.2132    0.0000 </r>
       <r>   17.5471    0.0000 </r>
      </set>
      <set comment="kpoint 25">
       <r>  -62.7921    1.0000 </r>
       <r>  -62.7921    1.0000 </r>
       <r>  -62.7819    1.0000 </r>
       <r>  -62.7819    1.0000 </r>
       <r>  -62.7692    1.0000 </r>
       <r>  -62.7692    1.0000 </r>
       <r>  -62.7416    1.0000 </r>
       <r>  -62.7416    1.0000 </r>
[...]
        <r>  0.0043  0.0291  0.0057  0.0341  0.0021  0.0003  0.0144  0.0034  0.0421 </r>
       </set>
       <set comment="band 34">
        <r>  0.0009  0.0064  0.0049  0.0144  0.0009  0.0003  0.0032  0.1047  0.0092 </r>
        <r>  0.0007  0.0048  0.0066  0.0460  0.0028  0.0004  0.0024  0.0329  0.0069 </r>
        <r>  0.0064  0.0435  0.0142  0.0050  0.0003  0.0008  0.0216  0.0153  0.0629 </r>
        <r>  0.0020  0.0137  0.0451  0.0067  0.0004  0.0026  0.0068  0.0114  0.0197 </r>
       </set>
       <set comment="band 35">
        <r>  0.0008  0.0054  0.0507  0.0093  0.0006  0.0030  0.0027  0.0122  0.0079 </r>
        <r>  0.0072  0.0490  0.0056  0.0054  0.0003  0.0003  0.0243  0.0213  0.0707 </r>
        <r>  0.0008  0.0051  0.0092  0.0517  0.0032  0.0005  0.0025  0.0131  0.0073 </r>
        <r>  0.0013  0.0088  0.0053  0.0058  0.0004  0.0003  0.0044  0.1177  0.0128 </r>
       </set>
       <set comment="band 36">
        <r>  0.0036  0.0242  0.0137  0.0176  0.0011  0.0008  0.0120  0.0342  0.0350 </r>
        <r>  0.0020  0.0132  0.0251  0.0150  0.0009  0.0015  0.0066  0.0401  0.0191 </r>
        <r>  0.0021  0.0142  0.0173  0.0140  0.0009  0.0010  0.0070  0.0582  0.0205 </r>
        <r>  0.0025  0.0167  0.0147  0.0256  0.0016  0.0009  0.0083  0.0318  0.0241 </r>
       </set>
       <set comment="band 37">
        <r>  0.0415  0.0016  0.0001  0.0016  0.0541  0.0033  0.0000  0.0455  0.0000 </r>
        <r>  0.0084  0.0003  0.0005  0.0015  0.0508  0.0162  0.0000  0.0485  0.0000 </r>
        <r>  0.1260  0.0050  0.0016  0.0001  0.0034  0.0524  0.0001  0.0150  0.0001 </r>
        <r>  0.1343  0.0053  0.0015  0.0005  0.0167  0.0491  0.0001  0.0031  0.0001 </r>
       </set>
       <set comment="band 38">
        <r>  0.0623  0.0025  0.0004  0.0016  0.0534  0.0144  0.0000  0.0284  0.0000 </r>
        <r>  0.0370  0.0015  0.0007  0.0009  0.0317  0.0243  0.0000  0.0478  0.0000 </r>
        <r>  0.0786  0.0031  0.0016  0.0004  0.0149  0.0516  0.0000  0.0225  0.0001 </r>
        <r>  0.1323  0.0052  0.0009  0.0008  0.0251  0.0307  0.0001  0.0134  0.0001 </r>
       </set>
       <set comment="band 39">
        <r>  0.1104  0.0044  0.0017  0.0002  0.0070  0.0542  0.0000  0.0157  0.0001 </r>
        <r>  0.1390  0.0055  0.0013  0.0005  0.0175  0.0430  0.0001  0.0063  0.0001 </r>
        <r>  0.0434  0.0017  0.0002  0.0017  0.0560  0.0068  0.0000  0.0399  0.0000 </r>
        <r>  0.0174  0.0007  0.0005  0.0013  0.0445  0.0169  0.0000  0.0502  0.0000 </r>
       </set>
       <set comment="band 40">
        <r>  0.0961  0.0038  0.0015  0.0003  0.0106  0.0490  0.0000  0.0225  0.0001 </r>
        <r>  0.1258  0.0050  0.0011  0.0007  0.0251  0.0375  0.0001  0.0095  0.0001 </r>
        <r>  0.0622  0.0025  0.0003  0.0015  0.0507  0.0102  0.0000  0.0347  0.0000 </r>
        <r>  0.0262  0.0010  0.0007  0.0012  0.0387  0.0242  0.0000  0.0454  0.0000 </r>
       </set>
      </set>
      <set comment="kpoint 196">
       <set comment="band 1">
        <r>  0.0000  0.0898  0.1121  0.1249  0.0000  0.0000  0.0000  0.0000  0.0000 </r>
        <r>  0.0000  0.1158  0.0869  0.0047  0.0000  0.0000  0.0000  0.0000  0.0000 </r>
        <r>  0.0000  0.0047  0.1210  0.1158  0.0000  0.0000  0.0000  0.0000  0.0000 </r>
        <r>  0.0000  0.1249  0.0045  0.0898  0.0000  0.0000  0.0000  0.0000  0.0000 </r>
       </set>
       <set comment="band 2">
        <r>  0.0000  0.0777  0.0372  0.0544  0.0000  0.0000  0.0000  0.0000  0.0000 </r>
        <r>  0.0000  0.0384  0.0753  0.1646  0.0000  0.0000  0.0000  0.0000  0.0000 </r>
        <r>  0.0000  0.1646  0.0527  0.0384  0.0000  0.0000  0.0000  0.0000  0.0000 </r>
        <r>  0.0000  0.0544  0.1594  0.0777  0.0000  0.0000  0.0000  0.0000  0.0000 </r>
       </set>
       <set comment="band 3">
        <r>  0.0000  0.0386  0.0775  0.1482  0.0000  0.0000  0.0000  0.0000  0.0000 </r>
        <r>  0.0000  0.0801  0.0374  0.0683  0.0000  0.0000  0.0000  0.0000  0.0000 </r>
        <r>  0.0000  0.0683  0.1435  0.0801  0.0000  0.0000  0.0000  0.0000  0.0000 </r>
        <r>  0.0000  0.1482  0.0661  0.0386  0.0000  0.0000  0.0000  0.0000  0.0000 </r>
       </set>
       <set comment="band 4">
        <r>  0.0000  0.1291  0.0977  0.0076  0.0000  0.0000  0.0000  0.0000  0.0000 </r>
        <r>  0.0000  0.1009  0.1250  0.0976  0.0000  0.0000  0.0000  0.0000  0.0000 </r>
        <r>  0.0000  0.0976  0.0074  0.1009  0.0000  0.0000  0.0000  0.0000  0.0000 </r>
        <r>  0.0000  0.0076  0.0945  0.1291  0.0000  0.0000  0.0000  0.0000  0.0000 </r>
       </set>
       <set comment="band 5">
        <r>  0.0000  0.1022  0.1385  0.0175  0.0000  0.0000  0.0000  0.0000  0.0000 </r>
        <r>  0.0000  0.0335  0.4223  0.0095  0.0000  0.0000  0.0000  0.0000  0.0000 </r>
        <r>  0.0000  0.0095  0.0721  0.0335  0.0000  0.0000  0.0000  0.0000  0.0000 </r>
        <r>  0.0000  0.0175  0.0393  0.1022  0.0000  0.0000  0.0000  0.0000  0.0000 </r>
       </set>
       <set comment="band 6">
        <r>  0.0000  0.0111  0.1204  0.0397  0.0000  0.0000  0.0000  0.0000  0.0000 </r>
        <r>  0.0000  0.0291  0.0461  0.0827  0.0000  0.0000  0.0000  0.0000  0.0000 </r>
        <r>  0.0000  0.0827  0.1642  0.0291  0.0000  0.0000  0.0000  0.0000  0.0000 </r>
        <r>  0.0000  0.0397  0.3415  0.0111  0.0000  0.0000  0.0000  0.0000  0.0000 </r>
       </set>
       <set comment="band 7">
        <r>  0.0000  0.0323  0.1498  0.0764  0.0000  0.0000  0.0000  0.0000  0.0000 </r>
        <r>  0.0000  0.0363  0.1336  0.0177  0.0000  0.0000  0.0000  0.0000  0.0000 </r>
        <r>  0.0000  0.0177  0.3157  0.0363  0.0000  0.0000  0.0000  0.0000  0.0000 </r>
        <r>  0.0000  0.0764  0.0731  0.0323  0.0000  0.0000  0.0000  0.0000  0.0000 </r>
       </set>
       <set comment="band 8">
        <r>  0.0000  0.0170  0.2635  0.0291  0.0000  0.0000  0.0000  0.0000  0.0000 </r>
        <r>  0.0000  0.0638  0.0702  0.0528  0.0000  0.0000  0.0000  0.0000  0.0000 </r>
        <r>  0.0000  0.0528  0.1201  0.0638  0.0000  0.0000  0.0000  0.0000  0.0000 </r>
        <r>  0.0000  0.0291  0.2183  0.0170  0.0000  0.0000  0.0000  0.0000  0.0000 </r>
       </set>
       <set comment="band 9">
        <r>  0.0000  0.1680  0.0000  0.0821  0.0000  0.0000  0.0000  0.0000  0.0000 </r>
        <r>  0.0000  0.0078  0.0000  0.2410  0.0000  0.0000  0.0000  0.0000  0.0000 </r>
        <r>  0.0000  0.2410  0.0000  0.0078  0.0000  0.0000  0.0000  0.0000  0.0000 </r>
        <r>  0.0000  0.0821  0.0000  0.1680  0.0000  0.0000  0.0000  0.0000  0.0000 </r>
       </set>
       <set comment="band 10">
        <r>  0.0000  0.1139  0.0000  0.0479  0.0000  0.0000  0.0000  0.0000  0.0000 </r>
        <r>  0.0000  0.3277  0.0000  0.0093  0.0000  0.0000  0.0000  0.0000  0.0000 </r>
        <r>  0.0000  0.0093  0.0000  0.3277  0.0000  0.0000  0.0000  0.0000  0.0000 </r>
        <r>  0.0000  0.0479  0.0000  0.1139  0.0000  0.0000  0.0000  0.0000  0.0000 </r>
       </set>
       <set comment="band 11">
        <r>  0.0000  0.0873  0.0000  0.2820  0.0000  0.0000  0.0000  0.0000  0.0000 </r>
        <r>  0.0000  0.1207  0.0000  0.0088  0.0000  0.0000  0.0000  0.0000  0.0000 </r>
        <r>  0.0000  0.0088  0.0000  0.1207  0.0000  0.0000  0.0000  0.0000  0.0000 </r>
        <r>  0.0000  0.2820  0.0000  0.0873  0.0000  0.0000  0.0000  0.0000  0.0000 </r>
       </set>
       <set comment="band 12">
        <r>  0.0000  0.1297  0.0000  0.0868  0.0000  0.0000  0.0000  0.0000  0.0000 </r>
        <r>  0.0000  0.0426  0.0000  0.2397  0.0000  0.0000  0.0000  0.0000  0.0000 </r>
        <r>  0.0000  0.2397  0.0000  0.0426  0.0000  0.0000  0.0000  0.0000  0.0000 </r>
        <r>  0.0000  0.0868  0.0000  0.1297  0.0000  0.0000  0.0000  0.0000  0.0000 </r>
       </set>
       <set comment="band 13">
        <r>  0.0032  0.0000  0.0000  0.0000  0.1023  0.0702  0.0000  0.0326  0.0000 </r>
        <r>  0.0325  0.0000  0.0000  0.0000  0.0326  0.0070  0.0000  0.1022  0.0000 </r>
        <r>  0.0151  0.0000  0.0000  0.0000  0.0702  0.1022  0.0000  0.0070  0.0000 </r>
        <r>  0.0474  0.0000  0.0000  0.0000  0.0070  0.0326  0.0000  0.0702  0.0000 </r>
       </set>
       <set comment="band 14">
        <r>  0.0080  0.0000  0.0000  0.0000  0.0481  0.0014  0.0000  0.1453  0.0000 </r>
        <r>  0.0006  0.0000  0.0000  0.0000  0.1454  0.0173  0.0000  0.0481  0.0000 </r>
        <r>  0.0673  0.0000  0.0000  0.0000  0.0014  0.0481  0.0000  0.0173  0.0000 </r>
        <r>  0.0223  0.0000  0.0000  0.0000  0.0173  0.1453  0.0000  0.0014  0.0000 </r>
       </set>
       <set comment="band 15">
        <r>  0.0681  0.0000  0.0000  0.0000  0.0123  0.0334  0.0000  0.0193  0.0000 </r>
        <r>  0.0155  0.0000  0.0000  0.0000  0.0193  0.1470  0.0000  0.0123  0.0000 </r>
        <r>  0.0089  0.0000  0.0000  0.0000  0.0334  0.0123  0.0000  0.1470  0.0000 </r>
        <r>  0.0057  0.0000  0.0000  0.0000  0.1471  0.0193  0.0000  0.0334  0.0000 </r>
       </set>
       <set comment="band 16">
        <r>  0.0189  0.0000  0.0000  0.0000  0.0495  0.1070  0.0000  0.0148  0.0000 </r>
        <r>  0.0496  0.0000  0.0000  0.0000  0.0148  0.0407  0.0000  0.0494  0.0000 </r>
        <r>  0.0069  0.0000  0.0000  0.0000  0.1071  0.0494  0.0000  0.0407  0.0000 </r>
        <r>  0.0229  0.0000  0.0000  0.0000  0.0407  0.0148  0.0000  0.1070  0.0000 </r>
       </set>
       <set comment="band 17">
        <r>  0.0000  0.0000  0.0000  0.0000  0.1399  0.0046  0.1574  0.0057  0.0000 </r>
        <r>  0.0000  0.0000  0.0000  0.0000  0.0234  0.0179  0.0401  0.0340  0.0000 </r>
        <r>  0.0000  0.0000  0.0000  0.0000  0.0188  0.0340  0.0499  0.0179  0.0000 </r>
        <r>  0.0000  0.0000  0.0000  0.0000  0.0737  0.0057  0.2989  0.0046  0.0000 </r>
       </set>
       <set comment="band 18">
        <r>  0.0000  0.0000  0.0000  0.0000  0.0741  0.0054  0.2150  0.0142  0.0000 </r>
        <r>  0.0000  0.0000  0.0000  0.0000  0.0586  0.0245  0.0479  0.0180  0.0000 </r>
        <r>  0.0000  0.0000  0.0000  0.0000  0.0224  0.0180  0.1252  0.0245  0.0000 </r>
        <r>  0.0000  0.0000  0.0000  0.0000  0.1007  0.0142  0.1582  0.0054  0.0000 </r>
       </set>
       <set comment="band 19">
        <r>  0.0000  0.0000  0.0000  0.0000  0.0185  0.0372  0.0792  0.0114  0.0000 </r>
        <r>  0.0000  0.0000  0.0000  0.0000  0.0470  0.0090  0.3271  0.0045  0.0000 </r>
        <r>  0.0000  0.0000  0.0000  0.0000  0.1532  0.0045  0.1004  0.0090  0.0000 </r>
        <r>  0.0000  0.0000  0.0000  0.0000  0.0371  0.0114  0.0395  0.0372  0.0000 </r>
       </set>
       <set comment="band 20">
        <r>  0.0000  0.0000  0.0000  0.0000  0.0233  0.0149  0.0946  0.0308  0.0000 </r>
        <r>  0.0000  0.0000  0.0000  0.0000  0.1268  0.0108  0.1312  0.0057  0.0000 </r>
        <r>  0.0000  0.0000  0.0000  0.0000  0.0614  0.0057  0.2708  0.0108  0.0000 </r>
        <r>  0.0000  0.0000  0.0000  0.0000  0.0443  0.0308  0.0497  0.0149  0.0000 </r>
       </set>
       <set comment="band 21">
        <r>  0.0000  0.0000  0.0000  0.0000  0.0000  0.0119  0.0000  0.1004  0.0643 </r>
        <r>  0.0000  0.0000  0.0000  0.0000  0.0000  0.0215  0.0000  0.0522  0.0356 </r>
        <r>  0.0000  0.0000  0.0000  0.0000  0.0000  0.0522  0.0000  0.0215  0.3000 </r>
        <r>  0.0000  0.0000  0.0000  0.0000  0.0000  0.1004  0.0000  0.0119  0.1560 </r>
       </set>
       <set comment="band 22">
        <r>  0.0000  0.0000  0.0000  0.0000  0.0000  0.0018  0.0000  0.0619  0.0727 </r>
        <r>  0.0000  0.0000  0.0000  0.0000  0.0000  0.0243  0.0000  0.0980  0.0055 </r>
        <r>  0.0000  0.0000  0.0000  0.0000  0.0000  0.0980  0.0000  0.0243  0.1850 </r>
        <r>  0.0000  0.0000  0.0000  0.0000  0.0000  0.0619  0.0000  0.0018  0.2927 </r>
       </set>
       <set comment="band 23">
        <r>  0.0000  0.0000  0.0000  0.0000  0.0000  0.0760  0.0000  0.0101  0.1970 </r>
        <r>  0.0000  0.0000  0.0000  0.0000  0.0000  0.0659  0.0000  0.0341  0.2269 </r>
        <r>  0.0000  0.0000  0.0000  0.0000  0.0000  0.0341  0.0000  0.0659  0.0301 </r>
        <r>  0.0000  0.0000  0.0000  0.0000  0.0000  0.0101  0.0000  0.0760  0.1019 </r>
       </set>
       <set comment="band 24">
        <r>  0.0000  0.0000  0.0000  0.0000  0.0000  0.0963  0.0000  0.0137  0.2219 </r>
        <r>  0.0000  0.0000  0.0000  0.0000  0.0000  0.0743  0.0000  0.0018  0.2878 </r>
        <r>  0.0000  0.0000  0.0000  0.0000  0.0000  0.0018  0.0000  0.0743  0.0408 </r>
        <r>  0.0000  0.0000  0.0000  0.0000  0.0000  0.0137  0.0000  0.0963  0.0053 </r>
       </set>
       <set comment="band 25">
        <r>  0.0000  0.0000  0.0000  0.0000  0.0000  0.0353  0.0000  0.1226  0.0406 </r>
        <r>  0.0000  0.0000  0.0000  0.0000  0.0000  0.0307  0.0000  0.1063  0.0468 </r>
        <r>  0.0000  0.0000  0.0000  0.0000  0.0000  0.1063  0.0000  0.0307  0.1624 </r>
        <r>  0.0000  0.0000  0.0000  0.0000  0.0000  0.1226  0.0000  0.0353  0.1409 </r>
       </set>
       <set comment="band 26">
        <r>  0.0000  0.0000  0.0000  0.0000  0.0000  0.0111  0.0000  0.0460  0.3040 </r>
        <r>  0.0000  0.0000  0.0000  0.0000  0.0000  0.2294  0.0000  0.0083  0.0147 </r>
        <r>  0.0000  0.0000  0.0000  0.0000  0.0000  0.0083  0.0000  0.2294  0.0610 </r>
        <r>  0.0000  0.0000  0.0000  0.0000  0.0000  0.0460  0.0000  0.0111  0.0110 </r>
       </set>
       <set comment="band 27">
        <r>  0.0000  0.0000  0.0000  0.0000  0.0000  0.0582  0.0000  0.0647  0.0009 </r>
        <r>  0.0000  0.0000  0.0000  0.0000  0.0000  0.0007  0.0000  0.1712  0.0771 </r>
        <r>  0.0000  0.0000  0.0000  0.0000  0.0000  0.1712  0.0000  0.0007  0.0858 </r>
        <r>  0.0000  0.0000  0.0000  0.0000  0.0000  0.0647  0.0000  0.0582  0.2269 </r>
       </set>
       <set comment="band 28">
        <r>  0.0000  0.0000  0.0000  0.0000  0.0000  0.1903  0.0000  0.0615  0.0452 </r>
        <r>  0.0000  0.0000  0.0000  0.0000  0.0000  0.0341  0.0000  0.0090  0.2521 </r>
        <r>  0.0000  0.0000  0.0000  0.0000  0.0000  0.0090  0.0000  0.0341  0.0815 </r>
        <r>  0.0000  0.0000  0.0000  0.0000  0.0000  0.0615  0.0000  0.1903  0.0119 </r>
       </set>
       <set comment="band 29">
        <r>  0.0000  0.0000  0.0000  0.0000  0.1374  0.0037  0.1799  0.0152  0.0000 </r>
        <r>  0.0000  0.0000  0.0000  0.0000  0.0587  0.0446  0.0151  0.0356  0.0000 </r>
        <r>  0.0000  0.0000  0.0000  0.0000  0.0144  0.0356  0.0614  0.0446  0.0000 </r>
        <r>  0.0000  0.0000  0.0000  0.0000  0.1721  0.0152  0.1436  0.0037  0.0000 </r>
       </set>
       <set comment="band 30">
        <r>  0.0000  0.0000  0.0000  0.0000  0.0614  0.0284  0.0046  0.0537  0.0000 </r>
        <r>  0.0000  0.0000  0.0000  0.0000  0.2072  0.0011  0.1146  0.0159  0.0000 </r>
        <r>  0.0000  0.0000  0.0000  0.0000  0.1097  0.0159  0.2166  0.0011  0.0000 </r>
        <r>  0.0000  0.0000  0.0000  0.0000  0.0044  0.0537  0.0642  0.0284  0.0000 </r>
       </set>
       <set comment="band 31">
        <r>  0.0000  0.0000  0.0000  0.0000  0.0537  0.0218  0.1947  0.0151  0.0000 </r>
        <r>  0.0000  0.0000  0.0000  0.0000  0.0584  0.0482  0.0881  0.0139  0.0000 </r>
        <r>  0.0000  0.0000  0.0000  0.0000  0.0843  0.0139  0.0610  0.0482  0.0000 </r>
        <r>  0.0000  0.0000  0.0000  0.0000  0.1863  0.0151  0.0561  0.0218  0.0000 </r>
       </set>
       <set comment="band 32">
        <r>  0.0000  0.0000  0.0000  0.0000  0.1302  0.0451  0.0208  0.0151  0.0000 </r>
        <r>  0.0000  0.0000  0.0000  0.0000  0.0583  0.0051  0.1821  0.0337  0.0000 </r>
        <r>  0.0000  0.0000  0.0000  0.0000  0.1743  0.0337  0.0610  0.0051  0.0000 </r>
        <r>  0.0000  0.0000  0.0000  0.0000  0.0199  0.0151  0.1361  0.0451  0.0000 </r>
       </set>
       <set comment="band 33">
        <r>  0.0000  0.0016  0.0276  0.0118  0.0000  0.0000  0.0000  0.0000  0.0000 </r>
        <r>  0.0000  0.0281  0.0016  0.0628  0.0000  0.0000  0.0000  0.0000  0.0000 </r>
        <r>  0.0000  0.0628  0.0116  0.0281  0.0000  0.0000  0.0000  0.0000  0.0000 </r>
        <r>  0.0000  0.0118  0.0616  0.0016  0.0000  0.0000  0.0000  0.0000  0.0000 </r>
       </set>
       <set comment="band 34">
        <r>  0.0000  0.0072  0.0432  0.0338  0.0000  0.0000  0.0000  0.0000  0.0000 </r>
        <r>  0.0000  0.0441  0.0071  0.0193  0.0000  0.0000  0.0000  0.0000  0.0000 </r>
        <r>  0.0000  0.0193  0.0331  0.0441  0.0000  0.0000  0.0000  0.0000  0.0000 </r>
        <r>  0.0000  0.0338  0.0189  0.0072  0.0000  0.0000  0.0000  0.0000  0.0000 </r>
       </set>
       <set comment="band 35">
        <r>  0.0000  0.0658  0.0149  0.0221  0.0000  0.0000  0.0000  0.0000  0.0000 </r>
        <r>  0.0000  0.0152  0.0645  0.0014  0.0000  0.0000  0.0000  0.0000  0.0000 </r>
        <r>  0.0000  0.0014  0.0216  0.0152  0.0000  0.0000  0.0000  0.0000  0.0000 </r>
        <r>  0.0000  0.0221  0.0013  0.0658  0.0000  0.0000  0.0000  0.0000  0.0000 </r>
       </set>
       <set comment="band 36">
        <r>  0.0000  0.0298  0.0167  0.0367  0.0000  0.0000  0.0000  0.0000  0.0000 </r>
        <r>  0.0000  0.0170  0.0292  0.0209  0.0000  0.0000  0.0000  0.0000  0.0000 </r>
        <r>  0.0000  0.0209  0.0360  0.0170  0.0000  0.0000  0.0000  0.0000  0.0000 </r>
        <r>  0.0000  0.0367  0.0205  0.0298  0.0000  0.0000  0.0000  0.0000  0.0000 </r>
       </set>
       <set comment="band 37">
        <r>  0.0954  0.0000  0.0000  0.0000  0.0037  0.0716  0.0000  0.0140  0.0000 </r>
        <r>  0.1858  0.0000  0.0000  0.0000  0.0145  0.0368  0.0000  0.0036  0.0000 </r>
        <r>  0.0364  0.0000  0.0000  0.0000  0.0741  0.0036  0.0000  0.0368  0.0000 </r>
        <r>  0.0092  0.0000  0.0000  0.0000  0.0380  0.0140  0.0000  0.0716  0.0000 </r>
       </set>
       <set comment="band 38">
        <r>  0.1136  0.0000  0.0000  0.0000  0.0548  0.0265  0.0000  0.0027  0.0000 </r>
        <r>  0.0688  0.0000  0.0000  0.0000  0.0028  0.0438  0.0000  0.0530  0.0000 </r>
        <r>  0.0070  0.0000  0.0000  0.0000  0.0274  0.0530  0.0000  0.0438  0.0000 </r>
        <r>  0.1374  0.0000  0.0000  0.0000  0.0453  0.0027  0.0000  0.0265  0.0000 </r>
       </set>
       <set comment="band 39">
        <r>  0.0394  0.0000  0.0000  0.0000  0.0287  0.0276  0.0000  0.0554  0.0000 </r>
        <r>  0.0717  0.0000  0.0000  0.0000  0.0573  0.0152  0.0000  0.0277  0.0000 </r>
        <r>  0.1439  0.0000  0.0000  0.0000  0.0286  0.0277  0.0000  0.0152  0.0000 </r>
        <r>  0.0720  0.0000  0.0000  0.0000  0.0157  0.0554  0.0000  0.0276  0.0000 </r>
       </set>
       <set comment="band 40">
        <r>  0.0785  0.0000  0.0000  0.0000  0.0431  0.0002  0.0000  0.0538  0.0000 </r>
        <r>  0.0006  0.0000  0.0000  0.0000  0.0557  0.0302  0.0000  0.0417  0.0000 </r>
        <r>  0.1396  0.0000  0.0000  0.0000  0.0002  0.0417  0.0000  0.0302  0.0000 </r>
        <r>  0.1082  0.0000  0.0000  0.0000  0.0313  0.0538  0.0000  0.0002  0.0000 </r>
       </set>
      </set>
     </set>
    </set>
   </array>
  </projected>
 </calculation>
 <structure name="finalpos" >
  <crystal>
   <varray name="basis" >
    <v>       3.57743067       0.00000000       0.00000000 </v>
    <v>       0.00000000       3.57743067       0.00000000 </v>
    <v>       0.00000000       0.00000000       3.61320498 </v>
   </varray>
   <i name="volume">     46.24183420 </i>
   <varray name="rec_basis" >
    <v>       0.27953022      -0.00000000       0.00000000 </v>
    <v>       0.00000000       0.27953022       0.00000000 </v>
    <v>      -0.00000000      -0.00000000       0.27676260 </v>
   </varray>
  </crystal>
  <varray name="positions" >
   <v>       0.00000000       0.00000000       0.00000000 </v>
   <v>       0.00000000       0.50000000       0.50000000 </v>
   <v>       0.50000000       0.00000000       0.50000000 </v>
   <v>       0.50000000       0.50000000       0.00000000 </v>
  </varray>
 </structure>
</modeling>
