<?xml version="1.0" encoding="ISO-8859-1"?>
<modeling>
 <generator>
  <i name="program" type="string">vasp </i>
  <i name="version" type="string">6.2.1  </i>
  <i name="subversion" type="string">16May21 (build Aug 15 2022 14:47:30) complex                          parallel </i>
  <i name="platform" type="string">LinuxGNU </i>
  <i name="date" type="string">2025 12 11 </i>
  <i name="time" type="string">13:45:15 </i>
 </generator>
 <incar>
  <i type="string" name="PREC">Accurate</i>
  <i type="string" name="ALGO">Fast</i>
  <i type="int" name="ISPIN">     2</i>
  <i type="int" name="NELM">   100</i>
  <i name="EDIFF">      0.00005000</i>
  <i type="int" name="NSW">     0</i>
  <i name="ENCUT">    700.00000000</i>
  <v name="MAGMOM">      0.60000000</v>
  <i type="logical" name="LREAL"> F  </i>
  <i type="int" name="ISMEAR">    -5</i>
  <i name="SIGMA">      0.05000000</i>
  <i type="logical" name="LWAVE"> F  </i>
  <i type="logical" name="LCHARG"> T  </i>
  <i type="int" name="LORBIT">    11</i>
  <i type="logical" name="LASPH"> T  </i>
 </incar>
 <primitive_cell>
  <structure name="primitive_cell" >
   <crystal>
    <varray name="basis" >
     <v>       0.00000000       2.02400000       2.02400000 </v>
     <v>       2.02400000       0.00000000       2.02400000 </v>
     <v>       2.02400000       2.02400000       0.00000000 </v>
    </varray>
    <i name="volume">     16.58293965 </i>
    <varray name="rec_basis" >
     <v>      -0.24703557       0.24703557       0.24703557 </v>
     <v>       0.24703557      -0.24703557       0.24703557 </v>
     <v>       0.24703557       0.24703557      -0.24703557 </v>
    </varray>
   </crystal>
   <varray name="positions" >
    <v>       0.00000000       0.00000000       0.00000000 </v>
   </varray>
  </structure>
  <varray name="primitive_index" >
   <v type="int" >        1 </v>
  </varray>
 </primitive_cell>
 <kpoints>
  <generation param="Gamma">
   <v type="int" name="divisions">      11       11       11 </v>
   <v name="usershift">      0.00000000       0.00000000       0.00000000 </v>
   <v name="genvec1">      0.09090909       0.00000000       0.00000000 </v>
   <v name="genvec2">      0.00000000       0.09090909       0.00000000 </v>
   <v name="genvec3">      0.00000000       0.00000000       0.09090909 </v>
   <v name="shift">      0.00000000       0.00000000       0.00000000 </v>
  </generation>
  <varray name="kpointlist" >
   <v>       0.00000000       0.00000000       0.00000000 </v>
   <v>       0.09090909       0.00000000       0.00000000 </v>
   <v>       0.18181818       0.00000000       0.00000000 </v>
   <v>       0.27272727       0.00000000       0.00000000 </v>
   <v>       0.36363636       0.00000000       0.00000000 </v>
   <v>       0.45454545       0.00000000       0.00000000 </v>
   <v>       0.09090909       0.09090909       0.00000000 </v>
   <v>       0.18181818       0.09090909       0.00000000 </v>
   <v>       0.27272727       0.09090909       0.00000000 </v>
   <v>       0.36363636       0.09090909       0.00000000 </v>
   <v>       0.45454545       0.09090909       0.00000000 </v>
   <v>      -0.45454545       0.09090909       0.00000000 </v>
   <v>      -0.36363636       0.09090909       0.00000000 </v>
   <v>      -0.27272727       0.09090909       0.00000000 </v>
   <v>      -0.18181818       0.09090909       0.00000000 </v>
   <v>      -0.09090909       0.09090909       0.00000000 </v>
   <v>       0.18181818       0.18181818       0.00000000 </v>
   <v>       0.27272727       0.18181818       0.00000000 </v>
   <v>       0.36363636       0.18181818       0.00000000 </v>
   <v>       0.45454545       0.18181818       0.00000000 </v>
   <v>      -0.45454545       0.18181818       0.00000000 </v>
   <v>      -0.36363636       0.18181818       0.00000000 </v>
   <v>      -0.27272727       0.18181818       0.00000000 </v>
   <v>      -0.18181818       0.18181818       0.00000000 </v>
   <v>       0.27272727       0.27272727       0.00000000 </v>
   <v>       0.36363636       0.27272727       0.00000000 </v>
   <v>       0.45454545       0.27272727       0.00000000 </v>
   <v>      -0.45454545       0.27272727       0.00000000 </v>
   <v>      -0.36363636       0.27272727       0.00000000 </v>
   <v>      -0.27272727       0.27272727       0.00000000 </v>
   <v>       0.36363636       0.36363636       0.00000000 </v>
   <v>       0.45454545       0.36363636       0.00000000 </v>
   <v>      -0.45454545       0.36363636       0.00000000 </v>
   <v>      -0.36363636       0.36363636       0.00000000 </v>
   <v>       0.45454545       0.45454545       0.00000000 </v>
   <v>      -0.45454545       0.45454545       0.00000000 </v>
   <v>       0.27272727       0.18181818       0.09090909 </v>
   <v>       0.36363636       0.18181818       0.09090909 </v>
   <v>       0.45454545       0.18181818       0.09090909 </v>
   <v>      -0.45454545       0.18181818       0.09090909 </v>
   <v>       0.36363636       0.27272727       0.09090909 </v>
   <v>       0.45454545       0.27272727       0.09090909 </v>
   <v>      -0.45454545       0.27272727       0.09090909 </v>
   <v>      -0.36363636       0.27272727       0.09090909 </v>
   <v>      -0.27272727       0.27272727       0.09090909 </v>
   <v>      -0.18181818       0.27272727       0.09090909 </v>
   <v>       0.45454545       0.36363636       0.09090909 </v>
   <v>      -0.45454545       0.36363636       0.09090909 </v>
   <v>      -0.36363636       0.36363636       0.09090909 </v>
   <v>      -0.27272727       0.36363636       0.09090909 </v>
   <v>      -0.45454545       0.45454545       0.09090909 </v>
   <v>      -0.36363636       0.45454545       0.09090909 </v>
   <v>      -0.45454545       0.36363636       0.18181818 </v>
   <v>      -0.36363636       0.36363636       0.18181818 </v>
   <v>      -0.36363636       0.45454545       0.18181818 </v>
   <v>      -0.27272727       0.45454545       0.18181818 </v>
  </varray>
  <varray name="weights" >
   <v>       0.00075131 </v>
   <v>       0.00601052 </v>
   <v>       0.00601052 </v>
   <v>       0.00601052 </v>
   <v>       0.00601052 </v>
   <v>       0.00601052 </v>
   <v>       0.00450789 </v>
   <v>       0.01803156 </v>
   <v>       0.01803156 </v>
   <v>       0.01803156 </v>
   <v>       0.01803156 </v>
   <v>       0.01803156 </v>
   <v>       0.01803156 </v>
   <v>       0.01803156 </v>
   <v>       0.01803156 </v>
   <v>       0.00901578 </v>
   <v>       0.00450789 </v>
   <v>       0.01803156 </v>
   <v>       0.01803156 </v>
   <v>       0.01803156 </v>
   <v>       0.01803156 </v>
   <v>       0.01803156 </v>
   <v>       0.01803156 </v>
   <v>       0.00901578 </v>
   <v>       0.00450789 </v>
   <v>       0.01803156 </v>
   <v>       0.01803156 </v>
   <v>       0.01803156 </v>
   <v>       0.01803156 </v>
   <v>       0.00901578 </v>
   <v>       0.00450789 </v>
   <v>       0.01803156 </v>
   <v>       0.01803156 </v>
   <v>       0.00901578 </v>
   <v>       0.00450789 </v>
   <v>       0.00901578 </v>
   <v>       0.01803156 </v>
   <v>       0.03606311 </v>
   <v>       0.03606311 </v>
   <v>       0.03606311 </v>
   <v>       0.01803156 </v>
   <v>       0.03606311 </v>
   <v>       0.03606311 </v>
   <v>       0.03606311 </v>
   <v>       0.03606311 </v>
   <v>       0.01803156 </v>
   <v>       0.01803156 </v>
   <v>       0.03606311 </v>
   <v>       0.03606311 </v>
   <v>       0.01803156 </v>
   <v>       0.01803156 </v>
   <v>       0.01803156 </v>
   <v>       0.01803156 </v>
   <v>       0.03606311 </v>
   <v>       0.01803156 </v>
   <v>       0.01803156 </v>
  </varray>
  <varray name="tetrahedronlist"  type="int" >
   <v type="int" >       24        1        2        2        7 </v>
   <v type="int" >       48        2        7        8       16 </v>
   <v type="int" >       48        2        3        8       16 </v>
   <v type="int" >       24        2        2        7       16 </v>
   <v type="int" >       48        3        8        9       15 </v>
   <v type="int" >       48        3        4        9       15 </v>
   <v type="int" >       48        3        8       15       16 </v>
   <v type="int" >       48        4        9       10       14 </v>
   <v type="int" >       48        4        5       10       14 </v>
   <v type="int" >       48        4        9       14       15 </v>
   <v type="int" >       48        5       10       11       13 </v>
   <v type="int" >       48        5        6       11       13 </v>
   <v type="int" >       48        5       10       13       14 </v>
   <v type="int" >       48        6       11       12       12 </v>
   <v type="int" >       24        6        6       12       12 </v>
   <v type="int" >       48        6       11       12       13 </v>
   <v type="int" >       24        7        8        8       17 </v>
   <v type="int" >       24        7        8        8       16 </v>
   <v type="int" >       48        8       17       18       37 </v>
   <v type="int" >       48        8        9       18       37 </v>
   <v type="int" >       48        8        9       15       37 </v>
   <v type="int" >       24        8        8       17       37 </v>
   <v type="int" >       24        8        8       16       37 </v>
   <v type="int" >       48        8       15       16       37 </v>
   <v type="int" >       48        9       18       19       38 </v>
   <v type="int" >       48        9       10       19       38 </v>
   <v type="int" >       48        9       10       14       38 </v>
   <v type="int" >       48        9       18       37       38 </v>
   <v type="int" >       48        9       15       37       38 </v>
   <v type="int" >       48        9       14       15       38 </v>
   <v type="int" >       48       10       19       20       39 </v>
   <v type="int" >       48       10       11       20       39 </v>
   <v type="int" >       48       10       11       13       39 </v>
   <v type="int" >       48       10       19       38       39 </v>
   <v type="int" >       48       10       14       38       39 </v>
   <v type="int" >       48       10       13       14       39 </v>
   <v type="int" >       48       11       20       21       40 </v>
   <v type="int" >       48       11       12       21       40 </v>
   <v type="int" >       48       11       12       12       40 </v>
   <v type="int" >       48       11       20       39       40 </v>
   <v type="int" >       48       11       13       39       40 </v>
   <v type="int" >       48       11       12       13       40 </v>
   <v type="int" >       48       12       21       22       40 </v>
   <v type="int" >       48       12       13       22       40 </v>
   <v type="int" >       48       12       21       40       40 </v>
   <v type="int" >       24       12       12       40       40 </v>
   <v type="int" >       48       13       22       23       39 </v>
   <v type="int" >       48       13       14       23       39 </v>
   <v type="int" >       48       13       22       39       40 </v>
   <v type="int" >       48       14       23       24       38 </v>
   <v type="int" >       48       14       15       24       38 </v>
   <v type="int" >       48       14       23       38       39 </v>
   <v type="int" >       24       15       15       24       37 </v>
   <v type="int" >       24       15       15       16       37 </v>
   <v type="int" >       48       15       24       37       38 </v>
   <v type="int" >       24       17       18       18       25 </v>
   <v type="int" >       24       17       18       18       37 </v>
   <v type="int" >       48       18       25       26       41 </v>
   <v type="int" >       48       18       19       26       41 </v>
   <v type="int" >       48       18       19       38       41 </v>
   <v type="int" >       24       18       18       25       41 </v>
   <v type="int" >       24       18       18       37       41 </v>
   <v type="int" >       48       18       37       38       41 </v>
   <v type="int" >       48       19       26       27       42 </v>
   <v type="int" >       48       19       20       27       42 </v>
   <v type="int" >       48       19       20       39       42 </v>
   <v type="int" >       48       19       26       41       42 </v>
   <v type="int" >       48       19       38       41       42 </v>
   <v type="int" >       48       19       38       39       42 </v>
   <v type="int" >       48       20       27       28       43 </v>
   <v type="int" >       48       20       21       28       43 </v>
   <v type="int" >       48       20       21       40       43 </v>
   <v type="int" >       48       20       27       42       43 </v>
   <v type="int" >       48       20       39       42       43 </v>
   <v type="int" >       48       20       39       40       43 </v>
   <v type="int" >       48       21       28       29       44 </v>
   <v type="int" >       48       21       22       29       44 </v>
   <v type="int" >       48       21       22       40       44 </v>
   <v type="int" >       48       21       28       43       44 </v>
   <v type="int" >       48       21       40       43       44 </v>
   <v type="int" >       48       21       40       40       44 </v>
   <v type="int" >       48       22       29       30       45 </v>
   <v type="int" >       48       22       23       30       45 </v>
   <v type="int" >       48       22       23       39       45 </v>
   <v type="int" >       48       22       29       44       45 </v>
   <v type="int" >       48       22       40       44       45 </v>
   <v type="int" >       48       22       39       40       45 </v>
   <v type="int" >       24       23       23       30       46 </v>
   <v type="int" >       24       23       23       24       46 </v>
   <v type="int" >       48       23       24       38       46 </v>
   <v type="int" >       48       23       30       45       46 </v>
   <v type="int" >       48       23       39       45       46 </v>
   <v type="int" >       48       23       38       39       46 </v>
   <v type="int" >       24       24       38       38       46 </v>
   <v type="int" >       24       24       37       38       38 </v>
   <v type="int" >       24       25       26       26       31 </v>
   <v type="int" >       24       25       26       26       41 </v>
   <v type="int" >       48       26       31       32       47 </v>
   <v type="int" >       48       26       27       32       47 </v>
   <v type="int" >       48       26       27       42       47 </v>
   <v type="int" >       24       26       26       31       47 </v>
   <v type="int" >       24       26       26       41       47 </v>
   <v type="int" >       48       26       41       42       47 </v>
   <v type="int" >       48       27       32       33       48 </v>
   <v type="int" >       48       27       28       33       48 </v>
   <v type="int" >       48       27       28       43       48 </v>
   <v type="int" >       48       27       32       47       48 </v>
   <v type="int" >       48       27       42       47       48 </v>
   <v type="int" >       48       27       42       43       48 </v>
   <v type="int" >       48       28       33       34       49 </v>
   <v type="int" >       48       28       29       34       49 </v>
   <v type="int" >       48       28       29       44       49 </v>
   <v type="int" >       48       28       33       48       49 </v>
   <v type="int" >       48       28       43       48       49 </v>
   <v type="int" >       48       28       43       44       49 </v>
   <v type="int" >       24       29       29       34       50 </v>
   <v type="int" >       24       29       29       30       50 </v>
   <v type="int" >       48       29       30       45       50 </v>
   <v type="int" >       48       29       34       49       50 </v>
   <v type="int" >       48       29       44       49       50 </v>
   <v type="int" >       48       29       44       45       50 </v>
   <v type="int" >       24       30       45       45       50 </v>
   <v type="int" >       24       30       45       45       46 </v>
   <v type="int" >       24       31       32       32       35 </v>
   <v type="int" >       24       31       32       32       47 </v>
   <v type="int" >       48       32       35       36       51 </v>
   <v type="int" >       48       32       33       36       51 </v>
   <v type="int" >       48       32       33       48       51 </v>
   <v type="int" >       24       32       32       35       51 </v>
   <v type="int" >       24       32       32       47       51 </v>
   <v type="int" >       48       32       47       48       51 </v>
   <v type="int" >       24       33       33       36       52 </v>
   <v type="int" >       24       33       33       34       52 </v>
   <v type="int" >       48       33       34       49       52 </v>
   <v type="int" >       48       33       36       51       52 </v>
   <v type="int" >       48       33       48       51       52 </v>
   <v type="int" >       48       33       48       49       52 </v>
   <v type="int" >       24       34       49       49       52 </v>
   <v type="int" >       24       34       49       49       50 </v>
   <v type="int" >       12       35       35       36       36 </v>
   <v type="int" >       24       35       36       36       51 </v>
   <v type="int" >       12       36       36       51       51 </v>
   <v type="int" >       24       36       51       51       52 </v>
   <v type="int" >       24       37       38       38       41 </v>
   <v type="int" >       48       38       41       42       46 </v>
   <v type="int" >       48       38       39       42       46 </v>
   <v type="int" >       24       38       38       41       46 </v>
   <v type="int" >       48       39       42       43       45 </v>
   <v type="int" >       48       39       40       43       45 </v>
   <v type="int" >       48       39       42       45       46 </v>
   <v type="int" >       48       40       43       44       44 </v>
   <v type="int" >       24       40       40       44       44 </v>
   <v type="int" >       48       40       43       44       45 </v>
   <v type="int" >       24       41       42       42       47 </v>
   <v type="int" >       24       41       42       42       46 </v>
   <v type="int" >       48       42       47       48       53 </v>
   <v type="int" >       48       42       43       48       53 </v>
   <v type="int" >       48       42       43       45       53 </v>
   <v type="int" >       24       42       42       47       53 </v>
   <v type="int" >       24       42       42       46       53 </v>
   <v type="int" >       48       42       45       46       53 </v>
   <v type="int" >       48       43       48       49       54 </v>
   <v type="int" >       48       43       44       49       54 </v>
   <v type="int" >       48       43       44       44       54 </v>
   <v type="int" >       48       43       48       53       54 </v>
   <v type="int" >       48       43       45       53       54 </v>
   <v type="int" >       48       43       44       45       54 </v>
   <v type="int" >       48       44       49       50       54 </v>
   <v type="int" >       48       44       45       50       54 </v>
   <v type="int" >       48       44       49       54       54 </v>
   <v type="int" >       24       44       44       54       54 </v>
   <v type="int" >       24       45       45       50       53 </v>
   <v type="int" >       24       45       45       46       53 </v>
   <v type="int" >       48       45       50       53       54 </v>
   <v type="int" >       24       47       48       48       51 </v>
   <v type="int" >       24       47       48       48       53 </v>
   <v type="int" >       48       48       51       52       55 </v>
   <v type="int" >       48       48       49       52       55 </v>
   <v type="int" >       48       48       49       54       55 </v>
   <v type="int" >       24       48       48       51       55 </v>
   <v type="int" >       24       48       48       53       55 </v>
   <v type="int" >       48       48       53       54       55 </v>
   <v type="int" >       24       49       49       52       56 </v>
   <v type="int" >       24       49       49       50       56 </v>
   <v type="int" >       48       49       50       54       56 </v>
   <v type="int" >       48       49       52       55       56 </v>
   <v type="int" >       48       49       54       55       56 </v>
   <v type="int" >       48       49       54       54       56 </v>
   <v type="int" >       24       50       54       54       56 </v>
   <v type="int" >       24       50       53       54       54 </v>
   <v type="int" >       12       51       51       52       52 </v>
   <v type="int" >       24       51       52       52       55 </v>
   <v type="int" >       12       52       52       55       55 </v>
   <v type="int" >       24       52       55       55       56 </v>
   <v type="int" >       24       53       54       54       55 </v>
   <v type="int" >       48       54       55       56       56 </v>
   <v type="int" >       24       54       54       56       56 </v>
   <v type="int" >       24       54       54       55       56 </v>
   <v type="int" >       12       55       55       56       56 </v>
   <v type="int" >       24       55       56       56       56 </v>
   <v type="int" >        6       56       56       56       56 </v>
  </varray>
  <i name="volumeweight">      0.00012522 </i>
 </kpoints>
 <parameters>
  <separator name="general" >
   <i type="string" name="SYSTEM">unknown system</i>
   <i type="logical" name="LCOMPAT"> F  </i>
  </separator>
  <separator name="electronic" >
   <i type="string" name="PREC">accura</i>
   <i name="ENMAX">    700.00000000</i>
   <i name="ENAUG">    291.05200000</i>
   <i name="EDIFF">      0.00005000</i>
   <i type="int" name="IALGO">    68</i>
   <i type="int" name="IWAVPR">    10</i>
   <i type="int" name="NBANDS">    48</i>
   <i type="int" name="NBANDSLOW">    -1</i>
   <i type="int" name="NBANDSHIGH">    -1</i>
   <i name="NELECT">      3.00000000</i>
   <i type="int" name="TURBO">     0</i>
   <i type="int" name="IRESTART">     0</i>
   <i type="int" name="NREBOOT">     0</i>
   <i type="int" name="NMIN">     0</i>
   <i name="EREF">      0.00000000</i>
   <separator name="electronic smearing" >
    <i type="int" name="ISMEAR">    -5</i>
    <i name="SIGMA">      0.05000000</i>
    <i name="KSPACING">      0.50000000</i>
    <i type="logical" name="KGAMMA"> T  </i>
    <i type="logical" name="KBLOWUP"> T  </i>
   </separator>
   <separator name="electronic projectors" >
    <i type="logical" name="LREAL"> F  </i>
    <v name="ROPT">      0.00000000</v>
    <i type="int" name="LMAXPAW">  -100</i>
    <i type="int" name="LMAXMIX">     2</i>
    <i type="logical" name="NLSPLINE"> F  </i>
   </separator>
   <separator name="electronic startup" >
    <i type="int" name="ISTART">     0</i>
    <i type="int" name="ICHARG">     2</i>
    <i type="int" name="INIWAV">     1</i>
   </separator>
   <separator name="electronic spin" >
    <i type="int" name="ISPIN">     2</i>
    <i type="logical" name="LNONCOLLINEAR"> F  </i>
    <v name="MAGMOM">      0.60000000</v>
    <i name="NUPDOWN">     -1.00000000</i>
    <i type="logical" name="LSORBIT"> F  </i>
    <v name="SAXIS">      0.00000000      0.00000000      1.00000000</v>
    <i type="logical" name="LSPIRAL"> F  </i>
    <v name="QSPIRAL">      0.00000000      0.00000000      0.00000000</v>
    <i type="logical" name="LZEROZ"> F  </i>
   </separator>
   <separator name="electronic exchange-correlation" >
    <i type="logical" name="LASPH"> T  </i>
    <i type="logical" name="LMETAGGA"> F  </i>
   </separator>
   <separator name="electronic convergence" >
    <i type="int" name="NELM">   100</i>
    <i type="int" name="NELMDL">    -5</i>
    <i type="int" name="NELMIN">     2</i>
    <i name="ENINI">    700.00000000</i>
    <separator name="electronic convergence detail" >
     <i type="logical" name="LDIAG"> T  </i>
     <i type="logical" name="LSUBROT"> F  </i>
     <i name="WEIMIN">      0.00000000</i>
     <i name="EBREAK">      0.00000026</i>
     <i name="DEPER">      0.30000000</i>
     <i type="int" name="NRMM">     4</i>
     <i name="TIME">      0.40000000</i>
    </separator>
   </separator>
   <separator name="electronic mixer" >
    <i name="AMIX">      0.40000000</i>
    <i name="BMIX">      1.00000000</i>
    <i name="AMIN">      0.10000000</i>
    <i name="AMIX_MAG">      1.60000000</i>
    <i name="BMIX_MAG">      1.00000000</i>
    <separator name="electronic mixer details" >
     <i type="int" name="IMIX">     4</i>
     <i type="logical" name="MIXFIRST"> F  </i>
     <i type="int" name="MAXMIX">   -45</i>
     <i name="WC">    100.00000000</i>
     <i type="int" name="INIMIX">     1</i>
     <i type="int" name="MIXPRE">     1</i>
     <i type="int" name="MREMOVE">     5</i>
    </separator>
   </separator>
   <separator name="electronic dipolcorrection" >
    <i type="logical" name="LDIPOL"> F  </i>
    <i type="logical" name="LMONO"> F  </i>
    <i type="int" name="IDIPOL">     0</i>
    <i name="EPSILON">      1.00000000</i>
    <v name="DIPOL">   -100.00000000   -100.00000000   -100.00000000</v>
    <i name="EFIELD">      0.00000000</i>
   </separator>
  </separator>
  <separator name="grids" >
   <i type="int" name="NGX">    28</i>
   <i type="int" name="NGY">    28</i>
   <i type="int" name="NGZ">    28</i>
   <i type="int" name="NGXF">    56</i>
   <i type="int" name="NGYF">    56</i>
   <i type="int" name="NGZF">    56</i>
   <i type="logical" name="ADDGRID"> F  </i>
  </separator>
  <separator name="ionic" >
   <i type="int" name="NSW">     0</i>
   <i type="int" name="IBRION">    -1</i>
   <i type="int" name="MDALGO">     0</i>
   <i type="int" name="ISIF">     2</i>
   <i name="PSTRESS">      0.00000000</i>
   <i name="EDIFFG">      0.00050000</i>
   <i type="int" name="NFREE">     0</i>
   <i name="POTIM">      0.50000000</i>
   <i name="SMASS">     -3.00000000</i>
   <i name="SCALEE">      1.00000000</i>
  </separator>
  <separator name="ionic md" >
   <i name="TEBEG">      0.00010000</i>
   <i name="TEEND">      0.00010000</i>
   <i type="int" name="NBLOCK">     1</i>
   <i type="int" name="KBLOCK">     1</i>
   <i type="int" name="NPACO">   256</i>
   <i name="APACO">     16.00000000</i>
  </separator>
  <separator name="symmetry" >
   <i type="int" name="ISYM">     2</i>
   <i name="SYMPREC">      0.00001000</i>
  </separator>
  <separator name="dos" >
   <i type="int" name="LORBIT">    11</i>
   <v name="RWIGS">     -1.00000000</v>
   <i type="int" name="NEDOS">   301</i>
   <i name="EMIN">     10.00000000</i>
   <i name="EMAX">    -10.00000000</i>
   <i name="EFERMI">      0.00000000</i>
  </separator>
  <separator name="writing" >
   <i type="int" name="NWRITE">     2</i>
   <i type="logical" name="LWAVE"> F  </i>
   <i type="logical" name="LDOWNSAMPLE"> F  </i>
   <i type="logical" name="LCHARG"> T  </i>
   <i type="logical" name="LPARD"> F  </i>
   <i type="logical" name="LVTOT"> F  </i>
   <i type="logical" name="LVHAR"> F  </i>
   <i type="logical" name="LELF"> F  </i>
   <i type="logical" name="LOPTICS"> F  </i>
   <v name="STM">      0.00000000      0.00000000      0.00000000      0.00000000      0.00000000      0.00000000      0.00000000</v>
  </separator>
  <separator name="performance" >
   <i type="int" name="NPAR">    48</i>
   <i type="int" name="NSIM">     4</i>
   <i type="int" name="NBLK">    -1</i>
   <i type="logical" name="LPLANE"> T  </i>
   <i type="logical" name="LSCALAPACK"> T  </i>
   <i type="logical" name="LSCAAWARE"> T  </i>
   <i type="logical" name="LSCALU"> F  </i>
   <i type="logical" name="LASYNC"> F  </i>
   <i type="logical" name="LORBITALREAL"> F  </i>
  </separator>
  <separator name="miscellaneous" >
   <i type="int" name="IDIOT">     3</i>
   <i type="int" name="PHON_NSTRUCT">    -1</i>
   <i type="logical" name="LMUSIC"> F  </i>
   <v name="POMASS">     26.98100000</v>
   <v name="DARWINR">      0.00000000</v>
   <v name="DARWINV">      1.00000000</v>
   <i type="logical" name="LCORR"> T  </i>
  </separator>
  <i type="logical" name="GGA_COMPAT"> T  </i>
  <i type="logical" name="LBERRY"> F  </i>
  <i type="int" name="ICORELEVEL">     0</i>
  <i type="logical" name="LDAU"> F  </i>
  <i type="int" name="I_CONSTRAINED_M">     0</i>
  <separator name="electronic exchange-correlation" >
   <i type="string" name="GGA">--</i>
   <i type="int" name="VOSKOWN">     0</i>
   <i type="logical" name="LHFCALC"> F  </i>
   <i type="string" name="PRECFOCK"></i>
   <i type="logical" name="LSYMGRAD"> F  </i>
   <i type="logical" name="LHFONE"> F  </i>
   <i type="logical" name="LRHFCALC"> F  </i>
   <i type="logical" name="LTHOMAS"> F  </i>
   <i type="logical" name="LMODELHF"> F  </i>
   <i type="logical" name="LFOCKACE"> F  </i>
   <i name="ENCUT4O">     -1.00000000</i>
   <i type="int" name="EXXOEP">     0</i>
   <i type="int" name="FOURORBIT">     0</i>
   <i name="AEXX">      0.00000000</i>
   <i name="HFALPHA">      0.00000000</i>
   <i name="MCALPHA">      0.00000000</i>
   <i name="ALDAX">      1.00000000</i>
   <i name="AGGAX">      1.00000000</i>
   <i name="ALDAC">      1.00000000</i>
   <i name="AGGAC">      1.00000000</i>
   <i type="int" name="NKREDX">     1</i>
   <i type="int" name="NKREDY">     1</i>
   <i type="int" name="NKREDZ">     1</i>
   <i type="logical" name="SHIFTRED"> F  </i>
   <i type="logical" name="ODDONLY"> F  </i>
   <i type="logical" name="EVENONLY"> F  </i>
   <i type="int" name="LMAXFOCK">     0</i>
   <i type="int" name="NMAXFOCKAE">     0</i>
   <i type="logical" name="LFOCKAEDFT"> F  </i>
   <i name="HFSCREEN">      0.00000000</i>
   <i name="HFSCREENC">      0.00000000</i>
   <i type="int" name="NBANDSGWLOW">     0</i>
  </separator>
  <separator name="vdW DFT" >
   <i type="logical" name="LUSE_VDW"> F  </i>
   <i name="Zab_VDW">     -0.84910000</i>
   <i name="PARAM1">      0.12340000</i>
   <i name="PARAM2">      1.00000000</i>
   <i name="PARAM3">      0.00000000</i>
  </separator>
  <separator name="model GW" >
   <i type="int" name="MODEL_GW">     0</i>
   <i name="MODEL_EPS0">      9.94976379</i>
   <i name="MODEL_ALPHA">      1.00000000</i>
  </separator>
  <separator name="linear response parameters" >
   <i type="logical" name="LEPSILON"> F  </i>
   <i type="logical" name="LRPA"> F  </i>
   <i type="logical" name="LNABLA"> F  </i>
   <i type="logical" name="LVEL"> F  </i>
   <i type="int" name="KINTER">     0</i>
   <i name="CSHIFT">      0.10000000</i>
   <i name="OMEGAMAX">     -1.00000000</i>
   <i name="DEG_THRESHOLD">      0.00200000</i>
   <i name="RTIME">     -0.10000000</i>
   <i name="WPLASMAI">      0.00000000</i>
   <v name="DFIELD">      0.00000000      0.00000000      0.00000000</v>
   <v name="WPLASMA">      0.00000000      0.00000000      0.00000000      0.00000000      0.00000000      0.00000000      0.00000000      0.00000000      0.00000000</v>
  </separator>
  <separator name="orbital magnetization" >
   <i type="logical" name="NUCIND"> F  </i>
   <v name="MAGPOS">      0.00000000      0.00000000      0.00000000</v>
   <i type="logical" name="LNICSALL"> T  </i>
   <i type="logical" name="ORBITALMAG"> F  </i>
   <i type="logical" name="LMAGBLOCH"> F  </i>
   <i type="logical" name="LCHIMAG"> F  </i>
   <i type="logical" name="LGAUGE"> T  </i>
   <i type="int" name="MAGATOM">     0</i>
   <v name="MAGDIPOL">      0.00000000      0.00000000      0.00000000</v>
   <v name="AVECCONST">      0.00000000      0.00000000      0.00000000</v>
  </separator>
  <separator name="response functions" >
   <i type="logical" name="LFINITE_TEMPERATURE"> F  </i>
   <i type="logical" name="LADDER"> F  </i>
   <i type="logical" name="LRPAFORCE"> F  </i>
   <i type="logical" name="LFXC"> F  </i>
   <i type="logical" name="LHARTREE"> T  </i>
   <i type="int" name="IBSE">     0</i>
   <v type="int" name="KPOINT">    -1     0     0     0</v>
   <i type="logical" name="LTCTC"> F  </i>
   <i type="logical" name="LTCTE"> F  </i>
   <i type="logical" name="LTETE"> F  </i>
   <i type="logical" name="LTRIPLET"> F  </i>
   <i type="logical" name="LFXCEPS"> F  </i>
   <i type="logical" name="LFXHEG"> F  </i>
   <i type="int" name="NATURALO">     2</i>
   <i type="logical" name="LHOLEGF"> F  </i>
   <i type="logical" name="L2ORDER"> F  </i>
   <i type="logical" name="LDMP1"> F  </i>
   <i type="logical" name="LMP2LT"> F  </i>
   <i type="logical" name="LSMP2LT"> F  </i>
   <i type="logical" name="LGWLF"> F  </i>
   <i name="ENCUTGW">     -2.00000000</i>
   <i name="ENCUTGWSOFT">     -2.00000000</i>
   <i name="ENCUTLF">     -1.00000000</i>
   <i type="logical" name="LESF_SPLINES"> F  </i>
   <i type="int" name="LMAXMP2">    -1</i>
   <i name="SCISSOR">      0.00000000</i>
   <i type="int" name="NOMEGA">     0</i>
   <i type="int" name="NOMEGAR">     0</i>
   <i type="int" name="NBANDSGW">    -1</i>
   <i type="int" name="NBANDSO">    -1</i>
   <i type="int" name="NBANDSV">    -1</i>
   <i type="int" name="NELM">   100</i>
   <i type="int" name="NELMHF">     1</i>
   <i type="int" name="DIM">     3</i>
   <i type="int" name="IESPILON">     4</i>
   <i type="int" name="ANTIRES">     0</i>
   <i name="OMEGAMAX">    -30.00000000</i>
   <i name="OMEGAMIN">    -30.00000000</i>
   <i name="OMEGATL">   -200.00000000</i>
   <i type="int" name="OMEGAGRID">     0</i>
   <i name="CSHIFT">     -0.10000000</i>
   <i type="logical" name="LSELFENERGY"> F  </i>
   <i type="logical" name="LSPECTRAL"> F  </i>
   <i type="logical" name="LSPECTRALGW"> F  </i>
   <i type="logical" name="LSINGLES"> F  </i>
   <i type="logical" name="LFERMIGW"> F  </i>
   <i type="logical" name="ODDONLYGW"> F  </i>
   <i type="logical" name="EVENONLYGW"> F  </i>
   <i type="int" name="NKREDLFX">     1</i>
   <i type="int" name="NKREDLFY">     1</i>
   <i type="int" name="NKREDLFZ">     1</i>
   <i type="int" name="MAXMEM">  2800</i>
   <i type="int" name="TELESCOPE">     0</i>
   <i type="int" name="NTAUPAR">    -1</i>
   <i type="int" name="NOMEGAPAR">    -1</i>
   <i name="DAMP_NEWTON">      0.80000001</i>
   <i name="LAMBDA">      1.00000000</i>
  </separator>
  <separator name="External order field" >
   <i name="OFIELD_KAPPA">      0.00000000</i>
   <v name="OFIELD_K">      0.00000000      0.00000000      0.00000000</v>
   <i name="OFIELD_Q6_NEAR">      0.00000000</i>
   <i name="OFIELD_Q6_FAR">      0.00000000</i>
   <i name="OFIELD_A">      0.00000000</i>
  </separator>
 </parameters>
 <atominfo>
  <atoms>       1 </atoms>
  <types>       1 </types>
  <array name="atoms" >
   <dimension dim="1">ion</dimension>
   <field type="string">element</field>
   <field type="int">atomtype</field>
   <set>
    <rc><c>Al</c><c>   1</c></rc>
   </set>
  </array>
  <array name="atomtypes" >
   <dimension dim="1">type</dimension>
   <field type="int">atomspertype</field>
   <field type="string">element</field>
   <field>mass</field>
   <field>valence</field>
   <field type="string">pseudopotential</field>
   <set>
    <rc><c>   1</c><c>Al</c><c>     26.98100000</c><c>      3.00000000</c><c>  PAW_PBE Al 04Jan2001                  </c></rc>
   </set>
  </array>
 </atominfo>
 <structure name="initialpos" >
  <crystal>
   <varray name="basis" >
    <v>       0.00000000       2.02400000       2.02400000 </v>
    <v>       2.02400000       0.00000000       2.02400000 </v>
    <v>       2.02400000       2.02400000       0.00000000 </v>
   </varray>
   <i name="volume">     16.58293965 </i>
   <varray name="rec_basis" >
    <v>      -0.24703557       0.24703557       0.24703557 </v>
    <v>       0.24703557      -0.24703557       0.24703557 </v>
    <v>       0.24703557       0.24703557      -0.24703557 </v>
   </varray>
  </crystal>
  <varray name="positions" >
   <v>       0.00000000       0.00000000       0.00000000 </v>
  </varray>
 </structure>
 <calculation>
  <scstep>
   <time name="dav">    6.08    6.08</time>
   <time name="total">    6.29    6.29</time>
   <energy>
    <i name="alphaZ">     -0.20254611 </i>
    <i name="ewald">    -73.39295237 </i>
    <i name="hartreedc">     -0.10329695 </i>
    <i name="XCdc">    -26.19545252 </i>
    <i name="pawpsdc">     66.16230985 </i>
    <i name="pawaedc">    -34.20858819 </i>
    <i name="eentropy">      0.00000000 </i>
    <i name="bandstr">     10.93317590 </i>
    <i name="atom">     53.53857542 </i>
    <i name="e_fr_energy">     -3.46877499 </i>
    <i name="e_wo_entrp">     -3.46877499 </i>
    <i name="e_0_energy">     -3.46877499 </i>
   </energy>
  </scstep>
  <scstep>
   <time name="dav">    9.30    9.30</time>
   <time name="total">    9.34    9.34</time>
   <energy>
    <i name="e_fr_energy">     -3.68284627 </i>
    <i name="e_wo_entrp">     -3.68284627 </i>
    <i name="e_0_energy">     -3.68284627 </i>
   </energy>
  </scstep>
  <scstep>
   <time name="dav">    5.21    5.21</time>
   <time name="total">    5.25    5.25</time>
   <energy>
    <i name="e_fr_energy">     -3.68286524 </i>
    <i name="e_wo_entrp">     -3.68286524 </i>
    <i name="e_0_energy">     -3.68286524 </i>
   </energy>
  </scstep>
  <scstep>
   <time name="dav">   15.68   15.68</time>
   <time name="total">   15.72   15.72</time>
   <energy>
    <i name="e_fr_energy">     -3.68286524 </i>
    <i name="e_wo_entrp">     -3.68286524 </i>
    <i name="e_0_energy">     -3.68286524 </i>
   </energy>
  </scstep>
  <scstep>
   <time name="dav">    5.20    5.20</time>
   <time name="total">    5.30    5.30</time>
   <energy>
    <i name="e_fr_energy">     -3.68286524 </i>
    <i name="e_wo_entrp">     -3.68286524 </i>
    <i name="e_0_energy">     -3.68286524 </i>
   </energy>
  </scstep>
  <scstep>
   <time name="diag">    0.40    0.40</time>
   <time name="diis">    0.31    0.31</time>
   <time name="orth">    0.05    0.05</time>
   <time name="total">    1.03    1.03</time>
   <energy>
    <i name="e_fr_energy">     -3.75449403 </i>
    <i name="e_wo_entrp">     -3.75449403 </i>
    <i name="e_0_energy">     -3.75449403 </i>
   </energy>
  </scstep>
  <scstep>
   <time name="diag">    0.39    0.39</time>
   <time name="diis">    0.38    0.38</time>
   <time name="orth">    0.05    0.05</time>
   <time name="total">    1.10    1.10</time>
   <energy>
    <i name="e_fr_energy">     -3.74609819 </i>
    <i name="e_wo_entrp">     -3.74609819 </i>
    <i name="e_0_energy">     -3.74609819 </i>
   </energy>
  </scstep>
  <scstep>
   <time name="diag">    0.39    0.39</time>
   <time name="diis">    0.39    0.39</time>
   <time name="orth">    0.05    0.05</time>
   <time name="total">    1.11    1.11</time>
   <energy>
    <i name="e_fr_energy">     -3.74602518 </i>
    <i name="e_wo_entrp">     -3.74602518 </i>
    <i name="e_0_energy">     -3.74602518 </i>
   </energy>
  </scstep>
  <scstep>
   <time name="diag">    0.40    0.40</time>
   <time name="diis">    0.48    0.48</time>
   <time name="orth">    0.05    0.05</time>
   <time name="total">    1.15    1.15</time>
   <energy>
    <i name="alphaZ">     -0.20254611 </i>
    <i name="ewald">    -73.39295237 </i>
    <i name="hartreedc">     -0.10532680 </i>
    <i name="XCdc">    -26.14013375 </i>
    <i name="pawpsdc">    145.29578208 </i>
    <i name="pawaedc">   -113.35093390 </i>
    <i name="eentropy">      0.00000000 </i>
    <i name="bandstr">     10.61150805 </i>
    <i name="atom">     53.53857542 </i>
    <i name="e_fr_energy">     -3.74602739 </i>
    <i name="e_wo_entrp">     -3.74602739 </i>
    <i name="e_0_energy">     -3.74602739 </i>
   </energy>
  </scstep>
  <structure>
   <crystal>
    <varray name="basis" >
     <v>       0.00000000       2.02400000       2.02400000 </v>
     <v>       2.02400000       0.00000000       2.02400000 </v>
     <v>       2.02400000       2.02400000       0.00000000 </v>
    </varray>
    <i name="volume">     16.58293965 </i>
    <varray name="rec_basis" >
     <v>      -0.24703557       0.24703557       0.24703557 </v>
     <v>       0.24703557      -0.24703557       0.24703557 </v>
     <v>       0.24703557       0.24703557      -0.24703557 </v>
    </varray>
   </crystal>
   <varray name="positions" >
    <v>       0.00000000       0.00000000       0.00000000 </v>
   </varray>
  </structure>
  <varray name="forces" >
   <v>      -0.00000000       0.00000000       0.00000000 </v>
  </varray>
  <varray name="stress" >
   <v>      -9.01704405       0.00000000      -0.00000000 </v>
   <v>      -0.00000000      -9.01704405      -0.00000000 </v>
   <v>       0.00000000       0.00000000      -9.01704405 </v>
  </varray>
  <energy>
   <i name="e_fr_energy">     -3.74602739 </i>
   <i name="e_wo_entrp">     -3.74602739 </i>
   <i name="e_0_energy">     -3.74602739 </i>
  </energy>
  <time name="totalsc">   47.11   47.12</time>
  <eigenvalues>
   <array>
    <dimension dim="1">band</dimension>
    <dimension dim="2">kpoint</dimension>
    <dimension dim="3">spin</dimension>
    <field>eigene</field>
    <field>occ</field>
    <set>
     <set comment="spin 1">
      <set comment="kpoint 1">
       <r>   -3.1513    1.0000 </r>
       <r>   20.5403    0.0000 </r>
       <r>   20.5403    0.0000 </r>
       <r>   20.5403    0.0000 </r>
       <r>   21.9951    0.0000 </r>
       <r>   21.9951    0.0000 </r>
       <r>   21.9951    0.0000 </r>
       <r>   24.3776    0.0000 </r>
       <r>   27.3150    0.0000 </r>
       <r>   27.3150    0.0000 </r>
       <r>   30.1607    0.0000 </r>
       <r>   32.5109    0.0000 </r>
       <r>   32.5109    0.0000 </r>
       <r>   32.5109    0.0000 </r>
       <r>   41.0634    0.0000 </r>
       <r>   55.9878    0.0000 </r>
       <r>   55.9878    0.0000 </r>
       <r>   55.9878    0.0000 </r>
       <r>   56.0453    0.0000 </r>
       <r>   59.2120    0.0000 </r>
       <r>   59.2120    0.0000 </r>
       <r>   59.2120    0.0000 </r>
       <r>   62.8326    0.0000 </r>
       <r>   62.8326    0.0000 </r>
       <r>   65.0760    0.0000 </r>
       <r>   65.0760    0.0000 </r>
       <r>   65.0760    0.0000 </r>
       <r>   73.1730    0.0000 </r>
       <r>   73.1730    0.0000 </r>
       <r>   73.1730    0.0000 </r>
       <r>   80.8165    0.0000 </r>
       <r>   83.0700    0.0000 </r>
       <r>   83.0700    0.0000 </r>
       <r>   87.1998    0.0000 </r>
       <r>   87.1998    0.0000 </r>
       <r>   87.1998    0.0000 </r>
       <r>   90.0826    0.0000 </r>
       <r>   90.0826    0.0000 </r>
       <r>   90.0826    0.0000 </r>
       <r>   90.8901    0.0000 </r>
       <r>   93.4568    0.0000 </r>
       <r>   93.4568    0.0000 </r>
       <r>   93.4568    0.0000 </r>
       <r>   93.9311    0.0000 </r>
       <r>   93.9311    0.0000 </r>
       <r>   93.9311    0.0000 </r>
       <r>   96.3726    0.0000 </r>
       <r>   96.3726    0.0000 </r>
      </set>
      <set comment="kpoint 2">
       <r>   -2.9274    1.0000 </r>
       <r>   17.6192    0.0000 </r>
       <r>   19.8938    0.0000 </r>
       <r>   19.8938    0.0000 </r>
       <r>   22.6697    0.0000 </r>
       <r>   22.9803    0.0000 </r>
       <r>   22.9803    0.0000 </r>
       <r>   26.2022    0.0000 </r>
       <r>   26.2022    0.0000 </r>
       <r>   26.4705    0.0000 </r>
       <r>   29.4087    0.0000 </r>
       <r>   33.6038    0.0000 </r>
       <r>   34.0811    0.0000 </r>
       <r>   34.0811    0.0000 </r>
       <r>   41.9385    0.0000 </r>
       <r>   55.2652    0.0000 </r>
       <r>   55.5537    0.0000 </r>
       <r>   55.5537    0.0000 </r>
       <r>   56.3391    0.0000 </r>
       <r>   57.1650    0.0000 </r>
       <r>   57.1650    0.0000 </r>
       <r>   59.1951    0.0000 </r>
       <r>   61.5785    0.0000 </r>
       <r>   61.5785    0.0000 </r>
       <r>   65.2763    0.0000 </r>
       <r>   68.9321    0.0000 </r>
       <r>   68.9321    0.0000 </r>
       <r>   71.5267    0.0000 </r>
       <r>   72.9733    0.0000 </r>
       <r>   72.9733    0.0000 </r>
       <r>   81.8227    0.0000 </r>
       <r>   81.8227    0.0000 </r>
       <r>   82.2987    0.0000 </r>
       <r>   84.0845    0.0000 </r>
       <r>   85.7864    0.0000 </r>
       <r>   85.7864    0.0000 </r>
       <r>   87.9809    0.0000 </r>
       <r>   87.9809    0.0000 </r>
       <r>   89.0025    0.0000 </r>
       <r>   90.0822    0.0000 </r>
       <r>   91.2997    0.0000 </r>
       <r>   91.2997    0.0000 </r>
       <r>   92.8765    0.0000 </r>
       <r>   94.8030    0.0000 </r>
       <r>   95.6421    0.0000 </r>
       <r>   95.6421    0.0000 </r>
       <r>   97.0945    0.0000 </r>
       <r>   97.0945    0.0000 </r>
      </set>
      <set comment="kpoint 3">
       <r>   -2.2581    1.0000 </r>
       <r>   13.9742    0.0000 </r>
       <r>   19.1606    0.0000 </r>
       <r>   19.1606    0.0000 </r>
       <r>   22.4371    0.0000 </r>
       <r>   23.8028    0.0000 </r>
       <r>   23.8028    0.0000 </r>
       <r>   25.3160    0.0000 </r>
       <r>   25.3160    0.0000 </r>
       <r>   27.8927    0.0000 </r>
       <r>   29.9795    0.0000 </r>
       <r>   36.4313    0.0000 </r>
       <r>   37.2349    0.0000 </r>
       <r>   37.2349    0.0000 </r>
       <r>   44.1450    0.0000 </r>
       <r>   51.7089    0.0000 </r>
       <r>   51.7089    0.0000 </r>
       <r>   53.8744    0.0000 </r>
       <r>   56.3711    0.0000 </r>
       <r>   56.3711    0.0000 </r>
       <r>   56.5403    0.0000 </r>
       <r>   58.8557    0.0000 </r>
       <r>   61.7184    0.0000 </r>
       <r>   61.7184    0.0000 </r>
       <r>   65.8666    0.0000 </r>
       <r>   68.8938    0.0000 </r>
       <r>   71.0624    0.0000 </r>
       <r>   71.0624    0.0000 </r>
       <r>   73.9444    0.0000 </r>
       <r>   73.9444    0.0000 </r>
       <r>   78.8440    0.0000 </r>
       <r>   78.9807    0.0000 </r>
       <r>   78.9807    0.0000 </r>
       <r>   82.8114    0.0000 </r>
       <r>   82.8114    0.0000 </r>
       <r>   84.8192    0.0000 </r>
       <r>   85.6512    0.0000 </r>
       <r>   86.5795    0.0000 </r>
       <r>   86.5795    0.0000 </r>
       <r>   87.4908    0.0000 </r>
       <r>   89.4429    0.0000 </r>
       <r>   90.0109    0.0000 </r>
       <r>   90.0109    0.0000 </r>
       <r>   93.9093    0.0000 </r>
       <r>   97.2820    0.0000 </r>
       <r>   97.2820    0.0000 </r>
       <r>   99.4835    0.0000 </r>
       <r>   99.4835    0.0000 </r>
      </set>
      <set comment="kpoint 4">
       <r>   -1.1494    1.0000 </r>
       <r>   10.5495   -0.0162 </r>
       <r>   18.7519    0.0000 </r>
       <r>   18.7519    0.0000 </r>
       <r>   22.2252    0.0000 </r>
       <r>   22.2578    0.0000 </r>
       <r>   22.2578    0.0000 </r>
       <r>   26.2470    0.0000 </r>
       <r>   27.3610    0.0000 </r>
       <r>   27.3610    0.0000 </r>
       <r>   33.3143    0.0000 </r>
       <r>   40.5161    0.0000 </r>
       <r>   40.8488    0.0000 </r>
       <r>   40.8488    0.0000 </r>
       <r>   47.0295    0.0000 </r>
       <r>   47.3678    0.0000 </r>
       <r>   47.3678    0.0000 </r>
       <r>   51.9094    0.0000 </r>
       <r>   56.3279    0.0000 </r>
       <r>   56.3279    0.0000 </r>
       <r>   56.7662    0.0000 </r>
       <r>   57.9050    0.0000 </r>
       <r>   62.1666    0.0000 </r>
       <r>   62.1666    0.0000 </r>
       <r>   66.3253    0.0000 </r>
       <r>   66.8051    0.0000 </r>
       <r>   67.8362    0.0000 </r>
       <r>   67.8362    0.0000 </r>
       <r>   74.3819    0.0000 </r>
       <r>   74.3819    0.0000 </r>
       <r>   75.7441    0.0000 </r>
       <r>   78.3804    0.0000 </r>
       <r>   79.1174    0.0000 </r>
       <r>   79.1174    0.0000 </r>
       <r>   79.9644    0.0000 </r>
       <r>   79.9644    0.0000 </r>
       <r>   81.1812    0.0000 </r>
       <r>   88.1610    0.0000 </r>
       <r>   88.1610    0.0000 </r>
       <r>   88.7381    0.0000 </r>
       <r>   89.4799    0.0000 </r>
       <r>   89.4799    0.0000 </r>
       <r>   91.1130    0.0000 </r>
       <r>   93.0301    0.0000 </r>
       <r>   97.5072    0.0000 </r>
       <r>   97.5072    0.0000 </r>
       <r>  101.4927    0.0000 </r>
       <r>  102.4381    0.0000 </r>
      </set>
      <set comment="kpoint 5">
       <r>    0.3887    1.0000 </r>
       <r>    7.4470    0.7111 </r>
       <r>   18.7079    0.0000 </r>
       <r>   18.7079    0.0000 </r>
       <r>   20.8286    0.0000 </r>
       <r>   20.8286    0.0000 </r>
       <r>   22.2961    0.0000 </r>
       <r>   24.7593    0.0000 </r>
       <r>   29.8895    0.0000 </r>
       <r>   29.8895    0.0000 </r>
       <r>   36.4448    0.0000 </r>
       <r>   41.9028    0.0000 </r>
       <r>   41.9028    0.0000 </r>
       <r>   45.0376    0.0000 </r>
       <r>   46.4368    0.0000 </r>
       <r>   46.4368    0.0000 </r>
       <r>   48.3296    0.0000 </r>
       <r>   51.7442    0.0000 </r>
       <r>   56.2530    0.0000 </r>
       <r>   56.2530    0.0000 </r>
       <r>   56.3792    0.0000 </r>
       <r>   57.0550    0.0000 </r>
       <r>   61.3444    0.0000 </r>
       <r>   61.3444    0.0000 </r>
       <r>   63.7399    0.0000 </r>
       <r>   64.4050    0.0000 </r>
       <r>   64.4050    0.0000 </r>
       <r>   67.9664    0.0000 </r>
       <r>   69.6713    0.0000 </r>
       <r>   73.8306    0.0000 </r>
       <r>   73.8306    0.0000 </r>
       <r>   76.5540    0.0000 </r>
       <r>   76.9668    0.0000 </r>
       <r>   76.9668    0.0000 </r>
       <r>   78.2188    0.0000 </r>
       <r>   80.4330    0.0000 </r>
       <r>   80.4330    0.0000 </r>
       <r>   88.5369    0.0000 </r>
       <r>   89.1182    0.0000 </r>
       <r>   89.1182    0.0000 </r>
       <r>   90.4655    0.0000 </r>
       <r>   92.0078    0.0000 </r>
       <r>   92.0078    0.0000 </r>
       <r>   94.2211    0.0000 </r>
       <r>   98.9610    0.0000 </r>
       <r>   98.9610    0.0000 </r>
       <r>  102.3361    0.0000 </r>
       <r>  104.0854    0.0000 </r>
      </set>
      <set comment="kpoint 6">
       <r>    2.3416    1.0000 </r>
       <r>    4.7079    1.0000 </r>
       <r>   19.0371    0.0000 </r>
       <r>   19.0371    0.0000 </r>
       <r>   19.7493    0.0000 </r>
       <r>   19.7493    0.0000 </r>
       <r>   22.7336    0.0000 </r>
       <r>   23.5706    0.0000 </r>
       <r>   32.2129    0.0000 </r>
       <r>   32.2129    0.0000 </r>
       <r>   39.0083    0.0000 </r>
       <r>   39.2262    0.0000 </r>
       <r>   39.2262    0.0000 </r>
       <r>   45.8111    0.0000 </r>
       <r>   49.6285    0.0000 </r>
       <r>   50.3209    0.0000 </r>
       <r>   50.3209    0.0000 </r>
       <r>   54.1912    0.0000 </r>
       <r>   55.4452    0.0000 </r>
       <r>   55.4452    0.0000 </r>
       <r>   55.4504    0.0000 </r>
       <r>   57.6454    0.0000 </r>
       <r>   57.9353    0.0000 </r>
       <r>   57.9353    0.0000 </r>
       <r>   61.6612    0.0000 </r>
       <r>   63.6218    0.0000 </r>
       <r>   64.2294    0.0000 </r>
       <r>   64.2294    0.0000 </r>
       <r>   68.9554    0.0000 </r>
       <r>   73.6000    0.0000 </r>
       <r>   73.6000    0.0000 </r>
       <r>   75.5289    0.0000 </r>
       <r>   75.5289    0.0000 </r>
       <r>   76.3287    0.0000 </r>
       <r>   76.8628    0.0000 </r>
       <r>   80.5347    0.0000 </r>
       <r>   80.5347    0.0000 </r>
       <r>   88.5872    0.0000 </r>
       <r>   88.8748    0.0000 </r>
       <r>   88.8748    0.0000 </r>
       <r>   89.2054    0.0000 </r>
       <r>   94.1929    0.0000 </r>
       <r>   95.0919    0.0000 </r>
       <r>   95.0919    0.0000 </r>
       <r>  101.1761    0.0000 </r>
       <r>  101.1761    0.0000 </r>
       <r>  105.1190    0.0000 </r>
       <r>  105.1190    0.0000 </r>
      </set>
      <set comment="kpoint 7">
       <r>   -2.8529    1.0000 </r>
       <r>   18.6318    0.0000 </r>
       <r>   18.6318    0.0000 </r>
       <r>   18.9315    0.0000 </r>
       <r>   21.3281    0.0000 </r>
       <r>   24.2918    0.0000 </r>
       <r>   24.3360    0.0000 </r>
       <r>   24.3360    0.0000 </r>
       <r>   26.5827    0.0000 </r>
       <r>   27.5910    0.0000 </r>
       <r>   30.5942    0.0000 </r>
       <r>   32.8566    0.0000 </r>
       <r>   32.8566    0.0000 </r>
       <r>   35.5666    0.0000 </r>
       <r>   42.3736    0.0000 </r>
       <r>   55.1748    0.0000 </r>
       <r>   55.1748    0.0000 </r>
       <r>   55.4005    0.0000 </r>
       <r>   56.5089    0.0000 </r>
       <r>   57.4425    0.0000 </r>
       <r>   57.4425    0.0000 </r>
       <r>   57.8545    0.0000 </r>
       <r>   59.4064    0.0000 </r>
       <r>   62.7532    0.0000 </r>
       <r>   67.4697    0.0000 </r>
       <r>   67.4697    0.0000 </r>
       <r>   70.3895    0.0000 </r>
       <r>   70.4315    0.0000 </r>
       <r>   73.4308    0.0000 </r>
       <r>   73.4308    0.0000 </r>
       <r>   80.6190    0.0000 </r>
       <r>   82.5682    0.0000 </r>
       <r>   82.6822    0.0000 </r>
       <r>   82.6822    0.0000 </r>
       <r>   83.4037    0.0000 </r>
       <r>   84.1238    0.0000 </r>
       <r>   88.7383    0.0000 </r>
       <r>   90.0766    0.0000 </r>
       <r>   90.0766    0.0000 </r>
       <r>   90.1070    0.0000 </r>
       <r>   90.1070    0.0000 </r>
       <r>   92.1271    0.0000 </r>
       <r>   93.1283    0.0000 </r>
       <r>   94.3974    0.0000 </r>
       <r>   94.7918    0.0000 </r>
       <r>   97.7764    0.0000 </r>
       <r>   97.8017    0.0000 </r>
       <r>   97.8018    0.0000 </r>
      </set>
      <set comment="kpoint 8">
       <r>   -2.3323    1.0000 </r>
       <r>   15.2961    0.0000 </r>
       <r>   17.7057    0.0000 </r>
       <r>   19.0470    0.0000 </r>
       <r>   21.6654    0.0000 </r>
       <r>   22.2807    0.0000 </r>
       <r>   24.7151    0.0000 </r>
       <r>   25.7359    0.0000 </r>
       <r>   27.0757    0.0000 </r>
       <r>   29.5004    0.0000 </r>
       <r>   29.9516    0.0000 </r>
       <r>   34.7296    0.0000 </r>
       <r>   35.0374    0.0000 </r>
       <r>   37.8752    0.0000 </r>
       <r>   44.4209    0.0000 </r>
       <r>   51.7161    0.0000 </r>
       <r>   52.8032    0.0000 </r>
       <r>   55.3983    0.0000 </r>
       <r>   55.6552    0.0000 </r>
       <r>   56.1652    0.0000 </r>
       <r>   56.9871    0.0000 </r>
       <r>   57.9639    0.0000 </r>
       <r>   59.3657    0.0000 </r>
       <r>   62.3054    0.0000 </r>
       <r>   67.4617    0.0000 </r>
       <r>   68.4120    0.0000 </r>
       <r>   71.3115    0.0000 </r>
       <r>   72.5330    0.0000 </r>
       <r>   72.5757    0.0000 </r>
       <r>   74.9081    0.0000 </r>
       <r>   77.2965    0.0000 </r>
       <r>   78.4259    0.0000 </r>
       <r>   80.6575    0.0000 </r>
       <r>   81.7003    0.0000 </r>
       <r>   82.4825    0.0000 </r>
       <r>   84.0860    0.0000 </r>
       <r>   86.2075    0.0000 </r>
       <r>   86.2708    0.0000 </r>
       <r>   89.1394    0.0000 </r>
       <r>   89.2540    0.0000 </r>
       <r>   89.7779    0.0000 </r>
       <r>   91.3507    0.0000 </r>
       <r>   93.7376    0.0000 </r>
       <r>   94.4141    0.0000 </r>
       <r>   94.5141    0.0000 </r>
       <r>   96.1732    0.0000 </r>
       <r>   97.0315    0.0000 </r>
       <r>   97.6139    0.0000 </r>
      </set>
      <set comment="kpoint 9">
       <r>   -1.3704    1.0000 </r>
       <r>   11.8215    0.0000 </r>
       <r>   17.1495    0.0000 </r>
       <r>   18.7068    0.0000 </r>
       <r>   20.0159    0.0000 </r>
       <r>   23.7956    0.0000 </r>
       <r>   24.6494    0.0000 </r>
       <r>   24.7574    0.0000 </r>
       <r>   28.2543    0.0000 </r>
       <r>   28.5396    0.0000 </r>
       <r>   33.0555    0.0000 </r>
       <r>   38.0843    0.0000 </r>
       <r>   39.0263    0.0000 </r>
       <r>   40.8799    0.0000 </r>
       <r>   47.1319    0.0000 </r>
       <r>   47.3266    0.0000 </r>
       <r>   49.0793    0.0000 </r>
       <r>   53.6670    0.0000 </r>
       <r>   55.5336    0.0000 </r>
       <r>   56.1659    0.0000 </r>
       <r>   57.1161    0.0000 </r>
       <r>   58.5418    0.0000 </r>
       <r>   58.6093    0.0000 </r>
       <r>   62.5236    0.0000 </r>
       <r>   65.0115    0.0000 </r>
       <r>   68.7813    0.0000 </r>
       <r>   68.8459    0.0000 </r>
       <r>   71.5286    0.0000 </r>
       <r>   72.0142    0.0000 </r>
       <r>   73.7243    0.0000 </r>
       <r>   76.9962    0.0000 </r>
       <r>   77.1196    0.0000 </r>
       <r>   78.6082    0.0000 </r>
       <r>   80.6859    0.0000 </r>
       <r>   81.0145    0.0000 </r>
       <r>   81.4759    0.0000 </r>
       <r>   82.6247    0.0000 </r>
       <r>   86.7456    0.0000 </r>
       <r>   86.7918    0.0000 </r>
       <r>   87.0464    0.0000 </r>
       <r>   91.0072    0.0000 </r>
       <r>   92.3780    0.0000 </r>
       <r>   92.6014    0.0000 </r>
       <r>   94.1356    0.0000 </r>
       <r>   94.4813    0.0000 </r>
       <r>   97.2720    0.0000 </r>
       <r>   99.7240    0.0000 </r>
       <r>  100.7966    0.0000 </r>
      </set>
      <set comment="kpoint 10">
       <r>    0.0239    1.0000 </r>
       <r>    8.6209    0.1967 </r>
       <r>   16.9703    0.0000 </r>
       <r>   18.3664    0.0000 </r>
       <r>   18.6182    0.0000 </r>
       <r>   23.2985    0.0000 </r>
       <r>   24.3942    0.0000 </r>
       <r>   26.0458    0.0000 </r>
       <r>   27.2163    0.0000 </r>
       <r>   30.8505    0.0000 </r>
       <r>   36.2801    0.0000 </r>
       <r>   40.8716    0.0000 </r>
       <r>   43.2324    0.0000 </r>
       <r>   43.7145    0.0000 </r>
       <r>   44.2176    0.0000 </r>
       <r>   46.3843    0.0000 </r>
       <r>   49.7835    0.0000 </r>
       <r>   52.2639    0.0000 </r>
       <r>   55.6240    0.0000 </r>
       <r>   56.2353    0.0000 </r>
       <r>   56.6609    0.0000 </r>
       <r>   57.5886    0.0000 </r>
       <r>   59.1532    0.0000 </r>
       <r>   61.7239    0.0000 </r>
       <r>   63.2190    0.0000 </r>
       <r>   64.9128    0.0000 </r>
       <r>   66.4550    0.0000 </r>
       <r>   70.4257    0.0000 </r>
       <r>   70.4799    0.0000 </r>
       <r>   71.3576    0.0000 </r>
       <r>   72.6027    0.0000 </r>
       <r>   76.1243    0.0000 </r>
       <r>   77.1556    0.0000 </r>
       <r>   78.1692    0.0000 </r>
       <r>   80.5783    0.0000 </r>
       <r>   81.5377    0.0000 </r>
       <r>   83.3293    0.0000 </r>
       <r>   84.6161    0.0000 </r>
       <r>   87.2809    0.0000 </r>
       <r>   88.6152    0.0000 </r>
       <r>   92.5162    0.0000 </r>
       <r>   93.5837    0.0000 </r>
       <r>   93.7239    0.0000 </r>
       <r>   94.4596    0.0000 </r>
       <r>   96.1805    0.0000 </r>
       <r>   98.3219    0.0000 </r>
       <r>  101.1331    0.0000 </r>
       <r>  103.2465    0.0000 </r>
      </set>
      <set comment="kpoint 11">
       <r>    1.8379    1.0000 </r>
       <r>    5.7644    1.0451 </r>
       <r>   17.1431    0.0000 </r>
       <r>   17.1706    0.0000 </r>
       <r>   18.8340    0.0000 </r>
       <r>   22.1213    0.0000 </r>
       <r>   24.6449    0.0000 </r>
       <r>   25.3360    0.0000 </r>
       <r>   29.4678    0.0000 </r>
       <r>   32.7303    0.0000 </r>
       <r>   39.1070    0.0000 </r>
       <r>   39.1534    0.0000 </r>
       <r>   40.6665    0.0000 </r>
       <r>   47.1221    0.0000 </r>
       <r>   47.4426    0.0000 </r>
       <r>   48.7407    0.0000 </r>
       <r>   49.8142    0.0000 </r>
       <r>   54.2023    0.0000 </r>
       <r>   55.0548    0.0000 </r>
       <r>   55.6586    0.0000 </r>
       <r>   56.1947    0.0000 </r>
       <r>   56.8097    0.0000 </r>
       <r>   58.7367    0.0000 </r>
       <r>   59.0862    0.0000 </r>
       <r>   62.0768    0.0000 </r>
       <r>   62.8241    0.0000 </r>
       <r>   63.9777    0.0000 </r>
       <r>   66.0823    0.0000 </r>
       <r>   69.1228    0.0000 </r>
       <r>   69.7636    0.0000 </r>
       <r>   71.9436    0.0000 </r>
       <r>   74.9614    0.0000 </r>
       <r>   76.1207    0.0000 </r>
       <r>   78.1160    0.0000 </r>
       <r>   80.4068    0.0000 </r>
       <r>   81.2868    0.0000 </r>
       <r>   82.7902    0.0000 </r>
       <r>   83.6104    0.0000 </r>
       <r>   88.4628    0.0000 </r>
       <r>   88.6954    0.0000 </r>
       <r>   92.3830    0.0000 </r>
       <r>   94.6231    0.0000 </r>
       <r>   95.6647    0.0000 </r>
       <r>   96.9404    0.0000 </r>
       <r>   99.6825    0.0000 </r>
       <r>  101.3758    0.0000 </r>
       <r>  101.4565    0.0000 </r>
       <r>  102.1298    0.0000 </r>
      </set>
      <set comment="kpoint 12">
       <r>    3.2642    1.0000 </r>
       <r>    4.0764    1.0000 </r>
       <r>   16.2846    0.0000 </r>
       <r>   17.7515    0.0000 </r>
       <r>   19.4594    0.0000 </r>
       <r>   21.2981    0.0000 </r>
       <r>   24.2597    0.0000 </r>
       <r>   25.4722    0.0000 </r>
       <r>   31.7374    0.0000 </r>
       <r>   31.8943    0.0000 </r>
       <r>   38.0384    0.0000 </r>
       <r>   39.7848    0.0000 </r>
       <r>   40.5274    0.0000 </r>
       <r>   46.3943    0.0000 </r>
       <r>   49.4012    0.0000 </r>
       <r>   50.6192    0.0000 </r>
       <r>   51.4103    0.0000 </r>
       <r>   53.6346    0.0000 </r>
       <r>   54.9397    0.0000 </r>
       <r>   55.3033    0.0000 </r>
       <r>   56.4051    0.0000 </r>
       <r>   56.9309    0.0000 </r>
       <r>   57.1741    0.0000 </r>
       <r>   58.8524    0.0000 </r>
       <r>   61.6933    0.0000 </r>
       <r>   61.8210    0.0000 </r>
       <r>   62.7676    0.0000 </r>
       <r>   64.7508    0.0000 </r>
       <r>   68.8608    0.0000 </r>
       <r>   69.3192    0.0000 </r>
       <r>   72.1604    0.0000 </r>
       <r>   74.6662    0.0000 </r>
       <r>   76.1238    0.0000 </r>
       <r>   78.1919    0.0000 </r>
       <r>   80.1396    0.0000 </r>
       <r>   81.3827    0.0000 </r>
       <r>   82.1652    0.0000 </r>
       <r>   83.4837    0.0000 </r>
       <r>   88.4919    0.0000 </r>
       <r>   88.6224    0.0000 </r>
       <r>   92.1258    0.0000 </r>
       <r>   94.8787    0.0000 </r>
       <r>   96.5885    0.0000 </r>
       <r>   98.1647    0.0000 </r>
       <r>   99.9144    0.0000 </r>
       <r>  100.5936    0.0000 </r>
       <r>  103.7009    0.0000 </r>
       <r>  104.5761    0.0000 </r>
      </set>
      <set comment="kpoint 13">
       <r>    1.1877    1.0000 </r>
       <r>    6.6742    1.0095 </r>
       <r>   15.8198    0.0000 </r>
       <r>   18.7106    0.0000 </r>
       <r>   20.4697    0.0000 </r>
       <r>   20.8462    0.0000 </r>
       <r>   23.7273    0.0000 </r>
       <r>   26.4144    0.0000 </r>
       <r>   29.2325    0.0000 </r>
       <r>   31.3129    0.0000 </r>
       <r>   38.1070    0.0000 </r>
       <r>   39.3516    0.0000 </r>
       <r>   42.8031    0.0000 </r>
       <r>   45.2726    0.0000 </r>
       <r>   46.5743    0.0000 </r>
       <r>   48.6871    0.0000 </r>
       <r>   49.4239    0.0000 </r>
       <r>   53.6074    0.0000 </r>
       <r>   55.5274    0.0000 </r>
       <r>   55.7017    0.0000 </r>
       <r>   55.7967    0.0000 </r>
       <r>   57.7221    0.0000 </r>
       <r>   59.1570    0.0000 </r>
       <r>   60.5248    0.0000 </r>
       <r>   60.9368    0.0000 </r>
       <r>   62.7453    0.0000 </r>
       <r>   64.9050    0.0000 </r>
       <r>   68.6675    0.0000 </r>
       <r>   69.3652    0.0000 </r>
       <r>   70.1680    0.0000 </r>
       <r>   71.3540    0.0000 </r>
       <r>   75.3280    0.0000 </r>
       <r>   76.4562    0.0000 </r>
       <r>   78.7473    0.0000 </r>
       <r>   79.8145    0.0000 </r>
       <r>   81.7436    0.0000 </r>
       <r>   82.9753    0.0000 </r>
       <r>   83.6697    0.0000 </r>
       <r>   87.8933    0.0000 </r>
       <r>   88.0838    0.0000 </r>
       <r>   92.9068    0.0000 </r>
       <r>   93.6506    0.0000 </r>
       <r>   94.8148    0.0000 </r>
       <r>   95.8878    0.0000 </r>
       <r>   98.7936    0.0000 </r>
       <r>  100.1707    0.0000 </r>
       <r>  102.3862    0.0000 </r>
       <r>  106.0320    0.0000 </r>
      </set>
      <set comment="kpoint 14">
       <r>   -0.4882    1.0000 </r>
       <r>    9.6455   -0.0577 </r>
       <r>   15.7542    0.0000 </r>
       <r>   20.0180    0.0000 </r>
       <r>   20.7848    0.0000 </r>
       <r>   21.8409    0.0000 </r>
       <r>   23.5148    0.0000 </r>
       <r>   26.5208    0.0000 </r>
       <r>   27.4025    0.0000 </r>
       <r>   29.3517    0.0000 </r>
       <r>   35.3830    0.0000 </r>
       <r>   39.7890    0.0000 </r>
       <r>   42.2391    0.0000 </r>
       <r>   43.8471    0.0000 </r>
       <r>   43.9655    0.0000 </r>
       <r>   48.0317    0.0000 </r>
       <r>   48.8532    0.0000 </r>
       <r>   51.9618    0.0000 </r>
       <r>   55.6951    0.0000 </r>
       <r>   55.9148    0.0000 </r>
       <r>   57.1703    0.0000 </r>
       <r>   57.8553    0.0000 </r>
       <r>   59.9966    0.0000 </r>
       <r>   61.3996    0.0000 </r>
       <r>   64.0330    0.0000 </r>
       <r>   64.9501    0.0000 </r>
       <r>   68.3820    0.0000 </r>
       <r>   70.3354    0.0000 </r>
       <r>   70.5904    0.0000 </r>
       <r>   72.6815    0.0000 </r>
       <r>   75.2127    0.0000 </r>
       <r>   75.9042    0.0000 </r>
       <r>   77.6254    0.0000 </r>
       <r>   78.8476    0.0000 </r>
       <r>   79.3913    0.0000 </r>
       <r>   82.9834    0.0000 </r>
       <r>   84.3266    0.0000 </r>
       <r>   84.6770    0.0000 </r>
       <r>   86.1392    0.0000 </r>
       <r>   86.7687    0.0000 </r>
       <r>   90.8185    0.0000 </r>
       <r>   91.1144    0.0000 </r>
       <r>   94.5298    0.0000 </r>
       <r>   95.2490    0.0000 </r>
       <r>   96.3009    0.0000 </r>
       <r>   99.7318    0.0000 </r>
       <r>  100.6411    0.0000 </r>
       <r>  104.0409    0.0000 </r>
      </set>
      <set comment="kpoint 15">
       <r>   -1.7396    1.0000 </r>
       <r>   12.9263    0.0000 </r>
       <r>   16.1029    0.0000 </r>
       <r>   20.9367    0.0000 </r>
       <r>   21.7508    0.0000 </r>
       <r>   23.4402    0.0000 </r>
       <r>   23.6121    0.0000 </r>
       <r>   24.2056    0.0000 </r>
       <r>   26.3097    0.0000 </r>
       <r>   29.6153    0.0000 </r>
       <r>   32.1552    0.0000 </r>
       <r>   36.0530    0.0000 </r>
       <r>   38.4267    0.0000 </r>
       <r>   40.4573    0.0000 </r>
       <r>   45.9034    0.0000 </r>
       <r>   47.6912    0.0000 </r>
       <r>   51.8737    0.0000 </r>
       <r>   53.7796    0.0000 </r>
       <r>   55.5797    0.0000 </r>
       <r>   55.8258    0.0000 </r>
       <r>   57.1636    0.0000 </r>
       <r>   58.9516    0.0000 </r>
       <r>   59.4269    0.0000 </r>
       <r>   61.0854    0.0000 </r>
       <r>   66.9977    0.0000 </r>
       <r>   68.5549    0.0000 </r>
       <r>   69.4694    0.0000 </r>
       <r>   71.0067    0.0000 </r>
       <r>   73.8318    0.0000 </r>
       <r>   74.8340    0.0000 </r>
       <r>   76.9715    0.0000 </r>
       <r>   77.8722    0.0000 </r>
       <r>   78.8608    0.0000 </r>
       <r>   79.1973    0.0000 </r>
       <r>   82.7517    0.0000 </r>
       <r>   83.1940    0.0000 </r>
       <r>   84.6600    0.0000 </r>
       <r>   85.3348    0.0000 </r>
       <r>   86.6845    0.0000 </r>
       <r>   87.0118    0.0000 </r>
       <r>   89.1569    0.0000 </r>
       <r>   90.7671    0.0000 </r>
       <r>   91.6592    0.0000 </r>
       <r>   94.4597    0.0000 </r>
       <r>   96.4221    0.0000 </r>
       <r>   97.1789    0.0000 </r>
       <r>   99.3792    0.0000 </r>
       <r>  101.4723    0.0000 </r>
      </set>
      <set comment="kpoint 16">
       <r>   -2.5552    1.0000 </r>
       <r>   16.1358    0.0000 </r>
       <r>   17.1421    0.0000 </r>
       <r>   21.1206    0.0000 </r>
       <r>   22.3029    0.0000 </r>
       <r>   23.3733    0.0000 </r>
       <r>   24.1092    0.0000 </r>
       <r>   24.4757    0.0000 </r>
       <r>   25.4822    0.0000 </r>
       <r>   28.8066    0.0000 </r>
       <r>   30.2751    0.0000 </r>
       <r>   33.2766    0.0000 </r>
       <r>   35.6234    0.0000 </r>
       <r>   36.9546    0.0000 </r>
       <r>   43.3410    0.0000 </r>
       <r>   52.1674    0.0000 </r>
       <r>   55.1676    0.0000 </r>
       <r>   55.6421    0.0000 </r>
       <r>   55.6825    0.0000 </r>
       <r>   55.6858    0.0000 </r>
       <r>   56.9710    0.0000 </r>
       <r>   59.3042    0.0000 </r>
       <r>   59.8581    0.0000 </r>
       <r>   60.9617    0.0000 </r>
       <r>   68.6191    0.0000 </r>
       <r>   68.9788    0.0000 </r>
       <r>   69.5369    0.0000 </r>
       <r>   71.6127    0.0000 </r>
       <r>   73.0591    0.0000 </r>
       <r>   73.7169    0.0000 </r>
       <r>   80.0721    0.0000 </r>
       <r>   80.4034    0.0000 </r>
       <r>   80.7902    0.0000 </r>
       <r>   81.9532    0.0000 </r>
       <r>   82.4431    0.0000 </r>
       <r>   86.1073    0.0000 </r>
       <r>   86.2340    0.0000 </r>
       <r>   86.8226    0.0000 </r>
       <r>   87.4478    0.0000 </r>
       <r>   89.8943    0.0000 </r>
       <r>   90.7811    0.0000 </r>
       <r>   92.2642    0.0000 </r>
       <r>   92.3857    0.0000 </r>
       <r>   92.9577    0.0000 </r>
       <r>   93.3298    0.0000 </r>
       <r>   95.7451    0.0000 </r>
       <r>   97.7162    0.0000 </r>
       <r>   98.7406    0.0000 </r>
      </set>
      <set comment="kpoint 17">
       <r>   -1.9615    1.0000 </r>
       <r>   16.6290    0.0000 </r>
       <r>   16.6290    0.0000 </r>
       <r>   16.7616    0.0000 </r>
       <r>   19.5892    0.0000 </r>
       <r>   19.9622    0.0000 </r>
       <r>   27.5149    0.0000 </r>
       <r>   27.5149    0.0000 </r>
       <r>   28.4095    0.0000 </r>
       <r>   30.5398    0.0000 </r>
       <r>   32.5172    0.0000 </r>
       <r>   33.9977    0.0000 </r>
       <r>   33.9977    0.0000 </r>
       <r>   38.7744    0.0000 </r>
       <r>   46.5381    0.0000 </r>
       <r>   51.7480    0.0000 </r>
       <r>   51.7480    0.0000 </r>
       <r>   52.4485    0.0000 </r>
       <r>   54.5870    0.0000 </r>
       <r>   56.8219    0.0000 </r>
       <r>   56.8219    0.0000 </r>
       <r>   56.9212    0.0000 </r>
       <r>   59.9397    0.0000 </r>
       <r>   61.6774    0.0000 </r>
       <r>   66.8681    0.0000 </r>
       <r>   70.0593    0.0000 </r>
       <r>   70.0593    0.0000 </r>
       <r>   72.4740    0.0000 </r>
       <r>   72.4740    0.0000 </r>
       <r>   76.2004    0.0000 </r>
       <r>   76.2573    0.0000 </r>
       <r>   78.0548    0.0000 </r>
       <r>   78.2039    0.0000 </r>
       <r>   78.2039    0.0000 </r>
       <r>   82.4900    0.0000 </r>
       <r>   84.1363    0.0000 </r>
       <r>   87.3595    0.0000 </r>
       <r>   87.3595    0.0000 </r>
       <r>   88.1977    0.0000 </r>
       <r>   89.8703    0.0000 </r>
       <r>   91.7727    0.0000 </r>
       <r>   91.7727    0.0000 </r>
       <r>   93.5196    0.0000 </r>
       <r>   93.6294    0.0000 </r>
       <r>   93.6294    0.0000 </r>
       <r>   93.7501    0.0000 </r>
       <r>   98.1455    0.0000 </r>
       <r>   98.2547    0.0000 </r>
      </set>
      <set comment="kpoint 18">
       <r>   -1.1494    1.0000 </r>
       <r>   13.4107    0.0000 </r>
       <r>   15.9347    0.0000 </r>
       <r>   17.2242    0.0000 </r>
       <r>   17.5069    0.0000 </r>
       <r>   20.4892    0.0000 </r>
       <r>   27.4368    0.0000 </r>
       <r>   28.1391    0.0000 </r>
       <r>   29.8069    0.0000 </r>
       <r>   31.3793    0.0000 </r>
       <r>   33.6729    0.0000 </r>
       <r>   36.1716    0.0000 </r>
       <r>   37.4458    0.0000 </r>
       <r>   40.5697    0.0000 </r>
       <r>   47.2921    0.0000 </r>
       <r>   49.0695    0.0000 </r>
       <r>   49.5037    0.0000 </r>
       <r>   52.6983    0.0000 </r>
       <r>   54.4302    0.0000 </r>
       <r>   55.8371    0.0000 </r>
       <r>   56.8341    0.0000 </r>
       <r>   57.1757    0.0000 </r>
       <r>   59.8290    0.0000 </r>
       <r>   60.9992    0.0000 </r>
       <r>   64.7676    0.0000 </r>
       <r>   68.4348    0.0000 </r>
       <r>   68.8438    0.0000 </r>
       <r>   71.0141    0.0000 </r>
       <r>   71.3054    0.0000 </r>
       <r>   73.8666    0.0000 </r>
       <r>   76.9294    0.0000 </r>
       <r>   77.2878    0.0000 </r>
       <r>   77.8356    0.0000 </r>
       <r>   79.3650    0.0000 </r>
       <r>   81.9960    0.0000 </r>
       <r>   82.7803    0.0000 </r>
       <r>   84.8855    0.0000 </r>
       <r>   86.0170    0.0000 </r>
       <r>   87.6900    0.0000 </r>
       <r>   89.9539    0.0000 </r>
       <r>   90.2071    0.0000 </r>
       <r>   91.9100    0.0000 </r>
       <r>   92.7503    0.0000 </r>
       <r>   93.6301    0.0000 </r>
       <r>   94.5506    0.0000 </r>
       <r>   98.0268    0.0000 </r>
       <r>   98.2866    0.0000 </r>
       <r>   98.9260    0.0000 </r>
      </set>
      <set comment="kpoint 19">
       <r>    0.0965    1.0000 </r>
       <r>   10.1735   -0.0476 </r>
       <r>   15.6212    0.0000 </r>
       <r>   15.6226    0.0000 </r>
       <r>   17.2760    0.0000 </r>
       <r>   22.6118    0.0000 </r>
       <r>   26.0846    0.0000 </r>
       <r>   28.1618    0.0000 </r>
       <r>   29.9223    0.0000 </r>
       <r>   31.9541    0.0000 </r>
       <r>   36.9940    0.0000 </r>
       <r>   39.4933    0.0000 </r>
       <r>   42.2203    0.0000 </r>
       <r>   42.8715    0.0000 </r>
       <r>   43.3737    0.0000 </r>
       <r>   45.9880    0.0000 </r>
       <r>   52.4527    0.0000 </r>
       <r>   53.5279    0.0000 </r>
       <r>   54.3606    0.0000 </r>
       <r>   54.6284    0.0000 </r>
       <r>   56.2485    0.0000 </r>
       <r>   56.9049    0.0000 </r>
       <r>   58.9663    0.0000 </r>
       <r>   60.7952    0.0000 </r>
       <r>   62.5109    0.0000 </r>
       <r>   65.4590    0.0000 </r>
       <r>   66.1811    0.0000 </r>
       <r>   68.3782    0.0000 </r>
       <r>   69.6854    0.0000 </r>
       <r>   72.8716    0.0000 </r>
       <r>   74.9234    0.0000 </r>
       <r>   75.4949    0.0000 </r>
       <r>   77.6878    0.0000 </r>
       <r>   78.3224    0.0000 </r>
       <r>   81.1706    0.0000 </r>
       <r>   81.4651    0.0000 </r>
       <r>   83.3449    0.0000 </r>
       <r>   87.2470    0.0000 </r>
       <r>   87.6465    0.0000 </r>
       <r>   90.2829    0.0000 </r>
       <r>   91.8905    0.0000 </r>
       <r>   93.0677    0.0000 </r>
       <r>   93.3301    0.0000 </r>
       <r>   94.6686    0.0000 </r>
       <r>   97.4502    0.0000 </r>
       <r>   98.2582    0.0000 </r>
       <r>   99.6393    0.0000 </r>
       <r>  101.7044    0.0000 </r>
      </set>
      <set comment="kpoint 20">
       <r>    1.7643    1.0000 </r>
       <r>    7.2257    0.8247 </r>
       <r>   14.2165    0.0000 </r>
       <r>   15.6926    0.0000 </r>
       <r>   17.4278    0.0000 </r>
       <r>   24.8537    0.0000 </r>
       <r>   25.1539    0.0000 </r>
       <r>   28.0071    0.0000 </r>
       <r>   29.1360    0.0000 </r>
       <r>   33.3388    0.0000 </r>
       <r>   39.6325    0.0000 </r>
       <r>   39.8724    0.0000 </r>
       <r>   41.4557    0.0000 </r>
       <r>   44.8117    0.0000 </r>
       <r>   46.4875    0.0000 </r>
       <r>   48.0605    0.0000 </r>
       <r>   51.2731    0.0000 </r>
       <r>   53.3001    0.0000 </r>
       <r>   54.3778    0.0000 </r>
       <r>   54.7986    0.0000 </r>
       <r>   56.2851    0.0000 </r>
       <r>   56.9304    0.0000 </r>
       <r>   57.8642    0.0000 </r>
       <r>   60.3521    0.0000 </r>
       <r>   61.2078    0.0000 </r>
       <r>   63.4706    0.0000 </r>
       <r>   63.9262    0.0000 </r>
       <r>   65.5620    0.0000 </r>
       <r>   67.0051    0.0000 </r>
       <r>   69.7309    0.0000 </r>
       <r>   72.5683    0.0000 </r>
       <r>   74.7813    0.0000 </r>
       <r>   76.5315    0.0000 </r>
       <r>   76.9318    0.0000 </r>
       <r>   80.3047    0.0000 </r>
       <r>   81.6009    0.0000 </r>
       <r>   84.9613    0.0000 </r>
       <r>   87.5821    0.0000 </r>
       <r>   87.8105    0.0000 </r>
       <r>   90.4682    0.0000 </r>
       <r>   93.0043    0.0000 </r>
       <r>   93.5967    0.0000 </r>
       <r>   96.3996    0.0000 </r>
       <r>   96.8845    0.0000 </r>
       <r>   98.8019    0.0000 </r>
       <r>  100.3721    0.0000 </r>
       <r>  100.6513    0.0000 </r>
       <r>  102.6983    0.0000 </r>
      </set>
      <set comment="kpoint 21">
       <r>    3.8256    1.0000 </r>
       <r>    4.6454    1.0000 </r>
       <r>   13.2088    0.0000 </r>
       <r>   16.1450    0.0000 </r>
       <r>   17.9541    0.0000 </r>
       <r>   23.9315    0.0000 </r>
       <r>   26.4080    0.0000 </r>
       <r>   28.7898    0.0000 </r>
       <r>   29.3988    0.0000 </r>
       <r>   31.8346    0.0000 </r>
       <r>   37.9401    0.0000 </r>
       <r>   40.7291    0.0000 </r>
       <r>   42.5917    0.0000 </r>
       <r>   47.2092    0.0000 </r>
       <r>   49.1856    0.0000 </r>
       <r>   49.7590    0.0000 </r>
       <r>   50.1262    0.0000 </r>
       <r>   54.2587    0.0000 </r>
       <r>   54.6194    0.0000 </r>
       <r>   54.9050    0.0000 </r>
       <r>   55.5216    0.0000 </r>
       <r>   56.3707    0.0000 </r>
       <r>   57.5407    0.0000 </r>
       <r>   59.2427    0.0000 </r>
       <r>   61.4403    0.0000 </r>
       <r>   61.6506    0.0000 </r>
       <r>   62.9165    0.0000 </r>
       <r>   63.5314    0.0000 </r>
       <r>   65.4870    0.0000 </r>
       <r>   67.1280    0.0000 </r>
       <r>   72.5651    0.0000 </r>
       <r>   75.1093    0.0000 </r>
       <r>   76.4407    0.0000 </r>
       <r>   76.5756    0.0000 </r>
       <r>   79.6312    0.0000 </r>
       <r>   80.7401    0.0000 </r>
       <r>   85.1569    0.0000 </r>
       <r>   87.6232    0.0000 </r>
       <r>   88.3923    0.0000 </r>
       <r>   89.3338    0.0000 </r>
       <r>   93.1033    0.0000 </r>
       <r>   94.8319    0.0000 </r>
       <r>   97.7737    0.0000 </r>
       <r>   98.6984    0.0000 </r>
       <r>   99.6242    0.0000 </r>
       <r>  100.0407    0.0000 </r>
       <r>  102.8763    0.0000 </r>
       <r>  106.2030    0.0000 </r>
      </set>
      <set comment="kpoint 22">
       <r>    2.4129    1.0000 </r>
       <r>    6.3065    1.0782 </r>
       <r>   12.6161    0.0000 </r>
       <r>   16.9800    0.0000 </r>
       <r>   18.8751    0.0000 </r>
       <r>   23.3612    0.0000 </r>
       <r>   25.9759    0.0000 </r>
       <r>   28.9254    0.0000 </r>
       <r>   29.7999    0.0000 </r>
       <r>   30.6538    0.0000 </r>
       <r>   36.4162    0.0000 </r>
       <r>   41.2836    0.0000 </r>
       <r>   43.8096    0.0000 </r>
       <r>   44.9457    0.0000 </r>
       <r>   48.3979    0.0000 </r>
       <r>   49.8838    0.0000 </r>
       <r>   51.5196    0.0000 </r>
       <r>   54.2149    0.0000 </r>
       <r>   54.9512    0.0000 </r>
       <r>   55.0749    0.0000 </r>
       <r>   55.9426    0.0000 </r>
       <r>   55.9967    0.0000 </r>
       <r>   58.5754    0.0000 </r>
       <r>   59.2482    0.0000 </r>
       <r>   60.3891    0.0000 </r>
       <r>   60.5151    0.0000 </r>
       <r>   63.9038    0.0000 </r>
       <r>   64.0669    0.0000 </r>
       <r>   65.7340    0.0000 </r>
       <r>   70.0359    0.0000 </r>
       <r>   73.4778    0.0000 </r>
       <r>   74.4133    0.0000 </r>
       <r>   76.6358    0.0000 </r>
       <r>   77.2628    0.0000 </r>
       <r>   79.1232    0.0000 </r>
       <r>   80.9176    0.0000 </r>
       <r>   84.6222    0.0000 </r>
       <r>   87.1419    0.0000 </r>
       <r>   87.9043    0.0000 </r>
       <r>   89.7252    0.0000 </r>
       <r>   90.2612    0.0000 </r>
       <r>   95.3905    0.0000 </r>
[...]
       <set comment="band 2">
        <r>  0.0791  0.0240  0.0004  0.1388  0.0000  0.0000  0.0000  0.0000  0.0000 </r>
       </set>
       <set comment="band 3">
        <r>  0.0575  0.0774  0.0035  0.0633  0.0000  0.0000  0.0000  0.0000  0.0000 </r>
       </set>
       <set comment="band 4">
        <r>  0.2139  0.0064  0.1193  0.0134  0.0000  0.0000  0.0000  0.0000  0.0000 </r>
       </set>
       <set comment="band 5">
        <r>  0.0127  0.1192  0.0101  0.0650  0.0000  0.0000  0.0000  0.0000  0.0000 </r>
       </set>
       <set comment="band 6">
        <r>  0.0341  0.0896  0.0329  0.0044  0.0000  0.0000  0.0000  0.0000  0.0000 </r>
       </set>
       <set comment="band 7">
        <r>  0.0400  0.1195  0.0002  0.0387  0.0000  0.0000  0.0000  0.0000  0.0000 </r>
       </set>
       <set comment="band 8">
        <r>  0.0195  0.0409  0.0775  0.0080  0.0000  0.0000  0.0000  0.0000  0.0000 </r>
       </set>
       <set comment="band 9">
        <r>  0.0099  0.0004  0.0107  0.0551  0.0000  0.0000  0.0000  0.0000  0.0000 </r>
       </set>
       <set comment="band 10">
        <r>  0.0004  0.0032  0.0105  0.0086  0.0000  0.0000  0.0000  0.0000  0.0000 </r>
       </set>
       <set comment="band 11">
        <r>  0.0705  0.0048  0.0472  0.0000  0.0000  0.0000  0.0000  0.0000  0.0000 </r>
       </set>
       <set comment="band 12">
        <r>  0.0459  0.0029  0.0013  0.0121  0.0000  0.0000  0.0000  0.0000  0.0000 </r>
       </set>
       <set comment="band 13">
        <r>  0.0002  0.0014  0.0455  0.1084  0.0000  0.0000  0.0000  0.0000  0.0000 </r>
       </set>
       <set comment="band 14">
        <r>  0.0101  0.0102  0.0148  0.0296  0.0000  0.0000  0.0000  0.0000  0.0000 </r>
       </set>
       <set comment="band 15">
        <r>  0.0989  0.0000  0.0986  0.0414  0.0000  0.0000  0.0000  0.0000  0.0000 </r>
       </set>
       <set comment="band 16">
        <r>  0.0331  0.0646  0.1346  0.0673  0.0000  0.0000  0.0000  0.0000  0.0000 </r>
       </set>
       <set comment="band 17">
        <r>  0.2880  0.0465  0.2716  0.0338  0.0000  0.0000  0.0000  0.0000  0.0000 </r>
       </set>
       <set comment="band 18">
        <r>  0.3780  0.0007  0.0708  0.0810  0.0000  0.0000  0.0000  0.0000  0.0000 </r>
       </set>
       <set comment="band 19">
        <r>  0.1998  0.5253  0.0033  0.9036  0.0000  0.0000  0.0000  0.0000  0.0000 </r>
       </set>
       <set comment="band 20">
        <r>  5.9619  0.2593  0.3492  0.0014  0.0000  0.0000  0.0000  0.0000  0.0000 </r>
       </set>
       <set comment="band 21">
        <r>  0.6914  2.0996  0.0852  0.5235  0.0000  0.0000  0.0000  0.0000  0.0000 </r>
       </set>
       <set comment="band 22">
        <r>  1.9807  0.0033  0.0185  0.1870  0.0000  0.0000  0.0000  0.0000  0.0000 </r>
       </set>
       <set comment="band 23">
        <r>  0.0004  0.2352  1.9809  0.1843  0.0000  0.0000  0.0000  0.0000  0.0000 </r>
       </set>
       <set comment="band 24">
        <r>  0.4154  0.0052  1.1428  2.0077  0.0000  0.0000  0.0000  0.0000  0.0000 </r>
       </set>
       <set comment="band 25">
        <r>  0.0223  0.0935  0.5530  0.4595  0.0000  0.0000  0.0000  0.0000  0.0000 </r>
       </set>
       <set comment="band 26">
        <r>  0.0628  0.2765  0.1565  0.4247  0.0000  0.0000  0.0000  0.0000  0.0000 </r>
       </set>
       <set comment="band 27">
        <r>  0.0058  0.3949  0.0011  0.0530  0.0000  0.0000  0.0000  0.0000  0.0000 </r>
       </set>
       <set comment="band 28">
        <r>  0.0176  0.4656  0.0047  0.0057  0.0000  0.0000  0.0000  0.0000  0.0000 </r>
       </set>
       <set comment="band 29">
        <r>  0.2128  0.7684  0.0171  0.0502  0.0000  0.0000  0.0000  0.0000  0.0000 </r>
       </set>
       <set comment="band 30">
        <r>  0.0230  0.0029  0.0124  0.0701  0.0000  0.0000  0.0000  0.0000  0.0000 </r>
       </set>
       <set comment="band 31">
        <r>  0.0821  0.0717  0.0560  0.0774  0.0000  0.0000  0.0000  0.0000  0.0000 </r>
       </set>
       <set comment="band 32">
        <r>  0.0460  0.0088  0.4378  0.0066  0.0000  0.0000  0.0000  0.0000  0.0000 </r>
       </set>
       <set comment="band 33">
        <r>  0.0876  0.0149  0.0299  0.1500  0.0000  0.0000  0.0000  0.0000  0.0000 </r>
       </set>
       <set comment="band 34">
        <r>  0.6272  0.0075  0.1120  0.0048  0.0000  0.0000  0.0000  0.0000  0.0000 </r>
       </set>
       <set comment="band 35">
        <r>  0.0153  0.0707  0.0120  0.0042  0.0000  0.0000  0.0000  0.0000  0.0000 </r>
       </set>
       <set comment="band 36">
        <r>  0.0166  0.0283  0.0154  0.1038  0.0000  0.0000  0.0000  0.0000  0.0000 </r>
       </set>
       <set comment="band 37">
        <r>  0.0691  0.0285  0.0051  0.0400  0.0000  0.0000  0.0000  0.0000  0.0000 </r>
       </set>
       <set comment="band 38">
        <r>  0.0397  0.0674  0.0666  0.0450  0.0000  0.0000  0.0000  0.0000  0.0000 </r>
       </set>
       <set comment="band 39">
        <r>  0.0289  0.0152  0.0140  0.0000  0.0000  0.0000  0.0000  0.0000  0.0000 </r>
       </set>
       <set comment="band 40">
        <r>  0.0012  0.0042  0.0274  0.0095  0.0000  0.0000  0.0000  0.0000  0.0000 </r>
       </set>
       <set comment="band 41">
        <r>  0.0378  0.0029  0.0047  0.0291  0.0000  0.0000  0.0000  0.0000  0.0000 </r>
       </set>
       <set comment="band 42">
        <r>  0.0069  0.0022  0.0312  0.0252  0.0000  0.0000  0.0000  0.0000  0.0000 </r>
       </set>
       <set comment="band 43">
        <r>  0.0181  0.0015  0.0048  0.0920  0.0000  0.0000  0.0000  0.0000  0.0000 </r>
       </set>
       <set comment="band 44">
        <r>  0.0163  0.1508  0.0001  0.0022  0.0000  0.0000  0.0000  0.0000  0.0000 </r>
       </set>
       <set comment="band 45">
        <r>  0.0312  0.0077  0.0008  0.0696  0.0000  0.0000  0.0000  0.0000  0.0000 </r>
       </set>
       <set comment="band 46">
        <r>  0.0001  0.0475  0.0462  0.0026  0.0000  0.0000  0.0000  0.0000  0.0000 </r>
       </set>
       <set comment="band 47">
        <r>  0.0178  0.0002  0.0704  0.0071  0.0000  0.0000  0.0000  0.0000  0.0000 </r>
       </set>
       <set comment="band 48">
        <r>  0.0000  0.0287  0.0118  0.0001  0.0000  0.0000  0.0000  0.0000  0.0000 </r>
       </set>
      </set>
      <set comment="kpoint 55">
       <set comment="band 1">
        <r>  0.0824  0.0144  0.1489  0.0000  0.0000  0.0000  0.0000  0.0000  0.0000 </r>
       </set>
       <set comment="band 2">
        <r>  0.0000  0.0000  0.0000  0.2075  0.0000  0.0000  0.0000  0.0000  0.0000 </r>
       </set>
       <set comment="band 3">
        <r>  0.0780  0.0530  0.0743  0.0000  0.0000  0.0000  0.0000  0.0000  0.0000 </r>
       </set>
       <set comment="band 4">
        <r>  0.2987  0.0807  0.0097  0.0000  0.0000  0.0000  0.0000  0.0000  0.0000 </r>
       </set>
       <set comment="band 5">
        <r>  0.0000  0.0000  0.0000  0.1256  0.0000  0.0000  0.0000  0.0000  0.0000 </r>
       </set>
       <set comment="band 6">
        <r>  0.0841  0.2422  0.0040  0.0000  0.0000  0.0000  0.0000  0.0000  0.0000 </r>
       </set>
       <set comment="band 7">
        <r>  0.0246  0.0391  0.0460  0.0000  0.0000  0.0000  0.0000  0.0000  0.0000 </r>
       </set>
       <set comment="band 8">
        <r>  0.0222  0.0709  0.0380  0.0000  0.0000  0.0000  0.0000  0.0000  0.0000 </r>
       </set>
       <set comment="band 9">
        <r>  0.0000  0.0000  0.0000  0.0230  0.0000  0.0000  0.0000  0.0000  0.0000 </r>
       </set>
       <set comment="band 10">
        <r>  0.0033  0.0000  0.0029  0.0000  0.0000  0.0000  0.0000  0.0000  0.0000 </r>
       </set>
       <set comment="band 11">
        <r>  0.0642  0.0197  0.0933  0.0000  0.0000  0.0000  0.0000  0.0000  0.0000 </r>
       </set>
       <set comment="band 12">
        <r>  0.0000  0.0000  0.0000  0.0735  0.0000  0.0000  0.0000  0.0000  0.0000 </r>
       </set>
       <set comment="band 13">
        <r>  0.0000  0.0000  0.0000  0.1779  0.0000  0.0000  0.0000  0.0000  0.0000 </r>
       </set>
       <set comment="band 14">
        <r>  0.0185  0.0101  0.0499  0.0000  0.0000  0.0000  0.0000  0.0000  0.0000 </r>
       </set>
       <set comment="band 15">
        <r>  0.1197  0.0121  0.0222  0.0000  0.0000  0.0000  0.0000  0.0000  0.0000 </r>
       </set>
       <set comment="band 16">
        <r>  0.0000  0.0000  0.0000  0.0213  0.0000  0.0000  0.0000  0.0000  0.0000 </r>
       </set>
       <set comment="band 17">
        <r>  0.1208  0.0294  0.5923  0.0000  0.0000  0.0000  0.0000  0.0000  0.0000 </r>
       </set>
       <set comment="band 18">
        <r>  0.0000  0.0000  0.0000  0.0320  0.0000  0.0000  0.0000  0.0000  0.0000 </r>
       </set>
       <set comment="band 19">
        <r>  2.6085  0.1887  0.1342  0.0000  0.0000  0.0000  0.0000  0.0000  0.0000 </r>
       </set>
       <set comment="band 20">
        <r>  1.1221  1.3784  0.0165  0.0000  0.0000  0.0000  0.0000  0.0000  0.0000 </r>
       </set>
       <set comment="band 21">
        <r>  0.0000  0.0000  0.0000  2.4483  0.0000  0.0000  0.0000  0.0000  0.0000 </r>
       </set>
       <set comment="band 22">
        <r>  5.6475  1.3511  0.0218  0.0000  0.0000  0.0000  0.0000  0.0000  0.0000 </r>
       </set>
       <set comment="band 23">
        <r>  0.0008  0.0770  3.1727  0.0000  0.0000  0.0000  0.0000  0.0000  0.0000 </r>
       </set>
       <set comment="band 24">
        <r>  0.0000  0.0000  0.0000  1.3935  0.0000  0.0000  0.0000  0.0000  0.0000 </r>
       </set>
       <set comment="band 25">
        <r>  0.1776  0.0573  0.7901  0.0000  0.0000  0.0000  0.0000  0.0000  0.0000 </r>
       </set>
       <set comment="band 26">
        <r>  0.3371  1.4475  0.1475  0.0000  0.0000  0.0000  0.0000  0.0000  0.0000 </r>
       </set>
       <set comment="band 27">
        <r>  0.0000  0.0000  0.0000  1.0526  0.0000  0.0000  0.0000  0.0000  0.0000 </r>
       </set>
       <set comment="band 28">
        <r>  0.0000  0.0000  0.0000  0.1630  0.0000  0.0000  0.0000  0.0000  0.0000 </r>
       </set>
       <set comment="band 29">
        <r>  0.3210  0.3077  0.2488  0.0000  0.0000  0.0000  0.0000  0.0000  0.0000 </r>
       </set>
       <set comment="band 30">
        <r>  0.0006  0.3565  0.0505  0.0000  0.0000  0.0000  0.0000  0.0000  0.0000 </r>
       </set>
       <set comment="band 31">
        <r>  0.0000  0.0000  0.0000  0.0431  0.0000  0.0000  0.0000  0.0000  0.0000 </r>
       </set>
       <set comment="band 32">
        <r>  0.1603  0.0009  0.3332  0.0000  0.0000  0.0000  0.0000  0.0000  0.0000 </r>
       </set>
       <set comment="band 33">
        <r>  0.3860  0.1476  0.0000  0.0000  0.0000  0.0000  0.0000  0.0000  0.0000 </r>
       </set>
       <set comment="band 34">
        <r>  0.0000  0.0000  0.0000  0.0027  0.0000  0.0000  0.0000  0.0000  0.0000 </r>
       </set>
       <set comment="band 35">
        <r>  0.2568  0.0100  0.0294  0.0000  0.0000  0.0000  0.0000  0.0000  0.0000 </r>
       </set>
       <set comment="band 36">
        <r>  0.0947  0.1080  0.1020  0.0000  0.0000  0.0000  0.0000  0.0000  0.0000 </r>
       </set>
       <set comment="band 37">
        <r>  0.0000  0.0000  0.0000  0.4437  0.0000  0.0000  0.0000  0.0000  0.0000 </r>
       </set>
       <set comment="band 38">
        <r>  0.0010  0.0389  0.0150  0.0000  0.0000  0.0000  0.0000  0.0000  0.0000 </r>
       </set>
       <set comment="band 39">
        <r>  0.0000  0.0000  0.0000  0.0076  0.0000  0.0000  0.0000  0.0000  0.0000 </r>
       </set>
       <set comment="band 40">
        <r>  0.0020  0.0192  0.0112  0.0000  0.0000  0.0000  0.0000  0.0000  0.0000 </r>
       </set>
       <set comment="band 41">
        <r>  0.0000  0.0000  0.0000  0.0202  0.0000  0.0000  0.0000  0.0000  0.0000 </r>
       </set>
       <set comment="band 42">
        <r>  0.1130  0.0072  0.0665  0.0000  0.0000  0.0000  0.0000  0.0000  0.0000 </r>
       </set>
       <set comment="band 43">
        <r>  0.0101  0.1086  0.0454  0.0000  0.0000  0.0000  0.0000  0.0000  0.0000 </r>
       </set>
       <set comment="band 44">
        <r>  0.0471  0.0518  0.0006  0.0000  0.0000  0.0000  0.0000  0.0000  0.0000 </r>
       </set>
       <set comment="band 45">
        <r>  0.0000  0.0000  0.0000  0.0706  0.0000  0.0000  0.0000  0.0000  0.0000 </r>
       </set>
       <set comment="band 46">
        <r>  0.0000  0.0000  0.0000  0.0066  0.0000  0.0000  0.0000  0.0000  0.0000 </r>
       </set>
       <set comment="band 47">
        <r>  0.0776  0.0130  0.0540  0.0000  0.0000  0.0000  0.0000  0.0000  0.0000 </r>
       </set>
       <set comment="band 48">
        <r>  0.0405  0.0469  0.0172  0.0000  0.0000  0.0000  0.0000  0.0000  0.0000 </r>
       </set>
      </set>
      <set comment="kpoint 56">
       <set comment="band 1">
        <r>  0.0481  0.0362  0.0000  0.1403  0.0000  0.0000  0.0000  0.0000  0.0000 </r>
       </set>
       <set comment="band 2">
        <r>  0.0000  0.0000  0.2244  0.0000  0.0000  0.0000  0.0000  0.0000  0.0000 </r>
       </set>
       <set comment="band 3">
        <r>  0.1923  0.0653  0.0000  0.0036  0.0000  0.0000  0.0000  0.0000  0.0000 </r>
       </set>
       <set comment="band 4">
        <r>  0.2292  0.0358  0.0000  0.0757  0.0000  0.0000  0.0000  0.0000  0.0000 </r>
       </set>
       <set comment="band 5">
        <r>  0.0233  0.0848  0.0000  0.0715  0.0000  0.0000  0.0000  0.0000  0.0000 </r>
       </set>
       <set comment="band 6">
        <r>  0.0056  0.2583  0.0000  0.0286  0.0000  0.0000  0.0000  0.0000  0.0000 </r>
       </set>
       <set comment="band 7">
        <r>  0.0000  0.0000  0.0970  0.0000  0.0000  0.0000  0.0000  0.0000  0.0000 </r>
       </set>
       <set comment="band 8">
        <r>  0.0903  0.0357  0.0000  0.0175  0.0000  0.0000  0.0000  0.0000  0.0000 </r>
       </set>
       <set comment="band 9">
        <r>  0.0000  0.0000  0.0235  0.0000  0.0000  0.0000  0.0000  0.0000  0.0000 </r>
       </set>
       <set comment="band 10">
        <r>  0.0091  0.0004  0.0000  0.0312  0.0000  0.0000  0.0000  0.0000  0.0000 </r>
       </set>
       <set comment="band 11">
        <r>  0.0000  0.0000  0.0006  0.0000  0.0000  0.0000  0.0000  0.0000  0.0000 </r>
       </set>
       <set comment="band 12">
        <r>  0.0742  0.0003  0.0000  0.1169  0.0000  0.0000  0.0000  0.0000  0.0000 </r>
       </set>
       <set comment="band 13">
        <r>  0.0000  0.0000  0.1881  0.0000  0.0000  0.0000  0.0000  0.0000  0.0000 </r>
       </set>
       <set comment="band 14">
        <r>  0.0010  0.0009  0.0000  0.0061  0.0000  0.0000  0.0000  0.0000  0.0000 </r>
       </set>
       <set comment="band 15">
        <r>  0.1411  0.0052  0.0000  0.1054  0.0000  0.0000  0.0000  0.0000  0.0000 </r>
       </set>
       <set comment="band 16">
        <r>  0.0000  0.0000  0.0142  0.0000  0.0000  0.0000  0.0000  0.0000  0.0000 </r>
       </set>
       <set comment="band 17">
        <r>  0.0000  0.0000  0.7385  0.0000  0.0000  0.0000  0.0000  0.0000  0.0000 </r>
       </set>
       <set comment="band 18">
        <r>  0.0885  0.3364  0.0000  0.6093  0.0000  0.0000  0.0000  0.0000  0.0000 </r>
       </set>
       <set comment="band 19">
        <r>  3.5201  1.5677  0.0000  0.1031  0.0000  0.0000  0.0000  0.0000  0.0000 </r>
       </set>
       <set comment="band 20">
        <r>  5.8316  0.8925  0.0000  0.2904  0.0000  0.0000  0.0000  0.0000  0.0000 </r>
       </set>
       <set comment="band 21">
        <r>  0.1931  0.2053  0.0000  1.6590  0.0000  0.0000  0.0000  0.0000  0.0000 </r>
       </set>
       <set comment="band 22">
        <r>  0.0000  0.0000  2.3572  0.0000  0.0000  0.0000  0.0000  0.0000  0.0000 </r>
       </set>
       <set comment="band 23">
        <r>  0.0415  0.1061  0.0000  1.1546  0.0000  0.0000  0.0000  0.0000  0.0000 </r>
       </set>
       <set comment="band 24">
        <r>  0.0000  0.0000  0.0846  0.0000  0.0000  0.0000  0.0000  0.0000  0.0000 </r>
       </set>
       <set comment="band 25">
        <r>  0.2048  0.2936  0.0000  0.0452  0.0000  0.0000  0.0000  0.0000  0.0000 </r>
       </set>
       <set comment="band 26">
        <r>  0.0000  0.0000  1.2567  0.0000  0.0000  0.0000  0.0000  0.0000  0.0000 </r>
       </set>
       <set comment="band 27">
        <r>  0.0000  0.0000  0.4227  0.0000  0.0000  0.0000  0.0000  0.0000  0.0000 </r>
       </set>
       <set comment="band 28">
        <r>  0.1322  0.0216  0.0000  1.1413  0.0000  0.0000  0.0000  0.0000  0.0000 </r>
       </set>
       <set comment="band 29">
        <r>  0.0863  1.6545  0.0000  0.0022  0.0000  0.0000  0.0000  0.0000  0.0000 </r>
       </set>
       <set comment="band 30">
        <r>  0.0000  0.0000  0.4466  0.0000  0.0000  0.0000  0.0000  0.0000  0.0000 </r>
       </set>
       <set comment="band 31">
        <r>  0.0279  0.2742  0.0000  0.1029  0.0000  0.0000  0.0000  0.0000  0.0000 </r>
       </set>
       <set comment="band 32">
        <r>  0.3792  0.0093  0.0000  0.1738  0.0000  0.0000  0.0000  0.0000  0.0000 </r>
       </set>
       <set comment="band 33">
        <r>  0.2532  0.0205  0.0000  0.0105  0.0000  0.0000  0.0000  0.0000  0.0000 </r>
       </set>
       <set comment="band 34">
        <r>  0.3750  0.0722  0.0000  0.0012  0.0000  0.0000  0.0000  0.0000  0.0000 </r>
       </set>
       <set comment="band 35">
        <r>  0.0000  0.0000  0.1628  0.0000  0.0000  0.0000  0.0000  0.0000  0.0000 </r>
       </set>
       <set comment="band 36">
        <r>  0.1176  0.0020  0.0000  0.0202  0.0000  0.0000  0.0000  0.0000  0.0000 </r>
       </set>
       <set comment="band 37">
        <r>  0.0000  0.0000  0.0888  0.0000  0.0000  0.0000  0.0000  0.0000  0.0000 </r>
       </set>
       <set comment="band 38">
        <r>  0.0405  0.0181  0.0000  0.3150  0.0000  0.0000  0.0000  0.0000  0.0000 </r>
       </set>
       <set comment="band 39">
        <r>  0.0017  0.0223  0.0000  0.0086  0.0000  0.0000  0.0000  0.0000  0.0000 </r>
       </set>
       <set comment="band 40">
        <r>  0.0000  0.0000  0.1397  0.0000  0.0000  0.0000  0.0000  0.0000  0.0000 </r>
       </set>
       <set comment="band 41">
        <r>  0.0094  0.1115  0.0000  0.0009  0.0000  0.0000  0.0000  0.0000  0.0000 </r>
       </set>
       <set comment="band 42">
        <r>  0.0000  0.0000  0.0052  0.0000  0.0000  0.0000  0.0000  0.0000  0.0000 </r>
       </set>
       <set comment="band 43">
        <r>  0.0000  0.0000  0.0077  0.0000  0.0000  0.0000  0.0000  0.0000  0.0000 </r>
       </set>
       <set comment="band 44">
        <r>  0.0291  0.0636  0.0000  0.0025  0.0000  0.0000  0.0000  0.0000  0.0000 </r>
       </set>
       <set comment="band 45">
        <r>  0.0064  0.0005  0.0000  0.0166  0.0000  0.0000  0.0000  0.0000  0.0000 </r>
       </set>
       <set comment="band 46">
        <r>  0.0000  0.0000  0.0137  0.0000  0.0000  0.0000  0.0000  0.0000  0.0000 </r>
       </set>
       <set comment="band 47">
        <r>  0.0759  0.1183  0.0000  0.0109  0.0000  0.0000  0.0000  0.0000  0.0000 </r>
       </set>
       <set comment="band 48">
        <r>  0.0000  0.0000  0.0643  0.0000  0.0000  0.0000  0.0000  0.0000  0.0000 </r>
       </set>
      </set>
     </set>
    </set>
   </array>
  </projected>
 </calculation>
 <structure name="finalpos" >
  <crystal>
   <varray name="basis" >
    <v>       0.00000000       2.02400000       2.02400000 </v>
    <v>       2.02400000       0.00000000       2.02400000 </v>
    <v>       2.02400000       2.02400000       0.00000000 </v>
   </varray>
   <i name="volume">     16.58293965 </i>
   <varray name="rec_basis" >
    <v>      -0.24703557       0.24703557       0.24703557 </v>
    <v>       0.24703557      -0.24703557       0.24703557 </v>
    <v>       0.24703557       0.24703557      -0.24703557 </v>
   </varray>
  </crystal>
  <varray name="positions" >
   <v>       0.00000000       0.00000000       0.00000000 </v>
  </varray>
 </structure>
</modeling>
