       N       E                     dE             d eps       ncg     rms          rms(c)
DAV:   1    -0.351733932146E+01   -0.35173E+01   -0.84679E+02 12880   0.306E+01
DAV:   2    -0.352531577047E+01   -0.79764E-02   -0.81069E-02  9520   0.510E-01
DAV:   3    -0.352531589061E+01   -0.12013E-06   -0.12431E-06 15680   0.172E-03
DAV:   4    -0.352531589103E+01   -0.42687E-09    0.52969E-14  9680   0.246E-07
DAV:   5    -0.352531588970E+01    0.13340E-08    0.31843E-13 14000   0.229E-10    0.235E+00
DAV:   6    -0.374958277463E+01   -0.22427E+00   -0.13641E-02 10840   0.143E-01    0.938E-01
DAV:   7    -0.374376046778E+01    0.58223E-02   -0.10155E-02 13000   0.101E-01    0.672E-01
DAV:   8    -0.374221927802E+01    0.15412E-02   -0.16691E-03 11360   0.404E-02    0.280E-01
DAV:   9    -0.374204317265E+01    0.17611E-03   -0.28437E-04 13520   0.168E-02    0.818E-02
DAV:  10    -0.374205021416E+01   -0.70415E-05   -0.53636E-05 12800   0.803E-03
   1 F= -.37420502E+01 E0= -.37420502E+01  d E =0.000000E+00  mag=     0.0005
