 vasp.6.2.1 16May21 (build Aug 15 2022 14:47:30) complex                         
 executed on             LinuxGNU date 2025.12.11  14:03:20
 running on   40 total cores
 distrk:  each k-point on   40 cores,    1 groups
 distr:  one band on NCORE=   1 cores,   40 groups


--------------------------------------------------------------------------------------------------------


 INCAR:
   ALGO = N
   EDIFF = 5e-05
   ENCUT = 300.0
   ISMEAR = -5
   ISPIN = 2
   LASPH = True
   LCHARG = True
   LORBIT = 11
   LREAL = False
   LWAVE = False
   NELM = 100
   NSW = 0
   PREC = Accurate

 POTCAR:    PAW_PBE Al 04Jan2001                  
 -----------------------------------------------------------------------------
|                                                                             |
|           W    W    AA    RRRRR   N    N  II  N    N   GGGG   !!!           |
|           W    W   A  A   R    R  NN   N  II  NN   N  G    G  !!!           |
|           W    W  A    A  R    R  N N  N  II  N N  N  G       !!!           |
|           W WW W  AAAAAA  RRRRR   N  N N  II  N  N N  G  GGG   !            |
|           WW  WW  A    A  R   R   N   NN  II  N   NN  G    G                |
|           W    W  A    A  R    R  N    N  II  N    N   GGGG   !!!           |
|                                                                             |
|     You use a magnetic or noncollinear calculation, but did not specify     |
|     the initial magnetic moment with the MAGMOM tag. Note that a            |
|     default of 1 will be used for all atoms. This ferromagnetic setup       |
|     may break the symmetry of the crystal, in particular it may rule        |
|     out finding an antiferromagnetic solution. Thence, we recommend         |
|     setting the initial magnetic moment manually or verifying carefully     |
|     that this magnetic setup is desired.                                    |
|                                                                             |
 -----------------------------------------------------------------------------

 -----------------------------------------------------------------------------
|                                                                             |
|           W    W    AA    RRRRR   N    N  II  N    N   GGGG   !!!           |
|           W    W   A  A   R    R  NN   N  II  NN   N  G    G  !!!           |
|           W    W  A    A  R    R  N N  N  II  N N  N  G       !!!           |
|           W WW W  AAAAAA  RRRRR   N  N N  II  N  N N  G  GGG   !            |
|           WW  WW  A    A  R   R   N   NN  II  N   NN  G    G                |
|           W    W  A    A  R    R  N    N  II  N    N   GGGG   !!!           |
|                                                                             |
|     For optimal performance we recommend to set                             |
|       NCORE = 2 up to number-of-cores-per-socket                            |
|     NCORE specifies how many cores store one orbital (NPAR=cpu/NCORE).      |
|     This setting can greatly improve the performance of VASP for DFT.       |
|     The default, NCORE=1 might be grossly inefficient on modern             |
|     multi-core architectures or massively parallel machines. Do your        |
|     own testing! More info at https://www.vasp.at/wiki/index.php/NCORE      |
|     Unfortunately you need to use the default for GW and RPA                |
|     calculations (for HF NCORE is supported but not extensively tested      |
|     yet).                                                                   |
|                                                                             |
 -----------------------------------------------------------------------------

 POTCAR:    PAW_PBE Al 04Jan2001                  
   VRHFIN =Al: s2p1                                                                                 
   LEXCH  = PE                                                                                      
   EATOM  =    53.5387 eV,    3.9350 Ry                                                             
                                                                                                    
   TITEL  = PAW_PBE Al 04Jan2001                                                                    
   LULTRA =        F    use ultrasoft PP ?                                                          
   IUNSCR =        1    unscreen: 0-lin 1-nonlin 2-no                                               
   RPACOR =    1.500    partial core radius                                                         
   POMASS =   26.981; ZVAL   =    3.000    mass and valenz                                          
   RCORE  =    1.900    outmost cutoff radius                                                       
   RWIGS  =    2.650; RWIGS  =    1.402    wigner-seitz radius (au A)                               
   ENMAX  =  240.300; ENMIN  =  180.225 eV                                                          
   ICORE  =        2    local potential                                                             
   LCOR   =        T    correct aug charges                                                         
   LPAW   =        T    paw PP                                                                      
   EAUG   =  291.052                                                                                
   DEXC   =    0.000                                                                                
   RMAX   =    1.939    core radius for proj-oper                                                   
   RAUG   =    1.300    factor for augmentation sphere                                              
   RDEP   =    1.966    radius for radial grids                                                     
   RDEPT  =    1.856    core radius for aug-charge                                                  
                                                                                                    
   Atomic configuration                                                                             
    6 entries                                                                                       
     n  l   j            E        occ.                                                              
     1  0  0.50     -1511.1048   2.0000                                                             
     2  0  0.50      -108.1629   2.0000                                                             
     2  1  1.50       -69.6402   6.0000                                                             
     3  0  0.50        -7.7528   2.0000                                                             
     3  1  1.50        -2.7121   1.0000                                                             
     3  2  2.50        -2.7212   0.0000                                                             
   Description                                                                                      
     l       E           TYP  RCUT    TYP  RCUT                                                     
     0     -7.7528455     23  1.900                                                                 
     0     -3.3096929     23  1.900                                                                 
     1     -2.7120682     23  1.900                                                                 
     1     13.6058260     23  1.900                                                                 
     2     -2.7211652      7  1.900                                                                 
  local pseudopotential read in
  partial core-charges read in
  partial kinetic energy density read in
  atomic valenz-charges read in
  non local Contribution for L=           0  read in
    real space projection operators read in
  non local Contribution for L=           0  read in
    real space projection operators read in
  non local Contribution for L=           1  read in
    real space projection operators read in
  non local Contribution for L=           1  read in
    real space projection operators read in
    PAW grid and wavefunctions read in

   number of l-projection  operators is LMAX  =           4
   number of lm-projection operators is LMMAX =           8

  PAW_PBE Al 04Jan2001                  :
 energy of atom  1       EATOM=  -53.5387
 kinetic energy error for atom=    0.0011 (will be added to EATOM!!)


 POSCAR: # Generated by Masgent for energy cutoff
  positions in direct lattice
  No initial velocities read in
 exchange correlation table for  LEXCH =        8
   RHO(1)=    0.500       N(1)  =     2000
   RHO(2)=  100.500       N(2)  =     4000

 VTST: version 4.2, (08/11/21)

 CHAIN: initializing optimizer
 
 OPT: Using VASP Dynamics algorithm
 CHAIN: Read ICHAIN            0

 POSCAR: # Generated by Masgent for energy cutoff
  positions in direct lattice
  No initial velocities read in



--------------------------------------------------------------------------------------------------------


 ion  position               nearest neighbor table
   1  0.000  0.000  0.000-

  LATTYP: Found a face centered cubic cell.
 ALAT       =     4.0480000000
  
  Lattice vectors:
  
 A1 = (   0.0000000000,   2.0240000000,   2.0240000000)
 A2 = (   2.0240000000,   0.0000000000,   2.0240000000)
 A3 = (   2.0240000000,   2.0240000000,   0.0000000000)


Analysis of symmetry for initial positions (statically):
=====================================================================
 Subroutine PRICEL returns:
 Original cell was already a primitive cell.
 

 Routine SETGRP: Setting up the symmetry group for a 
 face centered cubic supercell.


 Subroutine GETGRP returns: Found 48 space group operations
 (whereof 48 operations were pure point group operations)
 out of a pool of 48 trial point group operations.


The static configuration has the point symmetry O_h .


Analysis of symmetry for dynamics (positions and initial velocities):
=====================================================================
 Subroutine PRICEL returns:
 Original cell was already a primitive cell.
 

 Routine SETGRP: Setting up the symmetry group for a 
 face centered cubic supercell.


 Subroutine GETGRP returns: Found 48 space group operations
 (whereof 48 operations were pure point group operations)
 out of a pool of 48 trial point group operations.


The dynamic configuration has the point symmetry O_h .


Analysis of structural, dynamic, and magnetic symmetry:
=====================================================================
 Subroutine PRICEL returns:
 Original cell was already a primitive cell.
 

 Routine SETGRP: Setting up the symmetry group for a 
 face centered cubic supercell.


 Subroutine GETGRP returns: Found 48 space group operations
 (whereof 48 operations were pure point group operations)
 out of a pool of 48 trial point group operations.


The overall configuration has the point symmetry O_h .


 Subroutine INISYM returns: Found 48 space group operations
 (whereof 48 operations are pure point group operations),
 and found     1 'primitive' translations


----------------------------------------------------------------------------------------

                                     Primitive cell                                     

  volume of cell :      16.5829

  direct lattice vectors                    reciprocal lattice vectors
     0.000000000  2.024000000  2.024000000    -0.247035573  0.247035573  0.247035573
     2.024000000  0.000000000  2.024000000     0.247035573 -0.247035573  0.247035573
     2.024000000  2.024000000  0.000000000     0.247035573  0.247035573 -0.247035573

  length of vectors
     2.862368250  2.862368250  2.862368250     0.427878164  0.427878164  0.427878164

  position of ions in fractional coordinates (direct lattice)
     0.000000000  0.000000000  0.000000000

  ion indices of the primitive-cell ions
   primitive index   ion index
                 1           1

----------------------------------------------------------------------------------------



 KPOINTS: # Generated by Masgent for energy cutoff

Automatic generation of k-mesh.
 Grid dimensions read from file:
 generate k-points for:   11   11   11

 Generating k-lattice:

  Cartesian coordinates                     Fractional coordinates (reciprocal lattice)
    -0.022457779  0.022457779  0.022457779     0.090909091  0.000000000  0.000000000
     0.022457779 -0.022457779  0.022457779     0.000000000  0.090909091  0.000000000
     0.022457779  0.022457779 -0.022457779     0.000000000  0.000000000  0.090909091

  Length of vectors
     0.038898015  0.038898015  0.038898015

  Shift w.r.t. Gamma in fractional coordinates (k-lattice)
     0.000000000  0.000000000  0.000000000

 TETIRR: Found    201 inequivalent tetrahedra from     7986
 
 Subroutine IBZKPT returns following result:
 ===========================================
 
 Found     56 irreducible k-points:
 
 Following reciprocal coordinates:
            Coordinates               Weight
  0.000000  0.000000  0.000000      1.000000
  0.090909  0.000000  0.000000      8.000000
  0.181818  0.000000  0.000000      8.000000
  0.272727  0.000000  0.000000      8.000000
  0.363636  0.000000  0.000000      8.000000
  0.454545  0.000000  0.000000      8.000000
  0.090909  0.090909  0.000000      6.000000
  0.181818  0.090909  0.000000     24.000000
  0.272727  0.090909  0.000000     24.000000
  0.363636  0.090909  0.000000     24.000000
  0.454545  0.090909  0.000000     24.000000
 -0.454545  0.090909  0.000000     24.000000
 -0.363636  0.090909  0.000000     24.000000
 -0.272727  0.090909  0.000000     24.000000
 -0.181818  0.090909  0.000000     24.000000
 -0.090909  0.090909  0.000000     12.000000
  0.181818  0.181818  0.000000      6.000000
  0.272727  0.181818  0.000000     24.000000
  0.363636  0.181818  0.000000     24.000000
  0.454545  0.181818  0.000000     24.000000
 -0.454545  0.181818  0.000000     24.000000
 -0.363636  0.181818  0.000000     24.000000
 -0.272727  0.181818  0.000000     24.000000
 -0.181818  0.181818  0.000000     12.000000
  0.272727  0.272727  0.000000      6.000000
  0.363636  0.272727  0.000000     24.000000
  0.454545  0.272727  0.000000     24.000000
 -0.454545  0.272727  0.000000     24.000000
 -0.363636  0.272727  0.000000     24.000000
 -0.272727  0.272727  0.000000     12.000000
  0.363636  0.363636  0.000000      6.000000
  0.454545  0.363636  0.000000     24.000000
 -0.454545  0.363636  0.000000     24.000000
 -0.363636  0.363636  0.000000     12.000000
  0.454545  0.454545  0.000000      6.000000
 -0.454545  0.454545  0.000000     12.000000
  0.272727  0.181818  0.090909     24.000000
  0.363636  0.181818  0.090909     48.000000
  0.454545  0.181818  0.090909     48.000000
 -0.454545  0.181818  0.090909     48.000000
  0.363636  0.272727  0.090909     24.000000
  0.454545  0.272727  0.090909     48.000000
 -0.454545  0.272727  0.090909     48.000000
 -0.363636  0.272727  0.090909     48.000000
 -0.272727  0.272727  0.090909     48.000000
 -0.181818  0.272727  0.090909     24.000000
  0.454545  0.363636  0.090909     24.000000
 -0.454545  0.363636  0.090909     48.000000
 -0.363636  0.363636  0.090909     48.000000
 -0.272727  0.363636  0.090909     24.000000
 -0.454545  0.454545  0.090909     24.000000
 -0.363636  0.454545  0.090909     24.000000
 -0.454545  0.363636  0.181818     24.000000
 -0.363636  0.363636  0.181818     48.000000
 -0.363636  0.454545  0.181818     24.000000
 -0.272727  0.454545  0.181818     24.000000
 
 Following cartesian coordinates:
            Coordinates               Weight
  0.000000  0.000000  0.000000      1.000000
 -0.022458  0.022458  0.022458      8.000000
 -0.044916  0.044916  0.044916      8.000000
 -0.067373  0.067373  0.067373      8.000000
 -0.089831  0.089831  0.089831      8.000000
 -0.112289  0.112289  0.112289      8.000000
  0.000000  0.000000  0.044916      6.000000
 -0.022458  0.022458  0.067373     24.000000
 -0.044916  0.044916  0.089831     24.000000
 -0.067373  0.067373  0.112289     24.000000
 -0.089831  0.089831  0.134747     24.000000
  0.134747 -0.134747 -0.089831     24.000000
  0.112289 -0.112289 -0.067373     24.000000
  0.089831 -0.089831 -0.044916     24.000000
  0.067373 -0.067373 -0.022458     24.000000
  0.044916 -0.044916  0.000000     12.000000
  0.000000  0.000000  0.089831      6.000000
 -0.022458  0.022458  0.112289     24.000000
 -0.044916  0.044916  0.134747     24.000000
 -0.067373  0.067373  0.157204     24.000000
  0.157204 -0.157204 -0.067373     24.000000
  0.134747 -0.134747 -0.044916     24.000000
  0.112289 -0.112289 -0.022458     24.000000
  0.089831 -0.089831  0.000000     12.000000
  0.000000  0.000000  0.134747      6.000000
 -0.022458  0.022458  0.157204     24.000000
 -0.044916  0.044916  0.179662     24.000000
  0.179662 -0.179662 -0.044916     24.000000
  0.157204 -0.157204 -0.022458     24.000000
  0.134747 -0.134747  0.000000     12.000000
  0.000000  0.000000  0.179662      6.000000
 -0.022458  0.022458  0.202120     24.000000
  0.202120 -0.202120 -0.022458     24.000000
  0.179662 -0.179662  0.000000     12.000000
  0.000000  0.000000  0.224578      6.000000
  0.224578 -0.224578  0.000000     12.000000
  0.000000  0.044916  0.089831     24.000000
 -0.022458  0.067373  0.112289     48.000000
 -0.044916  0.089831  0.134747     48.000000
  0.179662 -0.134747 -0.089831     48.000000
  0.000000  0.044916  0.134747     24.000000
 -0.022458  0.067373  0.157204     48.000000
  0.202120 -0.157204 -0.067373     48.000000
  0.179662 -0.134747 -0.044916     48.000000
  0.157204 -0.112289 -0.022458     48.000000
  0.134747 -0.089831  0.000000     24.000000
  0.000000  0.044916  0.179662     24.000000
  0.224578 -0.179662 -0.044916     48.000000
  0.202120 -0.157204 -0.022458     48.000000
  0.179662 -0.134747  0.000000     24.000000
  0.247036 -0.202120 -0.022458     24.000000
  0.224578 -0.179662 -0.000000     24.000000
  0.247036 -0.157204 -0.067373     24.000000
  0.224578 -0.134747 -0.044916     48.000000
  0.247036 -0.157204 -0.022458     24.000000
  0.224578 -0.134747  0.000000     24.000000
 


--------------------------------------------------------------------------------------------------------




 Dimension of arrays:
   k-points           NKPTS =     56   k-points in BZ     NKDIM =     56   number of bands    NBANDS=     40
   number of dos      NEDOS =    301   number of ions     NIONS =      1
   non local maximal  LDIM  =      4   non local SUM 2l+1 LMDIM =      8
   total plane-waves  NPLWV =   4096
   max r-space proj   IRMAX =      1   max aug-charges    IRDMAX=   9812
   dimension x,y,z NGX =    16 NGY =   16 NGZ =   16
   dimension x,y,z NGXF=    32 NGYF=   32 NGZF=   32
   support grid    NGXF=    32 NGYF=   32 NGZF=   32
   ions per type =               1
   NGX,Y,Z   is equivalent  to a cutoff of   9.29,  9.29,  9.29 a.u.
   NGXF,Y,Z  is equivalent  to a cutoff of  18.59, 18.59, 18.59 a.u.

 SYSTEM =  unknown system                          
 POSCAR =  # Generated by Masgent for energy cutoff

 Startparameter for this run:
   NWRITE =      2    write-flag & timer
   PREC   = accura    normal or accurate (medium, high low for compatibility)
   ISTART =      0    job   : 0-new  1-cont  2-samecut
   ICHARG =      2    charge: 1-file 2-atom 10-const
   ISPIN  =      2    spin polarized calculation?
   LNONCOLLINEAR =      F non collinear calculations
   LSORBIT =      F    spin-orbit coupling
   INIWAV =      1    electr: 0-lowe 1-rand  2-diag
   LASPH  =      T    aspherical Exc in radial PAW
 Electronic Relaxation 1
   ENCUT  =  300.0 eV  22.05 Ry    4.70 a.u.   4.04  4.04  4.04*2*pi/ulx,y,z
   ENINI  =  300.0     initial cutoff
   ENAUG  =  291.1 eV  augmentation charge cutoff
   NELM   =    100;   NELMIN=  2; NELMDL=  0     # of ELM steps 
   EDIFF  = 0.5E-04   stopping-criterion for ELM
   LREAL  =      F    real-space projection
   NLSPLINE    = F    spline interpolate recip. space projectors
   LCOMPAT=      F    compatible to vasp.4.4
   GGA_COMPAT  = T    GGA compatible to vasp.4.4-vasp.4.6
   LMAXPAW     = -100 max onsite density
   LMAXMIX     =    2 max onsite mixed and CHGCAR
   VOSKOWN=      0    Vosko Wilk Nusair interpolation
   ROPT   =    0.00000
 Ionic relaxation
   EDIFFG = 0.5E-03   stopping-criterion for IOM
   NSW    =      0    number of steps for IOM
   NBLOCK =      1;   KBLOCK =      1    inner block; outer block 
   IBRION =     -1    ionic relax: 0-MD 1-quasi-New 2-CG
   NFREE  =      0    steps in history (QN), initial steepest desc. (CG)
   ISIF   =      2    stress and relaxation
   IWAVPR =     10    prediction:  0-non 1-charg 2-wave 3-comb
   ISYM   =      2    0-nonsym 1-usesym 2-fastsym
   LCORR  =      T    Harris-Foulkes like correction to forces

   POTIM  = 0.5000    time-step for ionic-motion
   TEIN   =    0.0    initial temperature
   TEBEG  =    0.0;   TEEND  =   0.0 temperature during run
   SMASS  =  -3.00    Nose mass-parameter (am)
   estimated Nose-frequenzy (Omega)   =  0.10E-29 period in steps = 0.13E+47 mass=  -0.187E-27a.u.
   SCALEE = 1.0000    scale energy and forces
   NPACO  =    256;   APACO  = 16.0  distance and # of slots for P.C.
   PSTRESS=    0.0 pullay stress

  Mass of Ions in am
   POMASS =  26.98
  Ionic Valenz
   ZVAL   =   3.00
  Atomic Wigner-Seitz radii
   RWIGS  =  -1.00
  virtual crystal weights 
   VCA    =   1.00
   NELECT =       3.0000    total number of electrons
   NUPDOWN=      -1.0000    fix difference up-down

 DOS related values:
   EMIN   =  10.00;   EMAX   =-10.00  energy-range for DOS
   EFERMI =   0.00
   ISMEAR =    -5;   SIGMA  =   0.20  broadening in eV -4-tet -1-fermi 0-gaus

 Electronic relaxation 2 (details)
   IALGO  =     38    algorithm
   LDIAG  =      T    sub-space diagonalisation (order eigenvalues)
   LSUBROT=      F    optimize rotation matrix (better conditioning)
   TURBO    =      0    0=normal 1=particle mesh
   IRESTART =      0    0=no restart 2=restart with 2 vectors
   NREBOOT  =      0    no. of reboots
   NMIN     =      0    reboot dimension
   EREF     =   0.00    reference energy to select bands
   IMIX   =      4    mixing-type and parameters
     AMIX     =   0.40;   BMIX     =  1.00
     AMIX_MAG =   1.60;   BMIX_MAG =  1.00
     AMIN     =   0.10
     WC   =   100.;   INIMIX=   1;  MIXPRE=   1;  MAXMIX= -45

 Intra band minimization:
   WEIMIN = 0.0000     energy-eigenvalue tresh-hold
   EBREAK =  0.31E-06  absolut break condition
   DEPER  =   0.30     relativ break condition  

   TIME   =   0.40     timestep for ELM

  volume/ion in A,a.u.               =      16.58       111.91
  Fermi-wavevector in a.u.,A,eV,Ry     =   0.925894  1.749687 11.664006  0.857280
  Thomas-Fermi vector in A             =   2.051798

 Write flags
   LWAVE        =      F    write WAVECAR
   LDOWNSAMPLE  =      F    k-point downsampling of WAVECAR
   LCHARG       =      T    write CHGCAR
   LVTOT        =      F    write LOCPOT, total local potential
   LVHAR        =      F    write LOCPOT, Hartree potential only
   LELF         =      F    write electronic localiz. function (ELF)
   LORBIT       =     11    0 simple, 1 ext, 2 COOP (PROOUT), +10 PAW based schemes


 Dipole corrections
   LMONO  =      F    monopole corrections only (constant potential shift)
   LDIPOL =      F    correct potential (dipole corrections)
   IDIPOL =      0    1-x, 2-y, 3-z, 4-all directions 
   EPSILON=  1.0000000 bulk dielectric constant

 Exchange correlation treatment:
   GGA     =    --    GGA type
   LEXCH   =     8    internal setting for exchange type
   VOSKOWN=      0    Vosko Wilk Nusair interpolation
   LHFCALC =     F    Hartree Fock is set to
   LHFONE  =     F    Hartree Fock one center treatment
   AEXX    =    0.0000 exact exchange contribution

 Linear response parameters
   LEPSILON=     F    determine dielectric tensor
   LRPA    =     F    only Hartree local field effects (RPA)
   LNABLA  =     F    use nabla operator in PAW spheres
   LVEL    =     F    velocity operator in full k-point grid
   LINTERFAST=   F  fast interpolation
   KINTER  =     0    interpolate to denser k-point grid
   CSHIFT  =0.1000    complex shift for real part using Kramers Kronig
   OMEGAMAX=  -1.0    maximum frequency
   DEG_THRESHOLD= 0.2000000E-02 threshold for treating states as degnerate
   RTIME   =   -0.100 relaxation time in fs
  (WPLASMAI=    0.000 imaginary part of plasma frequency in eV, 0.658/RTIME)
   DFIELD  = 0.0000000 0.0000000 0.0000000 field for delta impulse in time

 Orbital magnetization related:
   ORBITALMAG=     F  switch on orbital magnetization
   LCHIMAG   =     F  perturbation theory with respect to B field
   DQ        =  0.001000  dq finite difference perturbation B field
   LLRAUG    =     F  two centre corrections for induced B field



--------------------------------------------------------------------------------------------------------


 Static calculation
 charge density and potential will be updated during run
 spin polarized calculation
 Variant of blocked Davidson
 Davidson routine will perform the subspace rotation
 perform sub-space diagonalisation
    after iterative eigenvector-optimisation
 modified Broyden-mixing scheme, WC =      100.0
 initial mixing is a Kerker type mixing with AMIX =  0.4000 and BMIX =      1.0000
 Hartree-type preconditioning will be used
 using additional bands           38
 reciprocal scheme for non local part
 use partial core corrections
 calculate Harris-corrections to forces   (improved forces if not selfconsistent)
 use gradient corrections 
 use of overlap-Matrix (Vanderbilt PP)
 Fermi weights with tetrahedron method with Bloechl corrections


--------------------------------------------------------------------------------------------------------


  energy-cutoff  :      300.00
  volume of cell :       16.58
      direct lattice vectors                 reciprocal lattice vectors
     0.000000000  2.024000000  2.024000000    -0.247035573  0.247035573  0.247035573
     2.024000000  0.000000000  2.024000000     0.247035573 -0.247035573  0.247035573
     2.024000000  2.024000000  0.000000000     0.247035573  0.247035573 -0.247035573

  length of vectors
     2.862368250  2.862368250  2.862368250     0.427878164  0.427878164  0.427878164



 k-points in units of 2pi/SCALE and weight: # Generated by Masgent for energy cutoff
   0.00000000  0.00000000  0.00000000       0.001
  -0.02245778  0.02245778  0.02245778       0.006
  -0.04491556  0.04491556  0.04491556       0.006
  -0.06737334  0.06737334  0.06737334       0.006
  -0.08983112  0.08983112  0.08983112       0.006
  -0.11228890  0.11228890  0.11228890       0.006
   0.00000000  0.00000000  0.04491556       0.005
  -0.02245778  0.02245778  0.06737334       0.018
  -0.04491556  0.04491556  0.08983112       0.018
  -0.06737334  0.06737334  0.11228890       0.018
  -0.08983112  0.08983112  0.13474668       0.018
   0.13474668 -0.13474668 -0.08983112       0.018
   0.11228890 -0.11228890 -0.06737334       0.018
   0.08983112 -0.08983112 -0.04491556       0.018
   0.06737334 -0.06737334 -0.02245778       0.018
   0.04491556 -0.04491556  0.00000000       0.009
   0.00000000  0.00000000  0.08983112       0.005
  -0.02245778  0.02245778  0.11228890       0.018
  -0.04491556  0.04491556  0.13474668       0.018
  -0.06737334  0.06737334  0.15720446       0.018
   0.15720446 -0.15720446 -0.06737334       0.018
   0.13474668 -0.13474668 -0.04491556       0.018
   0.11228890 -0.11228890 -0.02245778       0.018
   0.08983112 -0.08983112  0.00000000       0.009
   0.00000000  0.00000000  0.13474668       0.005
  -0.02245778  0.02245778  0.15720446       0.018
  -0.04491556  0.04491556  0.17966223       0.018
   0.17966223 -0.17966223 -0.04491556       0.018
   0.15720446 -0.15720446 -0.02245778       0.018
   0.13474668 -0.13474668  0.00000000       0.009
   0.00000000  0.00000000  0.17966223       0.005
  -0.02245778  0.02245778  0.20212001       0.018
   0.20212001 -0.20212001 -0.02245778       0.018
   0.17966223 -0.17966223  0.00000000       0.009
   0.00000000  0.00000000  0.22457779       0.005
   0.22457779 -0.22457779  0.00000000       0.009
   0.00000000  0.04491556  0.08983112       0.018
  -0.02245778  0.06737334  0.11228890       0.036
  -0.04491556  0.08983112  0.13474668       0.036
   0.17966223 -0.13474668 -0.08983112       0.036
   0.00000000  0.04491556  0.13474668       0.018
  -0.02245778  0.06737334  0.15720446       0.036
   0.20212001 -0.15720446 -0.06737334       0.036
   0.17966223 -0.13474668 -0.04491556       0.036
   0.15720446 -0.11228890 -0.02245778       0.036
   0.13474668 -0.08983112  0.00000000       0.018
   0.00000000  0.04491556  0.17966223       0.018
   0.22457779 -0.17966223 -0.04491556       0.036
   0.20212001 -0.15720446 -0.02245778       0.036
   0.17966223 -0.13474668  0.00000000       0.018
   0.24703557 -0.20212001 -0.02245778       0.018
   0.22457779 -0.17966223 -0.00000000       0.018
   0.24703557 -0.15720446 -0.06737334       0.018
   0.22457779 -0.13474668 -0.04491556       0.036
   0.24703557 -0.15720446 -0.02245778       0.018
   0.22457779 -0.13474668  0.00000000       0.018

 k-points in reciprocal lattice and weights: # Generated by Masgent for energy cutoff
   0.00000000  0.00000000  0.00000000       0.001
   0.09090909  0.00000000  0.00000000       0.006
   0.18181818  0.00000000  0.00000000       0.006
   0.27272727  0.00000000  0.00000000       0.006
   0.36363636  0.00000000  0.00000000       0.006
   0.45454545  0.00000000  0.00000000       0.006
   0.09090909  0.09090909  0.00000000       0.005
   0.18181818  0.09090909  0.00000000       0.018
   0.27272727  0.09090909  0.00000000       0.018
   0.36363636  0.09090909  0.00000000       0.018
   0.45454545  0.09090909  0.00000000       0.018
  -0.45454545  0.09090909  0.00000000       0.018
  -0.36363636  0.09090909  0.00000000       0.018
  -0.27272727  0.09090909  0.00000000       0.018
  -0.18181818  0.09090909  0.00000000       0.018
  -0.09090909  0.09090909  0.00000000       0.009
   0.18181818  0.18181818  0.00000000       0.005
   0.27272727  0.18181818  0.00000000       0.018
   0.36363636  0.18181818  0.00000000       0.018
   0.45454545  0.18181818  0.00000000       0.018
  -0.45454545  0.18181818  0.00000000       0.018
  -0.36363636  0.18181818  0.00000000       0.018
  -0.27272727  0.18181818  0.00000000       0.018
  -0.18181818  0.18181818  0.00000000       0.009
   0.27272727  0.27272727  0.00000000       0.005
   0.36363636  0.27272727  0.00000000       0.018
   0.45454545  0.27272727  0.00000000       0.018
  -0.45454545  0.27272727  0.00000000       0.018
  -0.36363636  0.27272727  0.00000000       0.018
  -0.27272727  0.27272727  0.00000000       0.009
   0.36363636  0.36363636  0.00000000       0.005
   0.45454545  0.36363636  0.00000000       0.018
  -0.45454545  0.36363636  0.00000000       0.018
  -0.36363636  0.36363636  0.00000000       0.009
   0.45454545  0.45454545  0.00000000       0.005
  -0.45454545  0.45454545  0.00000000       0.009
   0.27272727  0.18181818  0.09090909       0.018
   0.36363636  0.18181818  0.09090909       0.036
   0.45454545  0.18181818  0.09090909       0.036
  -0.45454545  0.18181818  0.09090909       0.036
   0.36363636  0.27272727  0.09090909       0.018
   0.45454545  0.27272727  0.09090909       0.036
  -0.45454545  0.27272727  0.09090909       0.036
  -0.36363636  0.27272727  0.09090909       0.036
  -0.27272727  0.27272727  0.09090909       0.036
  -0.18181818  0.27272727  0.09090909       0.018
   0.45454545  0.36363636  0.09090909       0.018
  -0.45454545  0.36363636  0.09090909       0.036
  -0.36363636  0.36363636  0.09090909       0.036
  -0.27272727  0.36363636  0.09090909       0.018
  -0.45454545  0.45454545  0.09090909       0.018
  -0.36363636  0.45454545  0.09090909       0.018
  -0.45454545  0.36363636  0.18181818       0.018
  -0.36363636  0.36363636  0.18181818       0.036
  -0.36363636  0.45454545  0.18181818       0.018
  -0.27272727  0.45454545  0.18181818       0.018

 position of ions in fractional coordinates (direct lattice) 
   0.00000000  0.00000000  0.00000000

 position of ions in cartesian coordinates  (Angst):
   0.00000000  0.00000000  0.00000000



--------------------------------------------------------------------------------------------------------


 k-point   1 :   0.0000 0.0000 0.0000  plane waves:     181
 k-point   2 :   0.0909 0.0000 0.0000  plane waves:     178
 k-point   3 :   0.1818 0.0000 0.0000  plane waves:     193
 k-point   4 :   0.2727 0.0000 0.0000  plane waves:     193
 k-point   5 :   0.3636 0.0000 0.0000  plane waves:     198
 k-point   6 :   0.4545 0.0000 0.0000  plane waves:     195
 k-point   7 :   0.0909 0.0909 0.0000  plane waves:     177
 k-point   8 :   0.1818 0.0909 0.0000  plane waves:     182
 k-point   9 :   0.2727 0.0909 0.0000  plane waves:     194
 k-point  10 :   0.3636 0.0909 0.0000  plane waves:     194
 k-point  11 :   0.4545 0.0909 0.0000  plane waves:     194
 k-point  12 :  -0.4545 0.0909 0.0000  plane waves:     189
 k-point  13 :  -0.3636 0.0909 0.0000  plane waves:     195
 k-point  14 :  -0.2727 0.0909 0.0000  plane waves:     195
 k-point  15 :  -0.1818 0.0909 0.0000  plane waves:     192
 k-point  16 :  -0.0909 0.0909 0.0000  plane waves:     180
 k-point  17 :   0.1818 0.1818 0.0000  plane waves:     186
 k-point  18 :   0.2727 0.1818 0.0000  plane waves:     193
 k-point  19 :   0.3636 0.1818 0.0000  plane waves:     192
 k-point  20 :   0.4545 0.1818 0.0000  plane waves:     197
 k-point  21 :  -0.4545 0.1818 0.0000  plane waves:     195
 k-point  22 :  -0.3636 0.1818 0.0000  plane waves:     196
 k-point  23 :  -0.2727 0.1818 0.0000  plane waves:     193
 k-point  24 :  -0.1818 0.1818 0.0000  plane waves:     200
 k-point  25 :   0.2727 0.2727 0.0000  plane waves:     198
 k-point  26 :   0.3636 0.2727 0.0000  plane waves:     198
 k-point  27 :   0.4545 0.2727 0.0000  plane waves:     197
 k-point  28 :  -0.4545 0.2727 0.0000  plane waves:     191
 k-point  29 :  -0.3636 0.2727 0.0000  plane waves:     190
 k-point  30 :  -0.2727 0.2727 0.0000  plane waves:     196
 k-point  31 :   0.3636 0.3636 0.0000  plane waves:     202
 k-point  32 :   0.4545 0.3636 0.0000  plane waves:     201
 k-point  33 :  -0.4545 0.3636 0.0000  plane waves:     200
 k-point  34 :  -0.3636 0.3636 0.0000  plane waves:     194
 k-point  35 :   0.4545 0.4545 0.0000  plane waves:     194
 k-point  36 :  -0.4545 0.4545 0.0000  plane waves:     196
 k-point  37 :   0.2727 0.1818 0.0909  plane waves:     194
 k-point  38 :   0.3636 0.1818 0.0909  plane waves:     196
 k-point  39 :   0.4545 0.1818 0.0909  plane waves:     198
 k-point  40 :  -0.4545 0.1818 0.0909  plane waves:     195
 k-point  41 :   0.3636 0.2727 0.0909  plane waves:     194
 k-point  42 :   0.4545 0.2727 0.0909  plane waves:     196
 k-point  43 :  -0.4545 0.2727 0.0909  plane waves:     195
 k-point  44 :  -0.3636 0.2727 0.0909  plane waves:     196
 k-point  45 :  -0.2727 0.2727 0.0909  plane waves:     197
 k-point  46 :  -0.1818 0.2727 0.0909  plane waves:     196
 k-point  47 :   0.4545 0.3636 0.0909  plane waves:     200
 k-point  48 :  -0.4545 0.3636 0.0909  plane waves:     199
 k-point  49 :  -0.3636 0.3636 0.0909  plane waves:     198
 k-point  50 :  -0.2727 0.3636 0.0909  plane waves:     197
 k-point  51 :  -0.4545 0.4545 0.0909  plane waves:     200
 k-point  52 :  -0.3636 0.4545 0.0909  plane waves:     201
 k-point  53 :  -0.4545 0.3636 0.1818  plane waves:     198
 k-point  54 :  -0.3636 0.3636 0.1818  plane waves:     197
 k-point  55 :  -0.3636 0.4545 0.1818  plane waves:     201
 k-point  56 :  -0.2727 0.4545 0.1818  plane waves:     202

 maximum and minimum number of plane-waves per node :       202      177

 maximum number of plane-waves:       202
 maximum index in each direction: 
   IXMAX=    4   IYMAX=    4   IZMAX=    4
   IXMIN=   -4   IYMIN=   -4   IZMIN=   -4


 serial   3D FFT for wavefunctions
 parallel 3D FFT for charge:
    minimum data exchange during FFTs selected (reduces bandwidth)


 total amount of memory used by VASP MPI-rank0    31846. kBytes
=======================================================================

   base      :      30000. kBytes
   nonl-proj :        864. kBytes
   fftplans  :         62. kBytes
   grid      :        413. kBytes
   one-center:          6. kBytes
   wavefun   :        501. kBytes

     INWAV:  cpu time    0.0000: real time    0.0001
 Broyden mixing: mesh for mixing (old mesh)
   NGX =  9   NGY =  9   NGZ =  9
  (NGX  = 32   NGY  = 32   NGZ  = 32)
  gives a total of    729 points

 initial charge density was supplied:
 charge density of overlapping atoms calculated
 number of electron       3.0000000 magnetization       1.0000000
 keeping initial charge density in first step


--------------------------------------------------------------------------------------------------------


 Maximum index for augmentation-charges          499 (set IRDMAX)


--------------------------------------------------------------------------------------------------------


 First call to EWALD:  gamma=   0.695
 Maximum number of real-space cells 3x 3x 3
 Maximum number of reciprocal cells 3x 3x 3

    FEWALD:  cpu time    0.0082: real time    0.0083


--------------------------------------- Iteration      1(   1)  ---------------------------------------


    POTLOK:  cpu time    0.0095: real time    0.0125
    SETDIJ:  cpu time    0.2829: real time    0.2831
     EDDAV:  cpu time   14.4326: real time   14.4556
 BZINTS: Fermi energy:    8.066983;    3.000000 electrons
         Band energy: 0.107907E+02;  BLOECHL correction:   -0.129230
       DOS:  cpu time    0.0392: real time    0.0395
    --------------------------------------------
      LOOP:  cpu time   14.7642: real time   14.7906

 eigenvalue-minimisations  : 12880
 total energy-change (2. order) :-0.3517339E+01  (-0.8467920E+02)
 number of electron       3.0000000 magnetization       1.0000000
 augmentation part        3.0000000 magnetization       1.0000000

 Free energy of the ion-electron system (eV)
  ---------------------------------------------------
  alpha Z        PSCENC =        -0.20254611
  Ewald energy   TEWEN  =       -73.39295237
  -Hartree energ DENC   =        -0.10329695
  -exchange      EXHF   =         0.00000000
  -V(xc)+E(xc)   XCENC  =       -26.09911360
  PAW double counting   =        66.09387665      -34.14163118
  entropy T*S    EENTRO =         0.00000000
  eigenvalues    EBANDS =        10.79070024
  atomic energy  EATOM  =        53.53762400
  Solvation  Ediel_sol  =         0.00000000
  ---------------------------------------------------
  free energy    TOTEN  =        -3.51733932 eV

  energy without entropy =       -3.51733932  energy(sigma->0) =       -3.51733932


--------------------------------------------------------------------------------------------------------




--------------------------------------- Iteration      1(   2)  ---------------------------------------


     EDDAV:  cpu time    9.6948: real time    9.6998
 BZINTS: Fermi energy:    8.062997;    3.000000 electrons
         Band energy: 0.107827E+02;  BLOECHL correction:   -0.129031
       DOS:  cpu time    0.0386: real time    0.0388
    --------------------------------------------
      LOOP:  cpu time    9.7334: real time    9.7386

 eigenvalue-minimisations  :  9520
 total energy-change (2. order) :-0.7976449E-02  (-0.8106913E-02)
 number of electron       3.0000000 magnetization       1.0000000
 augmentation part        3.0000000 magnetization       1.0000000

 Free energy of the ion-electron system (eV)
  ---------------------------------------------------
  alpha Z        PSCENC =        -0.20254611
  Ewald energy   TEWEN  =       -73.39295237
  -Hartree energ DENC   =        -0.10329695
  -exchange      EXHF   =         0.00000000
  -V(xc)+E(xc)   XCENC  =       -26.09911360
  PAW double counting   =        66.09387665      -34.14163118
  entropy T*S    EENTRO =         0.00000000
  eigenvalues    EBANDS =        10.78272380
  atomic energy  EATOM  =        53.53762400
  Solvation  Ediel_sol  =         0.00000000
  ---------------------------------------------------
  free energy    TOTEN  =        -3.52531577 eV

  energy without entropy =       -3.52531577  energy(sigma->0) =       -3.52531577


--------------------------------------------------------------------------------------------------------




--------------------------------------- Iteration      1(   3)  ---------------------------------------


     EDDAV:  cpu time   18.2890: real time   18.7240
 BZINTS: Fermi energy:    8.062997;    3.000000 electrons
         Band energy: 0.107827E+02;  BLOECHL correction:   -0.129031
       DOS:  cpu time    0.0396: real time    0.0397
    --------------------------------------------
      LOOP:  cpu time   18.3286: real time   18.7637

 eigenvalue-minimisations  : 15680
 total energy-change (2. order) :-0.1201350E-06  (-0.1243124E-06)
 number of electron       3.0000000 magnetization       1.0000000
 augmentation part        3.0000000 magnetization       1.0000000

 Free energy of the ion-electron system (eV)
  ---------------------------------------------------
  alpha Z        PSCENC =        -0.20254611
  Ewald energy   TEWEN  =       -73.39295237
  -Hartree energ DENC   =        -0.10329695
  -exchange      EXHF   =         0.00000000
  -V(xc)+E(xc)   XCENC  =       -26.09911360
  PAW double counting   =        66.09387665      -34.14163118
  entropy T*S    EENTRO =         0.00000000
  eigenvalues    EBANDS =        10.78272368
  atomic energy  EATOM  =        53.53762400
  Solvation  Ediel_sol  =         0.00000000
  ---------------------------------------------------
  free energy    TOTEN  =        -3.52531589 eV

  energy without entropy =       -3.52531589  energy(sigma->0) =       -3.52531589


--------------------------------------------------------------------------------------------------------




--------------------------------------- Iteration      1(   4)  ---------------------------------------


     EDDAV:  cpu time    7.6638: real time    8.1285
 BZINTS: Fermi energy:    8.062997;    3.000000 electrons
         Band energy: 0.107827E+02;  BLOECHL correction:   -0.129031
       DOS:  cpu time    0.0370: real time    0.0372
    --------------------------------------------
      LOOP:  cpu time    7.7009: real time    8.1657

 eigenvalue-minimisations  :  9680
 total energy-change (2. order) :-0.4268657E-09  ( 0.5296947E-14)
 number of electron       3.0000000 magnetization       1.0000000
 augmentation part        3.0000000 magnetization       1.0000000

 Free energy of the ion-electron system (eV)
  ---------------------------------------------------
  alpha Z        PSCENC =        -0.20254611
  Ewald energy   TEWEN  =       -73.39295237
  -Hartree energ DENC   =        -0.10329695
  -exchange      EXHF   =         0.00000000
  -V(xc)+E(xc)   XCENC  =       -26.09911360
  PAW double counting   =        66.09387665      -34.14163118
  entropy T*S    EENTRO =         0.00000000
  eigenvalues    EBANDS =        10.78272367
  atomic energy  EATOM  =        53.53762400
  Solvation  Ediel_sol  =         0.00000000
  ---------------------------------------------------
  free energy    TOTEN  =        -3.52531589 eV

  energy without entropy =       -3.52531589  energy(sigma->0) =       -3.52531589


--------------------------------------------------------------------------------------------------------




--------------------------------------- Iteration      1(   5)  ---------------------------------------


     EDDAV:  cpu time   17.5469: real time   18.3748
 BZINTS: Fermi energy:    8.062997;    3.000000 electrons
         Band energy: 0.107827E+02;  BLOECHL correction:   -0.129031
       DOS:  cpu time    0.0389: real time    0.0391
    CHARGE:  cpu time    0.0121: real time    0.0123
    MIXING:  cpu time    0.0010: real time    0.0012
    --------------------------------------------
      LOOP:  cpu time   17.5990: real time   18.4274

 eigenvalue-minimisations  : 14000
 total energy-change (2. order) : 0.1334001E-08  ( 0.3184257E-13)
 number of electron       3.0000000 magnetization      -0.0719302
 augmentation part       -0.0364763 magnetization      -0.3090840

 Broyden mixing:
  rms(total) = 0.23537E+00    rms(broyden)= 0.23537E+00
  rms(prec ) = 0.40946E+00
  weight for this iteration     100.00

 Free energy of the ion-electron system (eV)
  ---------------------------------------------------
  alpha Z        PSCENC =        -0.20254611
  Ewald energy   TEWEN  =       -73.39295237
  -Hartree energ DENC   =        -0.10329695
  -exchange      EXHF   =         0.00000000
  -V(xc)+E(xc)   XCENC  =       -26.09911360
  PAW double counting   =        66.09387665      -34.14163118
  entropy T*S    EENTRO =         0.00000000
  eigenvalues    EBANDS =        10.78272368
  atomic energy  EATOM  =        53.53762400
  Solvation  Ediel_sol  =         0.00000000
  ---------------------------------------------------
  free energy    TOTEN  =        -3.52531589 eV

  energy without entropy =       -3.52531589  energy(sigma->0) =       -3.52531589


--------------------------------------------------------------------------------------------------------




--------------------------------------- Iteration      1(   6)  ---------------------------------------


    POTLOK:  cpu time    0.0047: real time    0.0049
    SETDIJ:  cpu time    0.2094: real time    0.2096
     EDDAV:  cpu time   14.5750: real time   15.1199
 BZINTS: Fermi energy:    8.020609;    3.000000 electrons
         Band energy: 0.106572E+02;  BLOECHL correction:   -0.119026
       DOS:  cpu time    0.0390: real time    0.0392
    CHARGE:  cpu time    0.0354: real time    0.0354
    MIXING:  cpu time    0.0483: real time    0.0484
    --------------------------------------------
      LOOP:  cpu time   14.9118: real time   15.4574

 eigenvalue-minimisations  : 10840
 total energy-change (2. order) :-0.2242669E+00  (-0.1364069E-02)
 number of electron       3.0000000 magnetization       0.0475341
 augmentation part       -0.0365078 magnetization       0.0570904

 Broyden mixing:
  rms(total) = 0.93769E-01    rms(broyden)= 0.93769E-01
  rms(prec ) = 0.23733E+00
  weight for this iteration     100.00

 eigenvalues of (default mixing * dielectric matrix)
  average eigenvalue GAMMA=   0.8806
  0.8806

 Free energy of the ion-electron system (eV)
  ---------------------------------------------------
  alpha Z        PSCENC =        -0.20254611
  Ewald energy   TEWEN  =       -73.39295237
  -Hartree energ DENC   =        -0.08680376
  -exchange      EXHF   =         0.00000000
  -V(xc)+E(xc)   XCENC  =       -26.21262096
  PAW double counting   =        98.05896300      -66.10840041
  entropy T*S    EENTRO =         0.00000000
  eigenvalues    EBANDS =        10.65715383
  atomic energy  EATOM  =        53.53762400
  Solvation  Ediel_sol  =         0.00000000
  ---------------------------------------------------
  free energy    TOTEN  =        -3.74958277 eV

  energy without entropy =       -3.74958277  energy(sigma->0) =       -3.74958277


--------------------------------------------------------------------------------------------------------




--------------------------------------- Iteration      1(   7)  ---------------------------------------


    POTLOK:  cpu time    0.8197: real time    0.8201
    SETDIJ:  cpu time    0.3278: real time    0.3279
     EDDAV:  cpu time   16.0414: real time   16.1959
 BZINTS: Fermi energy:    8.012104;    3.000000 electrons
         Band energy: 0.106339E+02;  BLOECHL correction:   -0.119085
       DOS:  cpu time    0.0398: real time    0.0399
    CHARGE:  cpu time    0.0108: real time    0.0108
    MIXING:  cpu time    0.0003: real time    0.0003
    --------------------------------------------
      LOOP:  cpu time   17.2398: real time   17.3949

 eigenvalue-minimisations  : 13000
 total energy-change (2. order) : 0.5822307E-02  (-0.1015476E-02)
 number of electron       3.0000000 magnetization       0.0084129
 augmentation part       -0.0370537 magnetization       0.0026950

 Broyden mixing:
  rms(total) = 0.67183E-01    rms(broyden)= 0.67183E-01
  rms(prec ) = 0.12625E+00
  weight for this iteration     100.00

 eigenvalues of (default mixing * dielectric matrix)
  average eigenvalue GAMMA=   0.8740
  1.0675  0.6806

 Free energy of the ion-electron system (eV)
  ---------------------------------------------------
  alpha Z        PSCENC =        -0.20254611
  Ewald energy   TEWEN  =       -73.39295237
  -Hartree energ DENC   =        -0.08868709
  -exchange      EXHF   =         0.00000000
  -V(xc)+E(xc)   XCENC  =       -26.17866002
  PAW double counting   =       129.37926143      -97.43169971
  entropy T*S    EENTRO =         0.00000000
  eigenvalues    EBANDS =        10.63389941
  atomic energy  EATOM  =        53.53762400
  Solvation  Ediel_sol  =         0.00000000
  ---------------------------------------------------
  free energy    TOTEN  =        -3.74376047 eV

  energy without entropy =       -3.74376047  energy(sigma->0) =       -3.74376047


--------------------------------------------------------------------------------------------------------




--------------------------------------- Iteration      1(   8)  ---------------------------------------


    POTLOK:  cpu time    0.0036: real time    0.0038
    SETDIJ:  cpu time    0.2093: real time    0.2093
     EDDAV:  cpu time   11.0474: real time   11.3520
 BZINTS: Fermi energy:    8.007474;    3.000000 electrons
         Band energy: 0.106217E+02;  BLOECHL correction:   -0.119148
       DOS:  cpu time    0.0390: real time    0.0392
    CHARGE:  cpu time    0.0105: real time    0.0105
    MIXING:  cpu time    0.0002: real time    0.0002
    --------------------------------------------
      LOOP:  cpu time   11.3101: real time   11.6151

 eigenvalue-minimisations  : 11360
 total energy-change (2. order) : 0.1541190E-02  (-0.1669070E-03)
 number of electron       3.0000000 magnetization      -0.0035767
 augmentation part       -0.0375054 magnetization      -0.0058230

 Broyden mixing:
  rms(total) = 0.28036E-01    rms(broyden)= 0.28036E-01
  rms(prec ) = 0.37471E-01
  weight for this iteration     100.00

 eigenvalues of (default mixing * dielectric matrix)
  average eigenvalue GAMMA=   1.2549
  2.2028  0.9260  0.6357

 Free energy of the ion-electron system (eV)
  ---------------------------------------------------
  alpha Z        PSCENC =        -0.20254611
  Ewald energy   TEWEN  =       -73.39295237
  -Hartree energ DENC   =        -0.10015905
  -exchange      EXHF   =         0.00000000
  -V(xc)+E(xc)   XCENC  =       -26.15080415
  PAW double counting   =       152.96953132     -121.02463196
  entropy T*S    EENTRO =         0.00000000
  eigenvalues    EBANDS =        10.62171905
  atomic energy  EATOM  =        53.53762400
  Solvation  Ediel_sol  =         0.00000000
  ---------------------------------------------------
  free energy    TOTEN  =        -3.74221928 eV

  energy without entropy =       -3.74221928  energy(sigma->0) =       -3.74221928


--------------------------------------------------------------------------------------------------------




--------------------------------------- Iteration      1(   9)  ---------------------------------------


    POTLOK:  cpu time    0.0036: real time    0.0038
    SETDIJ:  cpu time    0.2105: real time    0.2106
     EDDAV:  cpu time   18.3719: real time   18.4232
 BZINTS: Fermi energy:    8.006509;    3.000000 electrons
         Band energy: 0.106193E+02;  BLOECHL correction:   -0.119170
       DOS:  cpu time    0.0399: real time    0.0401
    CHARGE:  cpu time    0.0106: real time    0.0107
    MIXING:  cpu time    0.0003: real time    0.0003
    --------------------------------------------
      LOOP:  cpu time   18.6369: real time   18.6886

 eigenvalue-minimisations  : 13520
 total energy-change (2. order) : 0.1761054E-03  (-0.2843706E-04)
 number of electron       3.0000000 magnetization       0.0021537
 augmentation part       -0.0376415 magnetization       0.0027063

 Broyden mixing:
  rms(total) = 0.81824E-02    rms(broyden)= 0.81824E-02
  rms(prec ) = 0.87947E-02
  weight for this iteration     100.00

 eigenvalues of (default mixing * dielectric matrix)
  average eigenvalue GAMMA=   1.2209
  2.2589  1.1021  0.8818  0.6410

 Free energy of the ion-electron system (eV)
  ---------------------------------------------------
  alpha Z        PSCENC =        -0.20254611
  Ewald energy   TEWEN  =       -73.39295237
  -Hartree energ DENC   =        -0.10522849
  -exchange      EXHF   =         0.00000000
  -V(xc)+E(xc)   XCENC  =       -26.14183957
  PAW double counting   =       156.68999911     -124.74641395
  entropy T*S    EENTRO =         0.00000000
  eigenvalues    EBANDS =        10.61931422
  atomic energy  EATOM  =        53.53762400
  Solvation  Ediel_sol  =         0.00000000
  ---------------------------------------------------
  free energy    TOTEN  =        -3.74204317 eV

  energy without entropy =       -3.74204317  energy(sigma->0) =       -3.74204317


--------------------------------------------------------------------------------------------------------




--------------------------------------- Iteration      1(  10)  ---------------------------------------


    POTLOK:  cpu time    0.0036: real time    0.0038
    SETDIJ:  cpu time    0.2087: real time    0.2122
     EDDAV:  cpu time   17.5948: real time   17.6558
 BZINTS: Fermi energy:    8.006687;    3.000000 electrons
         Band energy: 0.106199E+02;  BLOECHL correction:   -0.119173
       DOS:  cpu time    0.0400: real time    0.0402
    --------------------------------------------
      LOOP:  cpu time   17.8471: real time   17.9121

 eigenvalue-minimisations  : 12800
 total energy-change (2. order) :-0.7041508E-05  (-0.5363556E-05)
 number of electron       3.0000000 magnetization       0.0021537
 augmentation part       -0.0376415 magnetization       0.0027063

 Free energy of the ion-electron system (eV)
  ---------------------------------------------------
  alpha Z        PSCENC =        -0.20254611
  Ewald energy   TEWEN  =       -73.39295237
  -Hartree energ DENC   =        -0.10608691
  -exchange      EXHF   =         0.00000000
  -V(xc)+E(xc)   XCENC  =       -26.14079625
  PAW double counting   =       152.19595011     -120.25312779
  entropy T*S    EENTRO =         0.00000000
  eigenvalues    EBANDS =        10.61988511
  atomic energy  EATOM  =        53.53762400
  Solvation  Ediel_sol  =         0.00000000
  ---------------------------------------------------
  free energy    TOTEN  =        -3.74205021 eV

  energy without entropy =       -3.74205021  energy(sigma->0) =       -3.74205021


--------------------------------------------------------------------------------------------------------




 average (electrostatic) potential at core
  the test charge radii are     1.0406
  (the norm of the test charge is              1.0000)
       1 -72.6887



 E-fermi :   8.0067     XC(G=0): -10.1780     alpha+bet :-14.8020

 Fermi energy:         8.0066868766

 spin component 1

 k-point     1 :       0.0000    0.0000    0.0000
  band No.  band energies     occupation 
      1      -3.1517      1.00000
      2      20.5806      0.00000
      3      20.5806      0.00000
      4      20.5806      0.00000
      5      21.9923      0.00000
      6      21.9923      0.00000
      7      21.9923      0.00000
      8      24.3839      0.00000
      9      27.3816      0.00000
     10      27.3816      0.00000
     11      30.1602      0.00000
     12      32.5188      0.00000
     13      32.5188      0.00000
     14      32.5188      0.00000
     15      41.1287      0.00000
     16      59.1450      0.00000
     17      59.5322      0.00000
     18      59.5322      0.00000
     19      59.5322      0.00000
     20      63.0444      0.00000
     21      63.0444      0.00000
     22      63.1964      0.00000
     23      63.1964      0.00000
     24      63.1964      0.00000
     25      65.1686      0.00000
     26      65.1686      0.00000
     27      65.1686      0.00000
     28      75.1622      0.00000
     29      75.1622      0.00000
     30      75.1622      0.00000
     31      81.0314      0.00000
     32      83.4708      0.00000
     33      83.4708      0.00000
     34      87.5568      0.00000
     35      87.5568      0.00000
     36      87.5568      0.00000
     37      90.3385      0.00000
     38      90.3385      0.00000
     39      90.3385      0.00000
     40      91.1633      0.00000

 k-point     2 :       0.0909    0.0000    0.0000
  band No.  band energies     occupation 
      1      -2.9278      1.00000
      2      17.6381      0.00000
      3      19.9201      0.00000
      4      19.9201      0.00000
      5      22.6803      0.00000
      6      22.9945      0.00000
      7      22.9945      0.00000
      8      26.2572      0.00000
      9      26.2572      0.00000
     10      26.4897      0.00000
     11      29.4098      0.00000
     12      33.6133      0.00000
     13      34.1048      0.00000
     14      34.1048      0.00000
     15      42.0112      0.00000
     16      56.8335      0.00000
     17      56.8335      0.00000
     18      58.2847      0.00000
     19      59.3000      0.00000
     20      61.7603      0.00000
     21      61.7603      0.00000
     22      63.4954      0.00000
     23      63.4954      0.00000
     24      64.7109      0.00000
     25      65.3700      0.00000
     26      69.3618      0.00000
     27      69.3619      0.00000
     28      73.1383      0.00000
     29      74.6389      0.00000
     30      74.6389      0.00000
     31      82.3345      0.00000
     32      82.3345      0.00000
     33      82.6544      0.00000
     34      84.6504      0.00000
     35      86.1178      0.00000
     36      86.1178      0.00000
     37      88.1475      0.00000
     38      88.1475      0.00000
     39      89.0842      0.00000
     40      90.3246      0.00000

 k-point     3 :       0.1818    0.0000    0.0000
  band No.  band energies     occupation 
      1      -2.2584      1.00000
      2      13.9800      0.00000
      3      19.1769      0.00000
      4      19.1769      0.00000
      5      22.4474      0.00000
      6      23.8282      0.00000
      7      23.8282      0.00000
      8      25.3476      0.00000
      9      25.3476      0.00000
     10      27.8967      0.00000
     11      30.0018      0.00000
     12      36.4458      0.00000
     13      37.2720      0.00000
     14      37.2720      0.00000
     15      44.2329      0.00000
     16      51.9305      0.00000
     17      51.9305      0.00000
     18      55.1118      0.00000
     19      59.0877      0.00000
     20      61.9389      0.00000
     21      61.9389      0.00000
     22      63.2175      0.00000
     23      63.2175      0.00000
     24      63.8913      0.00000
     25      65.9613      0.00000
     26      69.1202      0.00000
     27      72.0066      0.00000
     28      72.0066      0.00000
     29      74.4782      0.00000
     30      74.4782      0.00000
     31      79.0590      0.00000
     32      79.3752      0.00000
     33      79.3752      0.00000
     34      82.9920      0.00000
     35      82.9920      0.00000
     36      84.8834      0.00000
     37      85.7449      0.00000
     38      87.0727      0.00000
     39      87.0727      0.00000
     40      87.9641      0.00000

 k-point     4 :       0.2727    0.0000    0.0000
  band No.  band energies     occupation 
      1      -1.1497      1.00000
      2      10.5528     -0.01630
      3      18.7655      0.00000
      4      18.7655      0.00000
      5      22.2375      0.00000
      6      22.2827      0.00000
      7      22.2827      0.00000
      8      26.2553      0.00000
      9      27.3967      0.00000
     10      27.3967      0.00000
     11      33.3345      0.00000
     12      40.5507      0.00000
     13      40.9007      0.00000
     14      40.9007      0.00000
     15      47.1567      0.00000
     16      47.4852      0.00000
     17      47.4853      0.00000
     18      52.5520      0.00000
     19      59.1527      0.00000
     20      62.3880      0.00000
     21      62.3880      0.00000
     22      62.7588      0.00000
     23      63.4684      0.00000
     24      63.4684      0.00000
     25      66.9065      0.00000
     26      67.4679      0.00000
     27      68.0508      0.00000
     28      68.0508      0.00000
     29      75.4439      0.00000
     30      75.4439      0.00000
     31      75.8624      0.00000
     32      78.4381      0.00000
     33      79.4172      0.00000
     34      79.4172      0.00000
     35      80.2942      0.00000
     36      80.2942      0.00000
     37      81.2372      0.00000
     38      88.5799      0.00000
     39      88.5800      0.00000
     40      88.9216      0.00000

 k-point     5 :       0.3636    0.0000    0.0000
  band No.  band energies     occupation 
      1       0.3886      1.00000
      2       7.4491      0.71193
      3      18.7195      0.00000
      4      18.7195      0.00000
      5      20.8471      0.00000
      6      20.8471      0.00000
      7      22.3098      0.00000
      8      24.7709      0.00000
      9      29.9308      0.00000
     10      29.9308      0.00000
     11      36.4618      0.00000
     12      41.9536      0.00000
     13      41.9536      0.00000
     14      45.1408      0.00000
     15      46.5125      0.00000
     16      46.5125      0.00000
     17      48.5083      0.00000
     18      52.0766      0.00000
     19      59.1295      0.00000
     20      59.5897      0.00000
     21      61.1639      0.00000
     22      61.1639      0.00000
     23      63.2949      0.00000
     24      63.2949      0.00000
     25      64.6004      0.00000
     26      64.6004      0.00000
     27      66.5999      0.00000
     28      68.0806      0.00000
     29      69.8299      0.00000
     30      74.2923      0.00000
     31      74.2923      0.00000
     32      76.7770      0.00000
     33      77.0539      0.00000
     34      77.0539      0.00000
     35      78.2613      0.00000
     36      81.5726      0.00000
     37      81.5726      0.00000
     38      88.7178      0.00000
     39      89.3045      0.00000
     40      89.3045      0.00000

 k-point     6 :       0.4545    0.0000    0.0000
  band No.  band energies     occupation 
      1       2.3418      1.00000
      2       4.7093      1.00000
      3      19.0484      0.00000
      4      19.0484      0.00000
      5      19.7674      0.00000
      6      19.7674      0.00000
      7      22.7464      0.00000
      8      23.5868      0.00000
      9      32.2770      0.00000
     10      32.2770      0.00000
     11      39.0252      0.00000
     12      39.2521      0.00000
     13      39.2521      0.00000
     14      45.8909      0.00000
     15      49.9246      0.00000
     16      50.4476      0.00000
     17      50.4476      0.00000
     18      56.1648      0.00000
     19      56.3207      0.00000
     20      56.8439      0.00000
     21      56.8439      0.00000
     22      59.3840      0.00000
     23      62.7749      0.00000
     24      63.5789      0.00000
     25      63.5789      0.00000
     26      64.5134      0.00000
     27      64.5134      0.00000
     28      67.4029      0.00000
     29      69.0899      0.00000
     30      73.7546      0.00000
     31      73.7546      0.00000
     32      75.5779      0.00000
     33      75.5779      0.00000
     34      76.3512      0.00000
     35      77.5087      0.00000
     36      82.1035      0.00000
     37      82.1035      0.00000
     38      88.7876      0.00000
     39      89.0480      0.00000
     40      89.0480      0.00000

 k-point     7 :       0.0909    0.0909    0.0000
  band No.  band energies     occupation 
      1      -2.8533      1.00000
      2      18.6506      0.00000
      3      18.6506      0.00000
      4      18.9629      0.00000
      5      21.3261      0.00000
      6      24.3303      0.00000
      7      24.3624      0.00000
      8      24.3624      0.00000
      9      26.5983      0.00000
     10      27.6619      0.00000
     11      30.6074      0.00000
     12      32.8649      0.00000
     13      32.8649      0.00000
     14      35.5963      0.00000
     15      42.4503      0.00000
     16      56.5627      0.00000
     17      56.5627      0.00000
     18      57.9978      0.00000
     19      59.0750      0.00000
     20      59.7339      0.00000
     21      61.6561      0.00000
     22      63.7524      0.00000
     23      63.7524      0.00000
     24      65.3426      0.00000
     25      67.9950      0.00000
     26      67.9950      0.00000
     27      70.6497      0.00000
     28      71.8944      0.00000
     29      75.1135      0.00000
     30      75.1135      0.00000
     31      80.9671      0.00000
     32      82.9309      0.00000
     33      82.9309      0.00000
     34      82.9311      0.00000
     35      83.6641      0.00000
     36      85.0890      0.00000
     37      88.8518      0.00000
     38      90.2305      0.00000
     39      90.2305      0.00000
     40      90.4918      0.00000

 k-point     8 :       0.1818    0.0909    0.0000
  band No.  band energies     occupation 
      1      -2.3326      1.00000
      2      15.3087      0.00000
      3      17.7186      0.00000
      4      19.0702      0.00000
      5      21.6707      0.00000
      6      22.3083      0.00000
      7      24.7415      0.00000
      8      25.7711      0.00000
      9      27.1282      0.00000
     10      29.5261      0.00000
     11      29.9651      0.00000
     12      34.7530      0.00000
     13      35.0516      0.00000
     14      37.9170      0.00000
     15      44.5124      0.00000
     16      52.0016      0.00000
     17      53.3124      0.00000
     18      57.7356      0.00000
     19      58.0432      0.00000
     20      58.8577      0.00000
     21      61.0968      0.00000
     22      63.7660      0.00000
     23      64.5438      0.00000
     24      65.7773      0.00000
     25      68.2785      0.00000
     26      68.9924      0.00000
     27      71.9014      0.00000
     28      73.3752      0.00000
     29      73.7084      0.00000
     30      75.2424      0.00000
     31      77.5055      0.00000
     32      78.6013      0.00000
     33      81.1935      0.00000
     34      82.1786      0.00000
     35      82.9007      0.00000
     36      84.2877      0.00000
     37      86.4352      0.00000
     38      86.6764      0.00000
     39      89.3038      0.00000
     40      89.5779      0.00000

 k-point     9 :       0.2727    0.0909    0.0000
  band No.  band energies     occupation 
      1      -1.3707      1.00000
      2      11.8258      0.00000
      3      17.1581      0.00000
      4      18.7237      0.00000
      5      20.0286      0.00000
      6      23.8071      0.00000
      7      24.6795      0.00000
      8      24.7927      0.00000
      9      28.2697      0.00000
     10      28.5765      0.00000
     11      33.0803      0.00000
     12      38.1215      0.00000
     13      39.0505      0.00000
     14      40.9342      0.00000
     15      47.2206      0.00000
     16      47.4534      0.00000
     17      49.2251      0.00000
     18      54.8436      0.00000
     19      58.3362      0.00000
     20      58.5419      0.00000
     21      61.2510      0.00000
     22      62.8606      0.00000
     23      63.3703      0.00000
     24      65.1791      0.00000
     25      66.2977      0.00000
     26      69.0789      0.00000
     27      69.2271      0.00000
     28      71.8082      0.00000
     29      72.4163      0.00000
     30      73.9724      0.00000
     31      77.5215      0.00000
     32      77.9074      0.00000
     33      78.7576      0.00000
     34      80.8132      0.00000
     35      81.2036      0.00000
     36      81.7523      0.00000
     37      83.0409      0.00000
     38      86.9919      0.00000
     39      87.0309      0.00000
     40      87.2793      0.00000

 k-point    10 :       0.3636    0.0909    0.0000
  band No.  band energies     occupation 
      1       0.0238      1.00000
      2       8.6235      0.19762
      3      16.9785      0.00000
      4      18.3850      0.00000
      5      18.6262      0.00000
      6      23.3273      0.00000
      7      24.4128      0.00000
      8      26.0622      0.00000
      9      27.2490      0.00000
     10      30.8979      0.00000
     11      36.3041      0.00000
     12      40.9191      0.00000
     13      43.2978      0.00000
     14      43.8019      0.00000
     15      44.2736      0.00000
     16      46.4724      0.00000
     17      50.0128      0.00000
     18      52.8374      0.00000
     19      58.7296      0.00000
     20      59.1004      0.00000
     21      59.6570      0.00000
     22      61.5604      0.00000
     23      63.4004      0.00000
     24      63.5784      0.00000
     25      65.4557      0.00000
     26      66.5949      0.00000
     27      66.8357      0.00000
     28      70.6271      0.00000
     29      70.9293      0.00000
     30      71.7207      0.00000
     31      72.6640      0.00000
     32      76.5828      0.00000
     33      77.3501      0.00000
     34      78.9017      0.00000
     35      81.4745      0.00000
     36      81.8232      0.00000
     37      83.7545      0.00000
     38      84.7323      0.00000
     39      87.4541      0.00000
     40      88.8184      0.00000

 k-point    11 :       0.4545    0.0909    0.0000
  band No.  band energies     occupation 
      1       1.8382      1.00000
      2       5.7661      1.04480
      3      17.1542      0.00000
      4      17.1788      0.00000
      5      18.8473      0.00000
      6      22.1442      0.00000
      7      24.6690      0.00000
      8      25.3484      0.00000
      9      29.5123      0.00000
     10      32.7999      0.00000
     11      39.1324      0.00000
     12      39.1741      0.00000
     13      40.7149      0.00000
     14      47.2604      0.00000
     15      47.5397      0.00000
     16      49.0085      0.00000
     17      49.9442      0.00000
     18      54.8998      0.00000
     19      56.6244      0.00000
     20      58.3459      0.00000
     21      58.9325      0.00000
     22      59.0111      0.00000
     23      61.5935      0.00000
     24      62.5073      0.00000
     25      64.4113      0.00000
     26      65.2948      0.00000
     27      65.8243      0.00000
     28      66.9615      0.00000
     29      69.1832      0.00000
     30      70.8075      0.00000
     31      72.2965      0.00000
     32      75.1226      0.00000
     33      76.3805      0.00000
     34      78.8948      0.00000
     35      81.4895      0.00000
     36      81.6317      0.00000
     37      82.8592      0.00000
     38      84.1151      0.00000
     39      89.0273      0.00000
     40      89.1261      0.00000

 k-point    12 :      -0.4545    0.0909    0.0000
  band No.  band energies     occupation 
      1       3.2651      1.00000
      2       4.0777      1.00000
      3      16.2949      0.00000
      4      17.7614      0.00000
      5      19.4767      0.00000
      6      21.3195      0.00000
      7      24.2825      0.00000
      8      25.4917      0.00000
      9      31.7963      0.00000
     10      31.9647      0.00000
     11      38.0556      0.00000
     12      39.8176      0.00000
     13      40.5690      0.00000
     14      46.4746      0.00000
     15      49.6039      0.00000
     16      51.0142      0.00000
     17      51.5810      0.00000
     18      55.1713      0.00000
     19      55.8744      0.00000
     20      56.4687      0.00000
     21      58.5897      0.00000
     22      59.4171      0.00000
     23      61.0016      0.00000
     24      61.7703      0.00000
     25      63.2060      0.00000
     26      65.0443      0.00000
     27      66.1969      0.00000
     28      66.5033      0.00000
     29      68.9007      0.00000
     30      70.9125      0.00000
     31      72.5118      0.00000
     32      74.7510      0.00000
     33      76.5527      0.00000
     34      79.0232      0.00000
     35      81.5906      0.00000
     36      81.6262      0.00000
     37      82.2342      0.00000
     38      83.8786      0.00000
     39      89.2286      0.00000
     40      89.3543      0.00000

 k-point    13 :      -0.3636    0.0909    0.0000
  band No.  band energies     occupation 
      1       1.1878      1.00000
      2       6.6760      1.01007
      3      15.8284      0.00000
      4      18.7212      0.00000
      5      20.4857      0.00000
      6      20.8667      0.00000
      7      23.7447      0.00000
      8      26.4349      0.00000
      9      29.2742      0.00000
     10      31.3627      0.00000
     11      38.1434      0.00000
     12      39.3729      0.00000
     13      42.8626      0.00000
     14      45.3458      0.00000
     15      46.7037      0.00000
     16      48.9041      0.00000
     17      49.5455      0.00000
     18      54.1310      0.00000
     19      57.8253      0.00000
     20      58.3797      0.00000
     21      58.9550      0.00000
     22      60.5512      0.00000
     23      61.1544      0.00000
     24      62.9510      0.00000
     25      64.0062      0.00000
     26      65.5553      0.00000
     27      66.2958      0.00000
     28      68.7961      0.00000
     29      70.2373      0.00000
     30      70.2963      0.00000
     31      71.7292      0.00000
     32      75.5314      0.00000
     33      76.6670      0.00000
     34      79.6846      0.00000
     35      80.9036      0.00000
     36      81.8940      0.00000
     37      83.0484      0.00000
     38      83.9601      0.00000
     39      88.3275      0.00000
     40      88.6303      0.00000

 k-point    14 :      -0.2727    0.0909    0.0000
  band No.  band energies     occupation 
      1      -0.4884      1.00000
      2       9.6486     -0.05768
      3      15.7624      0.00000
      4      20.0261      0.00000
      5      20.8116      0.00000
      6      21.8585      0.00000
      7      23.5309      0.00000
      8      26.5516      0.00000
      9      27.4209      0.00000
     10      29.3912      0.00000
     11      35.4143      0.00000
     12      39.8280      0.00000
     13      42.3012      0.00000
     14      43.9050      0.00000
     15      44.0297      0.00000
     16      48.1582      0.00000
     17      49.0229      0.00000
     18      52.6051      0.00000
     19      58.5879      0.00000
     20      59.1914      0.00000
     21      61.0674      0.00000
     22      61.8929      0.00000
     23      63.6197      0.00000
     24      64.2165      0.00000
     25      64.2705      0.00000
     26      66.8747      0.00000
     27      68.5454      0.00000
     28      70.7797      0.00000
     29      71.0465      0.00000
     30      72.8584      0.00000
     31      75.2702      0.00000
     32      76.5349      0.00000
     33      77.8066      0.00000
     34      79.7542      0.00000
     35      79.9103      0.00000
     36      83.1865      0.00000
     37      84.5128      0.00000
     38      84.8425      0.00000
     39      86.2529      0.00000
     40      86.9763      0.00000

 k-point    15 :      -0.1818    0.0909    0.0000
  band No.  band energies     occupation 
      1      -1.7399      1.00000
      2      12.9316      0.00000
      3      16.1111      0.00000
      4      20.9568      0.00000
      5      21.7770      0.00000
      6      23.4539      0.00000
      7      23.6344      0.00000
      8      24.2300      0.00000
      9      26.3353      0.00000
     10      29.6446      0.00000
     11      32.1842      0.00000
     12      36.0763      0.00000
     13      38.4538      0.00000
     14      40.5090      0.00000
     15      46.0119      0.00000
     16      47.7908      0.00000
     17      52.0977      0.00000
     18      55.1032      0.00000
     19      58.4455      0.00000
     20      58.6261      0.00000
     21      61.0426      0.00000
     22      63.4718      0.00000
     23      63.7886      0.00000
     24      64.8388      0.00000
     25      67.4808      0.00000
     26      68.9073      0.00000
     27      70.0134      0.00000
     28      71.4361      0.00000
     29      74.5805      0.00000
     30      75.1680      0.00000
     31      77.0431      0.00000
     32      78.4835      0.00000
     33      79.2753      0.00000
     34      79.4739      0.00000
     35      82.9133      0.00000
     36      83.3869      0.00000
     37      84.8953      0.00000
     38      85.5224      0.00000
     39      87.1397      0.00000
     40      87.1516      0.00000

 k-point    16 :      -0.0909    0.0909    0.0000
  band No.  band energies     occupation 
      1      -2.5555      1.00000
      2      16.1537      0.00000
      3      17.1517      0.00000
      4      21.1657      0.00000
      5      22.2994      0.00000
      6      23.3819      0.00000
      7      24.1516      0.00000
      8      24.5063      0.00000
      9      25.5164      0.00000
     10      28.8349      0.00000
     11      30.3030      0.00000
     12      33.2850      0.00000
     13      35.6438      0.00000
     14      36.9959      0.00000
     15      43.4236      0.00000
     16      52.4843      0.00000
     17      55.9329      0.00000
     18      57.7647      0.00000
     19      58.8308      0.00000
     20      59.1795      0.00000
     21      60.9373      0.00000
     22      63.9127      0.00000
     23      64.2164      0.00000
     24      65.2332      0.00000
     25      69.2546      0.00000
     26      69.7692      0.00000
     27      70.0375      0.00000
     28      72.6929      0.00000
     29      74.0584      0.00000
     30      74.4128      0.00000
     31      80.8269      0.00000
     32      80.8525      0.00000
     33      81.1006      0.00000
     34      82.0639      0.00000
     35      82.6667      0.00000
     36      86.3685      0.00000
     37      87.0140      0.00000
     38      87.0360      0.00000
     39      87.8482      0.00000
     40      90.0716      0.00000

 k-point    17 :       0.1818    0.1818    0.0000
  band No.  band energies     occupation 
      1      -1.9619      1.00000
      2      16.6374      0.00000
      3      16.6374      0.00000
      4      16.7884      0.00000
      5      19.6006      0.00000
      6      19.9659      0.00000
      7      27.5549      0.00000
      8      27.5549      0.00000
      9      28.4823      0.00000
     10      30.5610      0.00000
     11      32.5390      0.00000
     12      34.0063      0.00000
     13      34.0063      0.00000
     14      38.8164      0.00000
     15      46.6488      0.00000
     16      52.1941      0.00000
     17      52.1941      0.00000
     18      52.5587      0.00000
     19      57.2985      0.00000
     20      60.2885      0.00000
     21      60.5983      0.00000
     22      63.8873      0.00000
     23      63.8873      0.00000
     24      65.0770      0.00000
     25      67.4018      0.00000
     26      71.3695      0.00000
     27      71.3695      0.00000
     28      72.7117      0.00000
     29      72.7117      0.00000
     30      76.3640      0.00000
     31      76.5639      0.00000
     32      78.4695      0.00000
     33      78.7256      0.00000
     34      78.7256      0.00000
     35      82.7015      0.00000
     36      84.3411      0.00000
     37      87.5009      0.00000
[...]
     10      34.5710      0.00000
     11      38.4607      0.00000
     12      39.6439      0.00000
     13      45.2288      0.00000
     14      46.8978      0.00000
     15      48.6523      0.00000
     16      50.1015      0.00000
     17      52.2918      0.00000
     18      53.0469      0.00000
     19      54.3222      0.00000
     20      56.0079      0.00000
     21      56.9507      0.00000
     22      58.4709      0.00000
     23      59.2599      0.00000
     24      59.6640      0.00000
     25      62.8342      0.00000
     26      63.0557      0.00000
     27      63.5970      0.00000
     28      66.4556      0.00000
     29      67.5389      0.00000
     30      68.7543      0.00000
     31      71.4379      0.00000
     32      72.2105      0.00000
     33      75.1892      0.00000
     34      79.9157      0.00000
     35      80.5662      0.00000
     36      83.6587      0.00000
     37      84.2640      0.00000
     38      87.2153      0.00000
     39      90.5241      0.00000
     40      91.5909      0.00000

 k-point    51 :      -0.4545    0.4545    0.0909
  band No.  band energies     occupation 
      1       4.3439      1.00000
      2       7.7378      0.63938
      3      10.6747      0.00000
      4      12.0800      0.00000
      5      16.7611      0.00000
      6      19.0024      0.00000
      7      30.7563      0.00000
      8      32.8092      0.00000
      9      34.6482      0.00000
     10      39.3541      0.00000
     11      41.4513      0.00000
     12      41.4772      0.00000
     13      42.3274      0.00000
     14      44.0985      0.00000
     15      45.0046      0.00000
     16      47.8420      0.00000
     17      48.9847      0.00000
     18      50.1552      0.00000
     19      50.6560      0.00000
     20      53.6763      0.00000
     21      55.2428      0.00000
     22      55.4736      0.00000
     23      59.7958      0.00000
     24      60.9108      0.00000
     25      64.5552      0.00000
     26      64.9061      0.00000
     27      65.6844      0.00000
     28      69.0217      0.00000
     29      69.7363      0.00000
     30      71.8346      0.00000
     31      73.0400      0.00000
     32      77.1891      0.00000
     33      78.2129      0.00000
     34      79.1238      0.00000
     35      80.1490      0.00000
     36      82.8024      0.00000
     37      83.8651      0.00000
     38      84.4916      0.00000
     39      87.3149      0.00000
     40      88.3423      0.00000

 k-point    52 :      -0.3636    0.4545    0.0909
  band No.  band energies     occupation 
      1       5.7231      1.00000
      2       7.0545      1.06139
      3       8.5730     -0.00101
      4      11.9395      0.00000
      5      17.8706      0.00000
      6      21.3558      0.00000
      7      29.6126      0.00000
      8      30.1566      0.00000
      9      34.1942      0.00000
     10      38.4713      0.00000
     11      41.7666      0.00000
     12      42.5709      0.00000
     13      42.9383      0.00000
     14      44.1516      0.00000
     15      46.1503      0.00000
     16      46.7754      0.00000
     17      49.6903      0.00000
     18      51.9170      0.00000
     19      53.8568      0.00000
     20      53.9158      0.00000
     21      55.3978      0.00000
     22      56.2979      0.00000
     23      58.3956      0.00000
     24      60.4791      0.00000
     25      62.9784      0.00000
     26      64.9919      0.00000
     27      66.0220      0.00000
     28      66.2507      0.00000
     29      68.4468      0.00000
     30      70.4909      0.00000
     31      72.7429      0.00000
     32      73.9304      0.00000
     33      74.7828      0.00000
     34      79.3121      0.00000
     35      80.7060      0.00000
     36      83.6019      0.00000
     37      84.2893      0.00000
     38      86.1660      0.00000
     39      88.9381      0.00000
     40      89.3156      0.00000

 k-point    53 :      -0.4545    0.3636    0.1818
  band No.  band energies     occupation 
      1       2.6973      1.00000
      2       9.0203      0.05361
      3      10.4601      0.00000
      4      12.2053      0.00000
      5      21.1364      0.00000
      6      22.6624      0.00000
      7      24.3054      0.00000
      8      31.3916      0.00000
      9      32.0276      0.00000
     10      35.1750      0.00000
     11      37.7608      0.00000
     12      39.2578      0.00000
     13      44.6003      0.00000
     14      45.1667      0.00000
     15      47.7033      0.00000
     16      47.7124      0.00000
     17      51.2348      0.00000
     18      52.7779      0.00000
     19      54.1772      0.00000
     20      56.0749      0.00000
     21      57.1731      0.00000
     22      57.9577      0.00000
     23      61.4267      0.00000
     24      62.6500      0.00000
     25      64.3118      0.00000
     26      64.4948      0.00000
     27      65.5002      0.00000
     28      66.6859      0.00000
     29      68.1562      0.00000
     30      68.2574      0.00000
     31      70.4127      0.00000
     32      70.9308      0.00000
     33      77.1106      0.00000
     34      79.6479      0.00000
     35      80.2437      0.00000
     36      85.6091      0.00000
     37      87.4490      0.00000
     38      88.9314      0.00000
     39      89.8981      0.00000
     40      90.6906      0.00000

 k-point    54 :      -0.3636    0.3636    0.1818
  band No.  band energies     occupation 
      1       4.6026      1.00000
      2       6.8735      1.01463
      3      10.1991      0.00000
      4      11.1121      0.00000
      5      22.0654      0.00000
      6      22.9671      0.00000
      7      25.3176      0.00000
      8      28.6727      0.00000
      9      32.9496      0.00000
     10      35.6063      0.00000
     11      39.4167      0.00000
     12      41.5384      0.00000
     13      42.6836      0.00000
     14      45.7952      0.00000
     15      47.6868      0.00000
     16      49.6673      0.00000
     17      51.9581      0.00000
     18      52.5108      0.00000
     19      54.9253      0.00000
     20      55.7512      0.00000
     21      57.5222      0.00000
     22      58.1096      0.00000
     23      58.9689      0.00000
     24      61.4117      0.00000
     25      63.7502      0.00000
     26      64.0247      0.00000
     27      64.7335      0.00000
     28      65.4013      0.00000
     29      67.0149      0.00000
     30      67.7687      0.00000
     31      69.2302      0.00000
     32      71.3420      0.00000
     33      74.0154      0.00000
     34      78.1756      0.00000
     35      82.7440      0.00000
     36      86.5109      0.00000
     37      87.6883      0.00000
     38      88.4056      0.00000
     39      90.4478      0.00000
     40      91.1260      0.00000

 k-point    55 :      -0.3636    0.4545    0.1818
  band No.  band energies     occupation 
      1       5.1847      1.00000
      2       8.4699      0.48843
      3       8.5247      0.00000
      4      10.0734      0.00000
      5      20.6081      0.00000
      6      22.3175      0.00000
      7      26.3978      0.00000
      8      29.2598      0.00000
      9      34.6574      0.00000
     10      38.8736      0.00000
     11      41.3876      0.00000
     12      41.4902      0.00000
     13      43.0090      0.00000
     14      43.2015      0.00000
     15      45.7405      0.00000
     16      47.7148      0.00000
     17      50.8399      0.00000
     18      52.7925      0.00000
     19      53.9355      0.00000
     20      55.8415      0.00000
     21      56.7683      0.00000
     22      58.3269      0.00000
     23      59.4153      0.00000
     24      60.4004      0.00000
     25      62.9701      0.00000
     26      64.0535      0.00000
     27      64.3826      0.00000
     28      65.9741      0.00000
     29      66.6350      0.00000
     30      68.4068      0.00000
     31      69.3946      0.00000
     32      72.5833      0.00000
     33      75.8601      0.00000
     34      79.4542      0.00000
     35      79.6853      0.00000
     36      83.7251      0.00000
     37      88.2482      0.00000
     38      88.8020      0.00000
     39      89.9928      0.00000
     40      92.1063      0.00000

 k-point    56 :      -0.2727    0.4545    0.1818
  band No.  band energies     occupation 
      1       6.5658      1.00000
      2       6.8203      1.02391
      3       8.2271      0.00000
      4      10.1071      0.00000
      5      21.8558      0.00000
      6      24.6942      0.00000
      7      24.9430      0.00000
      8      26.8421      0.00000
      9      34.4888      0.00000
     10      38.5633      0.00000
     11      41.4985      0.00000
     12      41.7664      0.00000
     13      42.9476      0.00000
     14      44.2911      0.00000
     15      45.1320      0.00000
     16      46.7550      0.00000
     17      52.3255      0.00000
     18      53.3682      0.00000
     19      56.4834      0.00000
     20      57.0904      0.00000
     21      58.3068      0.00000
     22      58.4937      0.00000
     23      58.9853      0.00000
     24      60.2705      0.00000
     25      60.5507      0.00000
     26      61.5654      0.00000
     27      63.8183      0.00000
     28      65.0327      0.00000
     29      66.5456      0.00000
     30      67.2537      0.00000
     31      69.1213      0.00000
     32      73.2883      0.00000
     33      73.8666      0.00000
     34      79.2867      0.00000
     35      79.6906      0.00000
     36      83.7141      0.00000
     37      88.8398      0.00000
     38      89.2754      0.00000
     39      91.5388      0.00000
     40      93.5262      0.00000


--------------------------------------------------------------------------------------------------------


 soft charge-density along one line, spin component           1
         0         1         2         3         4         5         6         7         8         9
 total charge-density along one line

 soft charge-density along one line, spin component           2
         0         1         2         3         4         5         6         7         8         9
 total charge-density along one line

 pseudopotential strength for first ion, spin component:           1
  8.446  14.394  -0.000   0.000  -0.000  -0.000   0.000  -0.000
 14.394  24.532  -0.000   0.000  -0.000  -0.000   0.000  -0.000
 -0.000  -0.000   1.988   0.000   0.000   5.730   0.000   0.000
  0.000   0.000   0.000   1.988   0.000   0.000   5.730   0.000
 -0.000  -0.000   0.000   0.000   1.988   0.000   0.000   5.730
 -0.000  -0.000   5.730   0.000   0.000  16.436   0.000   0.000
  0.000   0.000   0.000   5.730   0.000   0.000  16.436   0.000
 -0.000  -0.000   0.000   0.000   5.730   0.000   0.000  16.436
 pseudopotential strength for first ion, spin component:           2
  8.446  14.395  -0.000   0.000  -0.000  -0.000   0.000  -0.000
 14.395  24.533  -0.000   0.000  -0.000  -0.000   0.000  -0.000
 -0.000  -0.000   1.988   0.000   0.000   5.731   0.000   0.000
  0.000   0.000   0.000   1.988   0.000   0.000   5.731   0.000
 -0.000  -0.000   0.000   0.000   1.988   0.000   0.000   5.731
 -0.000  -0.000   5.731   0.000   0.000  16.437   0.000   0.000
  0.000   0.000   0.000   5.731   0.000   0.000  16.437   0.000
 -0.000  -0.000   0.000   0.000   5.731   0.000   0.000  16.437
 total augmentation occupancy for first ion, spin component:           1
  3.419  -0.853   0.000   0.000   0.000   0.000   0.000   0.000
 -0.853   0.276   0.000   0.000   0.000   0.000   0.000   0.000
  0.000   0.000   1.191   0.000  -0.000  -0.089  -0.000   0.000
  0.000   0.000  -0.000   1.191  -0.000   0.000  -0.089   0.000
  0.000   0.000  -0.000  -0.000   1.191  -0.000  -0.000  -0.089
  0.000   0.000  -0.089  -0.000  -0.000   0.007  -0.000   0.000
  0.000   0.000  -0.000  -0.089   0.000  -0.000   0.007   0.000
  0.000   0.000   0.000   0.000  -0.089   0.000   0.000   0.007
 total augmentation occupancy for first ion, spin component:           2
 -0.006   0.002   0.000   0.000   0.000   0.000   0.000   0.000
  0.002  -0.001   0.000   0.000   0.000   0.000   0.000   0.000
  0.000   0.000  -0.001   0.000   0.000   0.000   0.000   0.000
  0.000   0.000   0.000  -0.001   0.000   0.000   0.000   0.000
  0.000   0.000   0.000   0.000  -0.001   0.000   0.000   0.000
  0.000   0.000   0.000   0.000   0.000  -0.000   0.000   0.000
  0.000   0.000   0.000   0.000   0.000   0.000  -0.000   0.000
  0.000   0.000   0.000   0.000   0.000   0.000   0.000  -0.000


------------------------ aborting loop because EDIFF is reached ----------------------------------------





 total charge

# of ion       s       p       d       tot
------------------------------------------
    1        0.425   0.344   0.000   0.769



 magnetization (x)

# of ion       s       p       d       tot
------------------------------------------
    1        0.000   0.000   0.000   0.000

    CHARGE:  cpu time    0.0105: real time    0.0105
    FORLOC:  cpu time    0.0002: real time    0.0002
    FORNL :  cpu time    0.0078: real time    0.0078
    STRESS:  cpu time    0.0684: real time    0.0685
    FORCOR:  cpu time    0.0029: real time    0.0029
    FORHAR:  cpu time    0.0005: real time    0.0006
    MIXING:  cpu time    0.0007: real time    0.0007
    OFIELD:  cpu time    0.0000: real time    0.0000

  FORCE on cell =-STRESS in cart. coord.  units (eV):
  Direction    XX          YY          ZZ          XY          YZ          ZX
  --------------------------------------------------------------------------------------
  Alpha Z    -0.20255    -0.20255    -0.20255
  Ewald     -24.46432   -24.46432   -24.46432    -0.00000    -0.00000     0.00000
  Hartree     0.03561     0.03561     0.03561     0.00000     0.00000     0.00000
  E(xc)      -8.55173    -8.55173    -8.55173     0.00000     0.00000     0.00000
  Local       0.33352     0.33352     0.33352    -0.00000    -0.00000    -0.00000
  n-local    18.88675    18.50322    18.99601     0.45926    -0.57190     0.49767
  augment    -1.00445    -1.00445    -1.00445     0.00000     0.00000     0.00000
  Kinetic    12.27470    10.92237    21.68663    -9.43705     8.22806    -6.13320
  Fock        0.00000     0.00000     0.00000     0.00000     0.00000     0.00000
  -------------------------------------------------------------------------------------
  Total      -0.09734    -0.09734    -0.09734    -0.00000     0.00000     0.00000
  in kB      -9.40471    -9.40471    -9.40471    -0.00000     0.00000     0.00000
  external pressure =       -9.40 kB  Pullay stress =        0.00 kB


 VOLUME and BASIS-vectors are now :
 -----------------------------------------------------------------------------
  energy-cutoff  :      300.00
  volume of cell :       16.58
      direct lattice vectors                 reciprocal lattice vectors
     0.000000000  2.024000000  2.024000000    -0.247035573  0.247035573  0.247035573
     2.024000000  0.000000000  2.024000000     0.247035573 -0.247035573  0.247035573
     2.024000000  2.024000000  0.000000000     0.247035573  0.247035573 -0.247035573

  length of vectors
     2.862368250  2.862368250  2.862368250     0.427878164  0.427878164  0.427878164


 FORCES acting on ions
    electron-ion (+dipol)            ewald-force                    non-local-force                 convergence-correction
 -----------------------------------------------------------------------------------------------
   0.000E+00 0.000E+00 0.000E+00   0.817E-16 0.470E-16 -.229E-15   0.000E+00 -.420E-25 0.162E-25   0.000E+00 0.000E+00 0.000E+00
 -----------------------------------------------------------------------------------------------
   0.000E+00 0.000E+00 0.000E+00   0.817E-16 0.470E-16 -.229E-15   0.000E+00 -.420E-25 0.162E-25   0.000E+00 0.000E+00 0.000E+00


 POSITION                                       TOTAL-FORCE (eV/Angst)
 -----------------------------------------------------------------------------------
      0.00000      0.00000      0.00000        -0.000000      0.000000      0.000000
 -----------------------------------------------------------------------------------
    total drift:                                0.000000      0.000000     -0.000000


--------------------------------------------------------------------------------------------------------



  FREE ENERGIE OF THE ION-ELECTRON SYSTEM (eV)
  ---------------------------------------------------
  free  energy   TOTEN  =        -3.74205021 eV

  energy  without entropy=       -3.74205021  energy(sigma->0) =       -3.74205021



--------------------------------------------------------------------------------------------------------


    POTLOK:  cpu time    0.2151: real time    0.2151


--------------------------------------------------------------------------------------------------------


 stress matrix after NEB project (eV)
     -0.09734      0.00000      0.00000
     -0.00000     -0.09734      0.00000
      0.00000      0.00000     -0.09734
  FORCES: max atom, RMS     0.000000    0.000000
  FORCE total and by dimension    0.000000    0.000000
  Stress total and by dimension    0.168600    0.097341
     LOOP+:  cpu time  148.6633: real time  151.5505
 -----------------------------------------------------------------------------
|                                                                             |
|           W    W    AA    RRRRR   N    N  II  N    N   GGGG   !!!           |
|           W    W   A  A   R    R  NN   N  II  NN   N  G    G  !!!           |
|           W    W  A    A  R    R  N N  N  II  N N  N  G       !!!           |
|           W WW W  AAAAAA  RRRRR   N  N N  II  N  N N  G  GGG   !            |
|           WW  WW  A    A  R   R   N   NN  II  N   NN  G    G                |
|           W    W  A    A  R    R  N    N  II  N    N   GGGG   !!!           |
|                                                                             |
|     Tetrahedron method does not include variations of the Fermi             |
|     occupations, so forces and stress will be inaccurate. We suggest        |
|     using a different smearing scheme ISMEAR = 1 or 2 for metals in         |
|     relaxations.                                                            |
|                                                                             |
 -----------------------------------------------------------------------------

    4ORBIT:  cpu time    0.0000: real time    0.0000



 total charge

# of ion       s       p       d       tot
------------------------------------------
    1        0.425   0.344   0.000   0.769



 magnetization (x)

# of ion       s       p       d       tot
------------------------------------------
    1        0.000   0.000   0.000   0.000

 BZINTS: Fermi energy:    8.006687;    3.000000 electrons
         Band energy: 0.106199E+02;  BLOECHL correction:   -0.119173

 total amount of memory used by VASP MPI-rank0    31846. kBytes
=======================================================================

   base      :      30000. kBytes
   nonl-proj :        864. kBytes
   fftplans  :         62. kBytes
   grid      :        413. kBytes
   one-center:          6. kBytes
   wavefun   :        501. kBytes

  
  
 General timing and accounting informations for this job:
 ========================================================
  
                  Total CPU time used (sec):      150.435
                            User time (sec):      149.512
                          System time (sec):        0.923
                         Elapsed time (sec):      153.120
  
                   Maximum memory used (kb):       40860.
                   Average memory used (kb):          N/A
  
                          Minor page faults:        23062
                          Major page faults:          275
                 Voluntary context switches:         1346
