    1    1    1    2
  0.1658294E+02  0.2862368E-09  0.2862368E-09  0.2862368E-09  0.5000000E-15
   1.0000000000000000E-004
  CAR 
 unknown system                          
      3     56     48

  0.1262379E-14  0.1262379E-14  0.1262379E-14  0.7513148E-03
    1       -3.160076     -3.142250   1.000000   1.000000
    2       20.541331     20.558137   0.000000   0.000000
    3       20.541332     20.558137   0.000000   0.000000
    4       20.541332     20.558138   0.000000   0.000000
    5       21.981238     22.011361   0.000000   0.000000
    6       21.981239     22.011361   0.000000   0.000000
    7       21.981239     22.011376   0.000000   0.000000
    8       24.381359     24.374803   0.000000   0.000000
    9       27.327598     27.352661   0.000000   0.000000
   10       27.327598     27.352661   0.000000   0.000000
   11       30.152319     30.164119   0.000000   0.000000
   12       32.507989     32.522123   0.000000   0.000000
   13       32.507993     32.522123   0.000000   0.000000
   14       32.507993     32.522132   0.000000   0.000000
   15       41.086963     41.084944   0.000000   0.000000
   16       56.825113     56.898516   0.000000   0.000000
   17       58.261863     58.304416   0.000000   0.000000
   18       58.261878     58.304416   0.000000   0.000000
   19       58.261878     58.304433   0.000000   0.000000
   20       59.294828     59.299951   0.000000   0.000000
   21       59.294831     59.299952   0.000000   0.000000
   22       59.294831     59.299952   0.000000   0.000000
   23       62.902751     62.914942   0.000000   0.000000
   24       62.902751     62.914942   0.000000   0.000000
   25       65.089141     65.117776   0.000000   0.000000
   26       65.089150     65.117785   0.000000   0.000000
   27       65.089150     65.117785   0.000000   0.000000
   28       73.584371     73.594900   0.000000   0.000000
   29       73.584375     73.594900   0.000000   0.000000
   30       73.584375     73.594911   0.000000   0.000000
   31       80.874230     80.881022   0.000000   0.000000
   32       83.242036     83.264004   0.000000   0.000000
   33       83.242036     83.264004   0.000000   0.000000
   34       87.307497     87.314431   0.000000   0.000000
   35       87.307498     87.314438   0.000000   0.000000
   36       87.307503     87.314440   0.000000   0.000000
   37       90.180571     90.197136   0.000000   0.000000
   38       90.180571     90.197140   0.000000   0.000000
   39       90.180572     90.197140   0.000000   0.000000
   40       90.994299     90.998530   0.000000   0.000000
   41       93.490190     93.507230   0.000000   0.000000
   42       93.490198     93.507242   0.000000   0.000000
   43       93.490198     93.507242   0.000000   0.000000
   44       93.942615     93.976960   0.000000   0.000000
   45       93.942615     93.976965   0.000000   0.000000
   46       93.942620     93.976965   0.000000   0.000000
   47       96.380431     96.390996   0.000000   0.000000
   48       96.380431     96.390998   0.000000   0.000000

  0.9090909E-01  0.1262062E-14  0.1262062E-14  0.6010518E-02
    1       -2.936240     -2.918409   1.000000   1.000000
    2       17.614902     17.633103   0.000000   0.000000
    3       19.890050     19.910522   0.000000   0.000000
    4       19.890051     19.910526   0.000000   0.000000
    5       22.663660     22.681833   0.000000   0.000000
    6       22.971419     22.998112   0.000000   0.000000
    7       22.971420     22.998123   0.000000   0.000000
    8       26.211164     26.234266   0.000000   0.000000
    9       26.211164     26.234267   0.000000   0.000000
   10       26.472861     26.475617   0.000000   0.000000
   11       29.401548     29.414563   0.000000   0.000000
   12       33.600694     33.613598   0.000000   0.000000
   13       34.082591     34.098388   0.000000   0.000000
   14       34.082594     34.098394   0.000000   0.000000
   15       41.962138     41.961420   0.000000   0.000000
   16       56.463658     56.479521   0.000000   0.000000
   17       56.463665     56.479526   0.000000   0.000000
   18       56.554079     56.613549   0.000000   0.000000
   19       57.437036     57.473259   0.000000   0.000000
   20       58.613856     58.652901   0.000000   0.000000
   21       58.613868     58.652916   0.000000   0.000000
   22       60.051631     60.077626   0.000000   0.000000
   23       61.653642     61.665755   0.000000   0.000000
   24       61.653652     61.665757   0.000000   0.000000
   25       65.289787     65.318486   0.000000   0.000000
   26       69.007287     69.029184   0.000000   0.000000
   27       69.007287     69.029191   0.000000   0.000000
   28       71.842705     71.851552   0.000000   0.000000
   29       73.339261     73.349129   0.000000   0.000000
   30       73.339265     73.349136   0.000000   0.000000
   31       81.968359     81.989404   0.000000   0.000000
   32       81.968361     81.989408   0.000000   0.000000
   33       82.389982     82.397046   0.000000   0.000000
   34       84.232222     84.242528   0.000000   0.000000
   35       85.886299     85.895653   0.000000   0.000000
   36       85.886301     85.895655   0.000000   0.000000
   37       88.046201     88.068046   0.000000   0.000000
   38       88.046206     88.068049   0.000000   0.000000
   39       89.024632     89.049757   0.000000   0.000000
   40       90.176642     90.187430   0.000000   0.000000
   41       91.342622     91.356397   0.000000   0.000000
   42       91.342627     91.356398   0.000000   0.000000
   43       92.963328     92.972412   0.000000   0.000000
   44       94.818588     94.826697   0.000000   0.000000
   45       95.678300     95.690800   0.000000   0.000000
   46       95.678301     95.690805   0.000000   0.000000
   47       97.144060     97.167467   0.000000   0.000000
   48       97.144064     97.167471   0.000000   0.000000

  0.1818182E+00  0.1266963E-14  0.1266963E-14  0.6010518E-02
    1       -2.266776     -2.248930   1.000000   1.000000
    2       13.969212     13.987045   0.000000   0.000000
    3       19.155386     19.177377   0.000000   0.000000
    4       19.155386     19.177382   0.000000   0.000000
    5       22.434951     22.448425   0.000000   0.000000
    6       23.800569     23.825719   0.000000   0.000000
    7       23.800572     23.825726   0.000000   0.000000
    8       25.319679     25.341573   0.000000   0.000000
    9       25.319679     25.341579   0.000000   0.000000
   10       27.888293     27.901136   0.000000   0.000000
   11       29.987199     29.992642   0.000000   0.000000
   12       36.435328     36.448573   0.000000   0.000000
   13       37.249621     37.266421   0.000000   0.000000
   14       37.249624     37.266426   0.000000   0.000000
   15       44.201533     44.202969   0.000000   0.000000
   16       51.819929     51.836382   0.000000   0.000000
   17       51.819933     51.836387   0.000000   0.000000
   18       54.657110     54.685193   0.000000   0.000000
   19       57.610880     57.665314   0.000000   0.000000
   20       58.820944     58.863535   0.000000   0.000000
   21       58.820956     58.863550   0.000000   0.000000
   22       61.692579     61.733314   0.000000   0.000000
   23       61.806904     61.816488   0.000000   0.000000
   24       61.806915     61.816492   0.000000   0.000000
   25       65.880595     65.909512   0.000000   0.000000
   26       69.047438     69.052687   0.000000   0.000000
   27       71.319809     71.335493   0.000000   0.000000
   28       71.319809     71.335497   0.000000   0.000000
   29       74.154869     74.171410   0.000000   0.000000
   30       74.154880     74.171423   0.000000   0.000000
   31       78.929000     78.941994   0.000000   0.000000
   32       79.078083     79.094942   0.000000   0.000000
   33       79.078086     79.094945   0.000000   0.000000
   34       82.874414     82.885308   0.000000   0.000000
   35       82.874421     82.885308   0.000000   0.000000
   36       84.835605     84.860618   0.000000   0.000000
   37       85.710539     85.718971   0.000000   0.000000
   38       86.743572     86.762240   0.000000   0.000000
   39       86.743574     86.762244   0.000000   0.000000
   40       87.709663     87.717272   0.000000   0.000000
   41       89.555995     89.567548   0.000000   0.000000
   42       90.075412     90.094488   0.000000   0.000000
   43       90.075420     90.094494   0.000000   0.000000
   44       94.127456     94.133261   0.000000   0.000000
   45       97.370034     97.385049   0.000000   0.000000
   46       97.370035     97.385049   0.000000   0.000000
   47       99.586570     99.598676   0.000000   0.000000
   48       99.586574     99.598681   0.000000   0.000000

  0.2727273E+00  0.1237835E-14  0.1237835E-14  0.6010518E-02
    1       -1.157992     -1.140132   1.000000   1.000000
    2       10.542243     10.560046  -0.016732  -0.015755
    3       18.745260     18.767879   0.000000   0.000000
    4       18.745260     18.767883   0.000000   0.000000
    5       22.223571     22.235313   0.000000   0.000000
    6       22.253772     22.276986   0.000000   0.000000
    7       22.253773     22.276991   0.000000   0.000000
    8       26.242942     26.255011   0.000000   0.000000
    9       27.368582     27.391294   0.000000   0.000000
   10       27.368583     27.391302   0.000000   0.000000
   11       33.317892     33.323896   0.000000   0.000000
   12       40.539951     40.553191   0.000000   0.000000
   13       40.872600     40.889649   0.000000   0.000000
   14       40.872602     40.889651   0.000000   0.000000
   15       47.127516     47.131205   0.000000   0.000000
   16       47.416233     47.433480   0.000000   0.000000
   17       47.416236     47.433485   0.000000   0.000000
   18       52.213770     52.232860   0.000000   0.000000
   19       57.580009     57.639930   0.000000   0.000000
   20       58.585800     58.629458   0.000000   0.000000
   21       58.585810     58.629470   0.000000   0.000000
   22       60.682950     60.721220   0.000000   0.000000
   23       62.259297     62.267875   0.000000   0.000000
   24       62.259305     62.267880   0.000000   0.000000
   25       66.818104     66.847450   0.000000   0.000000
   26       66.941857     66.952965   0.000000   0.000000
   27       67.896180     67.914139   0.000000   0.000000
   28       67.896184     67.914142   0.000000   0.000000
   29       74.642373     74.657442   0.000000   0.000000
   30       74.642383     74.657455   0.000000   0.000000
   31       75.787103     75.805391   0.000000   0.000000
   32       78.396118     78.400641   0.000000   0.000000
   33       79.244619     79.256567   0.000000   0.000000
   34       79.244625     79.256572   0.000000   0.000000
   35       80.138810     80.150843   0.000000   0.000000
   36       80.138831     80.150852   0.000000   0.000000
   37       81.190525     81.215093   0.000000   0.000000
   38       88.250038     88.266929   0.000000   0.000000
   39       88.250040     88.266935   0.000000   0.000000
   40       88.801187     88.811201   0.000000   0.000000
   41       89.555798     89.577954   0.000000   0.000000
   42       89.555805     89.577977   0.000000   0.000000
   43       91.240241     91.246097   0.000000   0.000000
   44       93.387212     93.396329   0.000000   0.000000
   45       97.617310     97.634412   0.000000   0.000000
   46       97.617300     97.634457   0.000000   0.000000
   47      101.649659    101.667825   0.000000   0.000000
   48      102.633364    102.645642   0.000000   0.000000

  0.3636364E+00  0.1236297E-14  0.1236297E-14  0.6010518E-02
    1        0.380214      0.398075   1.000000   1.000000
    2        7.438997      7.456850   0.715245   0.707771
    3       18.700700     18.723662   0.000000   0.000000
    4       18.700701     18.723665   0.000000   0.000000
    5       20.823068     20.845921   0.000000   0.000000
    6       20.823069     20.845925   0.000000   0.000000
    7       22.294962     22.305818   0.000000   0.000000
    8       24.756713     24.768170   0.000000   0.000000
    9       29.904171     29.926795   0.000000   0.000000
   10       29.904172     29.926803   0.000000   0.000000
   11       36.446770     36.453809   0.000000   0.000000
   12       41.925296     41.943185   0.000000   0.000000
   13       41.925298     41.943186   0.000000   0.000000
   14       45.117676     45.127802   0.000000   0.000000
   15       46.475454     46.491703   0.000000   0.000000
   16       46.475456     46.491703   0.000000   0.000000
   17       48.415104     48.425477   0.000000   0.000000
   18       51.942629     51.956491   0.000000   0.000000
   19       57.560230     57.621050   0.000000   0.000000
   20       58.381687     58.407402   0.000000   0.000000
   21       58.421035     58.463148   0.000000   0.000000
   22       58.421049     58.463154   0.000000   0.000000
   23       61.494611     61.510189   0.000000   0.000000
   24       61.494613     61.510192   0.000000   0.000000
   25       64.456679     64.471561   0.000000   0.000000
   26       64.456681     64.471564   0.000000   0.000000
   27       65.248293     65.275435   0.000000   0.000000
   28       67.982767     68.012928   0.000000   0.000000
   29       69.730264     69.741514   0.000000   0.000000
   30       73.966718     73.977276   0.000000   0.000000
   31       73.966735     73.977282   0.000000   0.000000
   32       76.690186     76.700442   0.000000   0.000000
   33       76.994390     77.007292   0.000000   0.000000
   34       76.994392     77.007292   0.000000   0.000000
   35       78.224765     78.248524   0.000000   0.000000
   36       80.837110     80.849372   0.000000   0.000000
   37       80.837123     80.849392   0.000000   0.000000
   38       88.601031     88.611786   0.000000   0.000000
   39       89.184999     89.206918   0.000000   0.000000
   40       89.185013     89.206940   0.000000   0.000000
   41       90.544993     90.550898   0.000000   0.000000
   42       92.142683     92.157944   0.000000   0.000000
   43       92.142658     92.157951   0.000000   0.000000
   44       94.534444     94.546941   0.000000   0.000000
   45       99.101870     99.123435   0.000000   0.000000
   46       99.101930     99.123471   0.000000   0.000000
   47      102.402111    102.421012   0.000000   0.000000
   48      104.351472    104.365968   0.000000   0.000000

  0.4545455E+00  0.1248969E-14  0.1248969E-14  0.6010518E-02
    1        2.333143      2.350941   1.000000   1.000000
    2        4.699524      4.717477   1.000000   1.000000
    3       19.030621     19.054025   0.000000   0.000000
    4       19.030622     19.054031   0.000000   0.000000
    5       19.744725     19.767157   0.000000   0.000000
    6       19.744727     19.767161   0.000000   0.000000
    7       22.732358     22.742534   0.000000   0.000000
    8       23.569896     23.581338   0.000000   0.000000
    9       32.246361     32.269385   0.000000   0.000000
   10       32.246364     32.269395   0.000000   0.000000
   11       39.018972     39.027522   0.000000   0.000000
   12       39.235632     39.253228   0.000000   0.000000
   13       39.235634     39.253234   0.000000   0.000000
   14       45.847707     45.852641   0.000000   0.000000
   15       49.791097     49.803381   0.000000   0.000000
   16       50.385070     50.398638   0.000000   0.000000
   17       50.385071     50.398639   0.000000   0.000000
   18       55.292429     55.315045   0.000000   0.000000
   19       55.980822     56.009668   0.000000   0.000000
   20       56.483742     56.507472   0.000000   0.000000
   21       56.483744     56.507476   0.000000   0.000000
   22       58.151989     58.196130   0.000000   0.000000
   23       59.978007     60.019513   0.000000   0.000000
   24       59.978021     60.019536   0.000000   0.000000
   25       62.532592     62.550449   0.000000   0.000000
   26       64.350100     64.359752   0.000000   0.000000
   27       64.350109     64.359753   0.000000   0.000000
   28       64.971843     64.998790   0.000000   0.000000
   29       68.997720     69.029112   0.000000   0.000000
   30       73.665021     73.673533   0.000000   0.000000
   31       73.665022     73.673534   0.000000   0.000000
   32       75.550768     75.564556   0.000000   0.000000
   33       75.550770     75.564556   0.000000   0.000000
   34       76.329384     76.351980   0.000000   0.000000
   35       77.089304     77.100832   0.000000   0.000000
   36       81.143104     81.156012   0.000000   0.000000
   37       81.143118     81.156038   0.000000   0.000000
   38       88.670460     88.682234   0.000000   0.000000
   39       88.948095     88.969579   0.000000   0.000000
   40       88.948104     88.969587   0.000000   0.000000
   41       89.278505     89.284990   0.000000   0.000000
   42       94.428979     94.444140   0.000000   0.000000
   43       95.340468     95.355020   0.000000   0.000000
   44       95.340476     95.355031   0.000000   0.000000
   45      101.490345    101.511998   0.000000   0.000000
   46      101.490362    101.512034   0.000000   0.000000
   47      105.253758    105.270503   0.000000   0.000000
   48      105.253771    105.270522   0.000000   0.000000

  0.9090909E-01  0.9090909E-01  0.1262379E-14  0.4507889E-02
    1       -2.861701     -2.843869   1.000000   1.000000
    2       18.625450     18.647274   0.000000   0.000000
    3       18.625450     18.647278   0.000000   0.000000
    4       18.933168     18.944186   0.000000   0.000000
    5       21.314885     21.343760   0.000000   0.000000
    6       24.291665     24.312836   0.000000   0.000000
    7       24.329658     24.354895   0.000000   0.000000
    8       24.329659     24.354902   0.000000   0.000000
    9       26.585928     26.585164   0.000000   0.000000
   10       27.603928     27.629034   0.000000   0.000000
   11       30.589862     30.604216   0.000000   0.000000
   12       32.853766     32.867692   0.000000   0.000000
   13       32.853768     32.867697   0.000000   0.000000
   14       35.572163     35.586512   0.000000   0.000000
   15       42.399977     42.400358   0.000000   0.000000
   16       56.024638     56.039943   0.000000   0.000000
   17       56.024641     56.039944   0.000000   0.000000
   18       56.437057     56.503023   0.000000   0.000000
   19       57.891154     57.910884   0.000000   0.000000
   20       58.048288     58.094549   0.000000   0.000000
   21       58.940891     58.979341   0.000000   0.000000
   22       58.940898     58.979359   0.000000   0.000000
   23       59.491696     59.496645   0.000000   0.000000
   24       63.012249     63.029110   0.000000   0.000000
   25       67.540052     67.564025   0.000000   0.000000
   26       67.540059     67.564029   0.000000   0.000000
   27       70.487920     70.507821   0.000000   0.000000
   28       70.564379     70.574664   0.000000   0.000000
   29       73.763655     73.771392   0.000000   0.000000
   30       73.763658     73.771399   0.000000   0.000000
   31       80.733698     80.750877   0.000000   0.000000
   32       82.719035     82.741870   0.000000   0.000000
   33       82.760234     82.777555   0.000000   0.000000
   34       82.760236     82.777556   0.000000   0.000000
   35       83.491600     83.500146   0.000000   0.000000
   36       84.313096     84.323312   0.000000   0.000000
   37       88.770112     88.775051   0.000000   0.000000
   38       90.135889     90.151464   0.000000   0.000000
   39       90.135894     90.151472   0.000000   0.000000
   40       90.186826     90.204663   0.000000   0.000000
   41       90.186831     90.204667   0.000000   0.000000
   42       92.135120     92.161897   0.000000   0.000000
   43       93.285014     93.302388   0.000000   0.000000
   44       94.486262     94.491856   0.000000   0.000000
   45       94.836604     94.853918   0.000000   0.000000
   46       97.789380     97.805420   0.000000   0.000000
   47       97.834241     97.840992   0.000000   0.000000
   48       97.834348     97.841001   0.000000   0.000000

  0.1818182E+00  0.9090909E-01  0.1261396E-14  0.1803156E-01
    1       -2.340999     -2.323156   1.000000   1.000000
    2       15.291616     15.309160   0.000000   0.000000
    3       17.699001     17.721425   0.000000   0.000000
    4       19.044492     19.060834   0.000000   0.000000
    5       21.654886     21.682673   0.000000   0.000000
    6       22.279467     22.298583   0.000000   0.000000
    7       24.713883     24.732602   0.000000   0.000000
    8       25.735048     25.760428   0.000000   0.000000
    9       27.084542     27.107270   0.000000   0.000000
   10       29.506496     29.514242   0.000000   0.000000
   11       29.950371     29.962207   0.000000   0.000000
   12       34.731296     34.746754   0.000000   0.000000
   13       35.038140     35.052223   0.000000   0.000000
   14       37.885646     37.899440   0.000000   0.000000
   15       44.473750     44.476874   0.000000   0.000000
   16       51.838753     51.855247   0.000000   0.000000
   17       53.064217     53.079882   0.000000   0.000000
   18       56.377843     56.439088   0.000000   0.000000
   19       57.000674     57.026285   0.000000   0.000000
   20       57.328039     57.348832   0.000000   0.000000
   21       58.948322     58.982401   0.000000   0.000000
   22       59.205729     59.243976   0.000000   0.000000
   23       60.913906     60.948648   0.000000   0.000000
   24       62.720900     62.740597   0.000000   0.000000
   25       67.601369     67.615171   0.000000   0.000000
   26       68.532235     68.555372   0.000000   0.000000
   27       71.514871     71.530055   0.000000   0.000000
   28       72.764466     72.773455   0.000000   0.000000
   29       72.770596     72.782146   0.000000   0.000000
   30       75.057354     75.069489   0.000000   0.000000
   31       77.345481     77.363240   0.000000   0.000000
   32       78.486735     78.508698   0.000000   0.000000
   33       80.789843     80.803020   0.000000   0.000000
   34       81.814019     81.829217   0.000000   0.000000
   35       82.584243     82.604330   0.000000   0.000000
   36       84.144376     84.154083   0.000000   0.000000
   37       86.328558     86.349816   0.000000   0.000000
   38       86.349047     86.359515   0.000000   0.000000
   39       89.194037     89.204523   0.000000   0.000000
   40       89.350620     89.368979   0.000000   0.000000
   41       90.008874     90.023429   0.000000   0.000000
   42       91.432574     91.443857   0.000000   0.000000
   43       93.779674     93.802989   0.000000   0.000000
   44       94.542853     94.555095   0.000000   0.000000
   45       94.586501     94.596354   0.000000   0.000000
   46       96.208421     96.218156   0.000000   0.000000
   47       97.045500     97.059293   0.000000   0.000000
   48       97.766540     97.780161   0.000000   0.000000

  0.2727273E+00  0.9090909E-01  0.1266963E-14  0.1803156E-01
    1       -1.379067     -1.361210   1.000000   1.000000
    2       11.814756     11.832401   0.000000   0.000000
    3       17.142421     17.165184   0.000000   0.000000
    4       18.703198     18.720611   0.000000   0.000000
    5       20.010540     20.032607   0.000000   0.000000
    6       23.789510     23.812714   0.000000   0.000000
    7       24.650837     24.666789   0.000000   0.000000
    8       24.759393     24.783126   0.000000   0.000000
    9       28.254080     28.267469   0.000000   0.000000
   10       28.552306     28.575089   0.000000   0.000000
   11       33.063339     33.070127   0.000000   0.000000
   12       38.100785     38.117268   0.000000   0.000000
   13       39.038389     39.052590   0.000000   0.000000
   14       40.908106     40.921837   0.000000   0.000000
   15       47.180199     47.197636   0.000000   0.000000
   16       47.417743     47.423244   0.000000   0.000000
   17       49.154372     49.169991   0.000000   0.000000
   18       54.208473     54.233970   0.000000   0.000000
   19       56.830500     56.882589   0.000000   0.000000
   20       57.897352     57.919045   0.000000   0.000000
   21       59.046279     59.085389   0.000000   0.000000
   22       59.695775     59.732532   0.000000   0.000000
   23       60.943393     60.981715   0.000000   0.000000
   24       62.947789     62.965937   0.000000   0.000000
   25       65.382427     65.400268   0.000000   0.000000
   26       68.899057     68.920667   0.000000   0.000000
   27       68.958340     68.967038   0.000000   0.000000
   28       71.638633     71.648859   0.000000   0.000000
   29       72.121373     72.136773   0.000000   0.000000
   30       73.823302     73.845504   0.000000   0.000000
   31       77.239493     77.253499   0.000000   0.000000
   32       77.422250     77.438673   0.000000   0.000000
   33       78.661872     78.677278   0.000000   0.000000
   34       80.732877     80.742549   0.000000   0.000000
   35       81.140634     81.156074   0.000000   0.000000
   36       81.549157     81.562798   0.000000   0.000000
   37       82.716450     82.726786   0.000000   0.000000
   38       86.836176     86.857983   0.000000   0.000000
   39       86.883668     86.899594   0.000000   0.000000
   40       87.115110     87.132763   0.000000   0.000000
   41       91.248627     91.258744   0.000000   0.000000
   42       92.547704     92.557598   0.000000   0.000000
   43       92.681287     92.703099   0.000000   0.000000
   44       94.315353     94.329919   0.000000   0.000000
   45       94.554956     94.566611   0.000000   0.000000
   46       97.339732     97.351566   0.000000   0.000000
   47       99.942530     99.958399   0.000000   0.000000
   48      100.917059    100.931451   0.000000   0.000000

  0.3636364E+00  0.9090909E-01  0.1237502E-14  0.1803156E-01
    1        0.015341      0.033201   1.000000   1.000000
    2        8.613387      8.631149   0.201049   0.193174
    3       16.962979     16.985944   0.000000   0.000000
    4       18.363065     18.381465   0.000000   0.000000
    5       18.612201     18.633257   0.000000   0.000000
    6       23.299006     23.322113   0.000000   0.000000
    7       24.392860     24.410248   0.000000   0.000000
    8       26.045824     26.062064   0.000000   0.000000
    9       27.223497     27.240378   0.000000   0.000000
   10       30.876124     30.898930   0.000000   0.000000
   11       36.289877     36.297517   0.000000   0.000000
   12       40.894951     40.912117   0.000000   0.000000
   13       43.264709     43.280476   0.000000   0.000000
   14       43.768939     43.781091   0.000000   0.000000
   15       44.247747     44.264911   0.000000   0.000000
   16       46.428210     46.442500   0.000000   0.000000
   17       49.926643     49.935387   0.000000   0.000000
   18       52.570569     52.588830   0.000000   0.000000
   19       57.115284     57.170325   0.000000   0.000000
   20       58.589328     58.613060   0.000000   0.000000
   21       58.623419     58.647761   0.000000   0.000000
   22       59.280372     59.321310   0.000000   0.000000
   23       60.082661     60.116284   0.000000   0.000000
   24       62.740292     62.768248   0.000000   0.000000
   25       63.629209     63.646145   0.000000   0.000000
   26       65.717927     65.736277   0.000000   0.000000
   27       66.510679     66.531065   0.000000   0.000000
   28       70.553753     70.565526   0.000000   0.000000
   29       70.603165     70.616710   0.000000   0.000000
   30       71.494368     71.519382   0.000000   0.000000
   31       72.622734     72.634784   0.000000   0.000000
   32       76.287082     76.302620   0.000000   0.000000
   33       77.249585     77.260775   0.000000   0.000000
   34       78.431448     78.441196   0.000000   0.000000
   35       80.986182     81.000783   0.000000   0.000000
   36       81.633767     81.643886   0.000000   0.000000
   37       83.548829     83.568611   0.000000   0.000000
   38       84.661695     84.678681   0.000000   0.000000
   39       87.365889     87.378069   0.000000   0.000000
   40       88.764020     88.783806   0.000000   0.000000
   41       92.742277     92.752442   0.000000   0.000000
   42       93.723687     93.738405   0.000000   0.000000
   43       93.827078     93.843417   0.000000   0.000000
   44       94.763894     94.780084   0.000000   0.000000
   45       96.266565     96.286726   0.000000   0.000000
   46       98.440242     98.456791   0.000000   0.000000
   47      101.248843    101.261401   0.000000   0.000000
   48      103.703184    103.718135   0.000000   0.000000

  0.4545455E+00  0.9090909E-01  0.1249509E-14  0.1803156E-01
    1        1.829422      1.847248   1.000000   1.000000
    2        5.756310      5.774187   1.043782   1.046155
    3       17.136264     17.156968   0.000000   0.000000
    4       17.162436     17.185536   0.000000   0.000000
    5       18.829301     18.848141   0.000000   0.000000
    6       22.118386     22.141247   0.000000   0.000000
    7       24.644624     24.662334   0.000000   0.000000
    8       25.333663     25.344317   0.000000   0.000000
    9       29.480903     29.502281   0.000000   0.000000
   10       32.760533     32.783856   0.000000   0.000000
   11       39.118095     39.127143   0.000000   0.000000
   12       39.158919     39.176230   0.000000   0.000000
   13       40.683912     40.700253   0.000000   0.000000
   14       47.198656     47.203662   0.000000   0.000000
   15       47.483434     47.499329   0.000000   0.000000
   16       48.874591     48.889606   0.000000   0.000000
   17       49.864840     49.877796   0.000000   0.000000
   18       54.612994     54.635516   0.000000   0.000000
   19       55.991020     56.015919   0.000000   0.000000
   20       57.134023     57.168397   0.000000   0.000000
   21       57.487513     57.530648   0.000000   0.000000
   22       58.678064     58.719195   0.000000   0.000000