<?xml version="1.0" encoding="ISO-8859-1"?>
<modeling>
 <generator>
  <i name="program" type="string">vasp </i>
  <i name="version" type="string">6.2.1  </i>
  <i name="subversion" type="string">16May21 (build Aug 15 2022 14:47:30) complex                          parallel </i>
  <i name="platform" type="string">LinuxGNU </i>
  <i name="date" type="string">2025 12 11 </i>
  <i name="time" type="string">13:43:16 </i>
 </generator>
 <incar>
  <i type="string" name="PREC">Accurate</i>
  <i type="string" name="ALGO">Fast</i>
  <i type="int" name="ISPIN">     2</i>
  <i type="int" name="NELM">   100</i>
  <i name="EDIFF">      0.00005000</i>
  <i type="int" name="NSW">     0</i>
  <i name="ENCUT">    350.00000000</i>
  <v name="MAGMOM">      0.60000000</v>
  <i type="logical" name="LREAL"> F  </i>
  <i type="int" name="ISMEAR">    -5</i>
  <i name="SIGMA">      0.05000000</i>
  <i type="logical" name="LWAVE"> F  </i>
  <i type="logical" name="LCHARG"> T  </i>
  <i type="int" name="LORBIT">    11</i>
  <i type="logical" name="LASPH"> T  </i>
 </incar>
 <primitive_cell>
  <structure name="primitive_cell" >
   <crystal>
    <varray name="basis" >
     <v>       0.00000000       2.02400000       2.02400000 </v>
     <v>       2.02400000       0.00000000       2.02400000 </v>
     <v>       2.02400000       2.02400000       0.00000000 </v>
    </varray>
    <i name="volume">     16.58293965 </i>
    <varray name="rec_basis" >
     <v>      -0.24703557       0.24703557       0.24703557 </v>
     <v>       0.24703557      -0.24703557       0.24703557 </v>
     <v>       0.24703557       0.24703557      -0.24703557 </v>
    </varray>
   </crystal>
   <varray name="positions" >
    <v>       0.00000000       0.00000000       0.00000000 </v>
   </varray>
  </structure>
  <varray name="primitive_index" >
   <v type="int" >        1 </v>
  </varray>
 </primitive_cell>
 <kpoints>
  <generation param="Gamma">
   <v type="int" name="divisions">      11       11       11 </v>
   <v name="usershift">      0.00000000       0.00000000       0.00000000 </v>
   <v name="genvec1">      0.09090909       0.00000000       0.00000000 </v>
   <v name="genvec2">      0.00000000       0.09090909       0.00000000 </v>
   <v name="genvec3">      0.00000000       0.00000000       0.09090909 </v>
   <v name="shift">      0.00000000       0.00000000       0.00000000 </v>
  </generation>
  <varray name="kpointlist" >
   <v>       0.00000000       0.00000000       0.00000000 </v>
   <v>       0.09090909       0.00000000       0.00000000 </v>
   <v>       0.18181818       0.00000000       0.00000000 </v>
   <v>       0.27272727       0.00000000       0.00000000 </v>
   <v>       0.36363636       0.00000000       0.00000000 </v>
   <v>       0.45454545       0.00000000       0.00000000 </v>
   <v>       0.09090909       0.09090909       0.00000000 </v>
   <v>       0.18181818       0.09090909       0.00000000 </v>
   <v>       0.27272727       0.09090909       0.00000000 </v>
   <v>       0.36363636       0.09090909       0.00000000 </v>
   <v>       0.45454545       0.09090909       0.00000000 </v>
   <v>      -0.45454545       0.09090909       0.00000000 </v>
   <v>      -0.36363636       0.09090909       0.00000000 </v>
   <v>      -0.27272727       0.09090909       0.00000000 </v>
   <v>      -0.18181818       0.09090909       0.00000000 </v>
   <v>      -0.09090909       0.09090909       0.00000000 </v>
   <v>       0.18181818       0.18181818       0.00000000 </v>
   <v>       0.27272727       0.18181818       0.00000000 </v>
   <v>       0.36363636       0.18181818       0.00000000 </v>
   <v>       0.45454545       0.18181818       0.00000000 </v>
   <v>      -0.45454545       0.18181818       0.00000000 </v>
   <v>      -0.36363636       0.18181818       0.00000000 </v>
   <v>      -0.27272727       0.18181818       0.00000000 </v>
   <v>      -0.18181818       0.18181818       0.00000000 </v>
   <v>       0.27272727       0.27272727       0.00000000 </v>
   <v>       0.36363636       0.27272727       0.00000000 </v>
   <v>       0.45454545       0.27272727       0.00000000 </v>
   <v>      -0.45454545       0.27272727       0.00000000 </v>
   <v>      -0.36363636       0.27272727       0.00000000 </v>
   <v>      -0.27272727       0.27272727       0.00000000 </v>
   <v>       0.36363636       0.36363636       0.00000000 </v>
   <v>       0.45454545       0.36363636       0.00000000 </v>
   <v>      -0.45454545       0.36363636       0.00000000 </v>
   <v>      -0.36363636       0.36363636       0.00000000 </v>
   <v>       0.45454545       0.45454545       0.00000000 </v>
   <v>      -0.45454545       0.45454545       0.00000000 </v>
   <v>       0.27272727       0.18181818       0.09090909 </v>
   <v>       0.36363636       0.18181818       0.09090909 </v>
   <v>       0.45454545       0.18181818       0.09090909 </v>
   <v>      -0.45454545       0.18181818       0.09090909 </v>
   <v>       0.36363636       0.27272727       0.09090909 </v>
   <v>       0.45454545       0.27272727       0.09090909 </v>
   <v>      -0.45454545       0.27272727       0.09090909 </v>
   <v>      -0.36363636       0.27272727       0.09090909 </v>
   <v>      -0.27272727       0.27272727       0.09090909 </v>
   <v>      -0.18181818       0.27272727       0.09090909 </v>
   <v>       0.45454545       0.36363636       0.09090909 </v>
   <v>      -0.45454545       0.36363636       0.09090909 </v>
   <v>      -0.36363636       0.36363636       0.09090909 </v>
   <v>      -0.27272727       0.36363636       0.09090909 </v>
   <v>      -0.45454545       0.45454545       0.09090909 </v>
   <v>      -0.36363636       0.45454545       0.09090909 </v>
   <v>      -0.45454545       0.36363636       0.18181818 </v>
   <v>      -0.36363636       0.36363636       0.18181818 </v>
   <v>      -0.36363636       0.45454545       0.18181818 </v>
   <v>      -0.27272727       0.45454545       0.18181818 </v>
  </varray>
  <varray name="weights" >
   <v>       0.00075131 </v>
   <v>       0.00601052 </v>
   <v>       0.00601052 </v>
   <v>       0.00601052 </v>
   <v>       0.00601052 </v>
   <v>       0.00601052 </v>
   <v>       0.00450789 </v>
   <v>       0.01803156 </v>
   <v>       0.01803156 </v>
   <v>       0.01803156 </v>
   <v>       0.01803156 </v>
   <v>       0.01803156 </v>
   <v>       0.01803156 </v>
   <v>       0.01803156 </v>
   <v>       0.01803156 </v>
   <v>       0.00901578 </v>
   <v>       0.00450789 </v>
   <v>       0.01803156 </v>
   <v>       0.01803156 </v>
   <v>       0.01803156 </v>
   <v>       0.01803156 </v>
   <v>       0.01803156 </v>
   <v>       0.01803156 </v>
   <v>       0.00901578 </v>
   <v>       0.00450789 </v>
   <v>       0.01803156 </v>
   <v>       0.01803156 </v>
   <v>       0.01803156 </v>
   <v>       0.01803156 </v>
   <v>       0.00901578 </v>
   <v>       0.00450789 </v>
   <v>       0.01803156 </v>
   <v>       0.01803156 </v>
   <v>       0.00901578 </v>
   <v>       0.00450789 </v>
   <v>       0.00901578 </v>
   <v>       0.01803156 </v>
   <v>       0.03606311 </v>
   <v>       0.03606311 </v>
   <v>       0.03606311 </v>
   <v>       0.01803156 </v>
   <v>       0.03606311 </v>
   <v>       0.03606311 </v>
   <v>       0.03606311 </v>
   <v>       0.03606311 </v>
   <v>       0.01803156 </v>
   <v>       0.01803156 </v>
   <v>       0.03606311 </v>
   <v>       0.03606311 </v>
   <v>       0.01803156 </v>
   <v>       0.01803156 </v>
   <v>       0.01803156 </v>
   <v>       0.01803156 </v>
   <v>       0.03606311 </v>
   <v>       0.01803156 </v>
   <v>       0.01803156 </v>
  </varray>
  <varray name="tetrahedronlist"  type="int" >
   <v type="int" >       24        1        2        2        7 </v>
   <v type="int" >       48        2        7        8       16 </v>
   <v type="int" >       48        2        3        8       16 </v>
   <v type="int" >       24        2        2        7       16 </v>
   <v type="int" >       48        3        8        9       15 </v>
   <v type="int" >       48        3        4        9       15 </v>
   <v type="int" >       48        3        8       15       16 </v>
   <v type="int" >       48        4        9       10       14 </v>
   <v type="int" >       48        4        5       10       14 </v>
   <v type="int" >       48        4        9       14       15 </v>
   <v type="int" >       48        5       10       11       13 </v>
   <v type="int" >       48        5        6       11       13 </v>
   <v type="int" >       48        5       10       13       14 </v>
   <v type="int" >       48        6       11       12       12 </v>
   <v type="int" >       24        6        6       12       12 </v>
   <v type="int" >       48        6       11       12       13 </v>
   <v type="int" >       24        7        8        8       17 </v>
   <v type="int" >       24        7        8        8       16 </v>
   <v type="int" >       48        8       17       18       37 </v>
   <v type="int" >       48        8        9       18       37 </v>
   <v type="int" >       48        8        9       15       37 </v>
   <v type="int" >       24        8        8       17       37 </v>
   <v type="int" >       24        8        8       16       37 </v>
   <v type="int" >       48        8       15       16       37 </v>
   <v type="int" >       48        9       18       19       38 </v>
   <v type="int" >       48        9       10       19       38 </v>
   <v type="int" >       48        9       10       14       38 </v>
   <v type="int" >       48        9       18       37       38 </v>
   <v type="int" >       48        9       15       37       38 </v>
   <v type="int" >       48        9       14       15       38 </v>
   <v type="int" >       48       10       19       20       39 </v>
   <v type="int" >       48       10       11       20       39 </v>
   <v type="int" >       48       10       11       13       39 </v>
   <v type="int" >       48       10       19       38       39 </v>
   <v type="int" >       48       10       14       38       39 </v>
   <v type="int" >       48       10       13       14       39 </v>
   <v type="int" >       48       11       20       21       40 </v>
   <v type="int" >       48       11       12       21       40 </v>
   <v type="int" >       48       11       12       12       40 </v>
   <v type="int" >       48       11       20       39       40 </v>
   <v type="int" >       48       11       13       39       40 </v>
   <v type="int" >       48       11       12       13       40 </v>
   <v type="int" >       48       12       21       22       40 </v>
   <v type="int" >       48       12       13       22       40 </v>
   <v type="int" >       48       12       21       40       40 </v>
   <v type="int" >       24       12       12       40       40 </v>
   <v type="int" >       48       13       22       23       39 </v>
   <v type="int" >       48       13       14       23       39 </v>
   <v type="int" >       48       13       22       39       40 </v>
   <v type="int" >       48       14       23       24       38 </v>
   <v type="int" >       48       14       15       24       38 </v>
   <v type="int" >       48       14       23       38       39 </v>
   <v type="int" >       24       15       15       24       37 </v>
   <v type="int" >       24       15       15       16       37 </v>
   <v type="int" >       48       15       24       37       38 </v>
   <v type="int" >       24       17       18       18       25 </v>
   <v type="int" >       24       17       18       18       37 </v>
   <v type="int" >       48       18       25       26       41 </v>
   <v type="int" >       48       18       19       26       41 </v>
   <v type="int" >       48       18       19       38       41 </v>
   <v type="int" >       24       18       18       25       41 </v>
   <v type="int" >       24       18       18       37       41 </v>
   <v type="int" >       48       18       37       38       41 </v>
   <v type="int" >       48       19       26       27       42 </v>
   <v type="int" >       48       19       20       27       42 </v>
   <v type="int" >       48       19       20       39       42 </v>
   <v type="int" >       48       19       26       41       42 </v>
   <v type="int" >       48       19       38       41       42 </v>
   <v type="int" >       48       19       38       39       42 </v>
   <v type="int" >       48       20       27       28       43 </v>
   <v type="int" >       48       20       21       28       43 </v>
   <v type="int" >       48       20       21       40       43 </v>
   <v type="int" >       48       20       27       42       43 </v>
   <v type="int" >       48       20       39       42       43 </v>
   <v type="int" >       48       20       39       40       43 </v>
   <v type="int" >       48       21       28       29       44 </v>
   <v type="int" >       48       21       22       29       44 </v>
   <v type="int" >       48       21       22       40       44 </v>
   <v type="int" >       48       21       28       43       44 </v>
   <v type="int" >       48       21       40       43       44 </v>
   <v type="int" >       48       21       40       40       44 </v>
   <v type="int" >       48       22       29       30       45 </v>
   <v type="int" >       48       22       23       30       45 </v>
   <v type="int" >       48       22       23       39       45 </v>
   <v type="int" >       48       22       29       44       45 </v>
   <v type="int" >       48       22       40       44       45 </v>
   <v type="int" >       48       22       39       40       45 </v>
   <v type="int" >       24       23       23       30       46 </v>
   <v type="int" >       24       23       23       24       46 </v>
   <v type="int" >       48       23       24       38       46 </v>
   <v type="int" >       48       23       30       45       46 </v>
   <v type="int" >       48       23       39       45       46 </v>
   <v type="int" >       48       23       38       39       46 </v>
   <v type="int" >       24       24       38       38       46 </v>
   <v type="int" >       24       24       37       38       38 </v>
   <v type="int" >       24       25       26       26       31 </v>
   <v type="int" >       24       25       26       26       41 </v>
   <v type="int" >       48       26       31       32       47 </v>
   <v type="int" >       48       26       27       32       47 </v>
   <v type="int" >       48       26       27       42       47 </v>
   <v type="int" >       24       26       26       31       47 </v>
   <v type="int" >       24       26       26       41       47 </v>
   <v type="int" >       48       26       41       42       47 </v>
   <v type="int" >       48       27       32       33       48 </v>
   <v type="int" >       48       27       28       33       48 </v>
   <v type="int" >       48       27       28       43       48 </v>
   <v type="int" >       48       27       32       47       48 </v>
   <v type="int" >       48       27       42       47       48 </v>
   <v type="int" >       48       27       42       43       48 </v>
   <v type="int" >       48       28       33       34       49 </v>
   <v type="int" >       48       28       29       34       49 </v>
   <v type="int" >       48       28       29       44       49 </v>
   <v type="int" >       48       28       33       48       49 </v>
   <v type="int" >       48       28       43       48       49 </v>
   <v type="int" >       48       28       43       44       49 </v>
   <v type="int" >       24       29       29       34       50 </v>
   <v type="int" >       24       29       29       30       50 </v>
   <v type="int" >       48       29       30       45       50 </v>
   <v type="int" >       48       29       34       49       50 </v>
   <v type="int" >       48       29       44       49       50 </v>
   <v type="int" >       48       29       44       45       50 </v>
   <v type="int" >       24       30       45       45       50 </v>
   <v type="int" >       24       30       45       45       46 </v>
   <v type="int" >       24       31       32       32       35 </v>
   <v type="int" >       24       31       32       32       47 </v>
   <v type="int" >       48       32       35       36       51 </v>
   <v type="int" >       48       32       33       36       51 </v>
   <v type="int" >       48       32       33       48       51 </v>
   <v type="int" >       24       32       32       35       51 </v>
   <v type="int" >       24       32       32       47       51 </v>
   <v type="int" >       48       32       47       48       51 </v>
   <v type="int" >       24       33       33       36       52 </v>
   <v type="int" >       24       33       33       34       52 </v>
   <v type="int" >       48       33       34       49       52 </v>
   <v type="int" >       48       33       36       51       52 </v>
   <v type="int" >       48       33       48       51       52 </v>
   <v type="int" >       48       33       48       49       52 </v>
   <v type="int" >       24       34       49       49       52 </v>
   <v type="int" >       24       34       49       49       50 </v>
   <v type="int" >       12       35       35       36       36 </v>
   <v type="int" >       24       35       36       36       51 </v>
   <v type="int" >       12       36       36       51       51 </v>
   <v type="int" >       24       36       51       51       52 </v>
   <v type="int" >       24       37       38       38       41 </v>
   <v type="int" >       48       38       41       42       46 </v>
   <v type="int" >       48       38       39       42       46 </v>
   <v type="int" >       24       38       38       41       46 </v>
   <v type="int" >       48       39       42       43       45 </v>
   <v type="int" >       48       39       40       43       45 </v>
   <v type="int" >       48       39       42       45       46 </v>
   <v type="int" >       48       40       43       44       44 </v>
   <v type="int" >       24       40       40       44       44 </v>
   <v type="int" >       48       40       43       44       45 </v>
   <v type="int" >       24       41       42       42       47 </v>
   <v type="int" >       24       41       42       42       46 </v>
   <v type="int" >       48       42       47       48       53 </v>
   <v type="int" >       48       42       43       48       53 </v>
   <v type="int" >       48       42       43       45       53 </v>
   <v type="int" >       24       42       42       47       53 </v>
   <v type="int" >       24       42       42       46       53 </v>
   <v type="int" >       48       42       45       46       53 </v>
   <v type="int" >       48       43       48       49       54 </v>
   <v type="int" >       48       43       44       49       54 </v>
   <v type="int" >       48       43       44       44       54 </v>
   <v type="int" >       48       43       48       53       54 </v>
   <v type="int" >       48       43       45       53       54 </v>
   <v type="int" >       48       43       44       45       54 </v>
   <v type="int" >       48       44       49       50       54 </v>
   <v type="int" >       48       44       45       50       54 </v>
   <v type="int" >       48       44       49       54       54 </v>
   <v type="int" >       24       44       44       54       54 </v>
   <v type="int" >       24       45       45       50       53 </v>
   <v type="int" >       24       45       45       46       53 </v>
   <v type="int" >       48       45       50       53       54 </v>
   <v type="int" >       24       47       48       48       51 </v>
   <v type="int" >       24       47       48       48       53 </v>
   <v type="int" >       48       48       51       52       55 </v>
   <v type="int" >       48       48       49       52       55 </v>
   <v type="int" >       48       48       49       54       55 </v>
   <v type="int" >       24       48       48       51       55 </v>
   <v type="int" >       24       48       48       53       55 </v>
   <v type="int" >       48       48       53       54       55 </v>
   <v type="int" >       24       49       49       52       56 </v>
   <v type="int" >       24       49       49       50       56 </v>
   <v type="int" >       48       49       50       54       56 </v>
   <v type="int" >       48       49       52       55       56 </v>
   <v type="int" >       48       49       54       55       56 </v>
   <v type="int" >       48       49       54       54       56 </v>
   <v type="int" >       24       50       54       54       56 </v>
   <v type="int" >       24       50       53       54       54 </v>
   <v type="int" >       12       51       51       52       52 </v>
   <v type="int" >       24       51       52       52       55 </v>
   <v type="int" >       12       52       52       55       55 </v>
   <v type="int" >       24       52       55       55       56 </v>
   <v type="int" >       24       53       54       54       55 </v>
   <v type="int" >       48       54       55       56       56 </v>
   <v type="int" >       24       54       54       56       56 </v>
   <v type="int" >       24       54       54       55       56 </v>
   <v type="int" >       12       55       55       56       56 </v>
   <v type="int" >       24       55       56       56       56 </v>
   <v type="int" >        6       56       56       56       56 </v>
  </varray>
  <i name="volumeweight">      0.00012522 </i>
 </kpoints>
 <parameters>
  <separator name="general" >
   <i type="string" name="SYSTEM">unknown system</i>
   <i type="logical" name="LCOMPAT"> F  </i>
  </separator>
  <separator name="electronic" >
   <i type="string" name="PREC">accura</i>
   <i name="ENMAX">    350.00000000</i>
   <i name="ENAUG">    291.05200000</i>
   <i name="EDIFF">      0.00005000</i>
   <i type="int" name="IALGO">    68</i>
   <i type="int" name="IWAVPR">    10</i>
   <i type="int" name="NBANDS">    48</i>
   <i type="int" name="NBANDSLOW">    -1</i>
   <i type="int" name="NBANDSHIGH">    -1</i>
   <i name="NELECT">      3.00000000</i>
   <i type="int" name="TURBO">     0</i>
   <i type="int" name="IRESTART">     0</i>
   <i type="int" name="NREBOOT">     0</i>
   <i type="int" name="NMIN">     0</i>
   <i name="EREF">      0.00000000</i>
   <separator name="electronic smearing" >
    <i type="int" name="ISMEAR">    -5</i>
    <i name="SIGMA">      0.05000000</i>
    <i name="KSPACING">      0.50000000</i>
    <i type="logical" name="KGAMMA"> T  </i>
    <i type="logical" name="KBLOWUP"> T  </i>
   </separator>
   <separator name="electronic projectors" >
    <i type="logical" name="LREAL"> F  </i>
    <v name="ROPT">      0.00000000</v>
    <i type="int" name="LMAXPAW">  -100</i>
    <i type="int" name="LMAXMIX">     2</i>
    <i type="logical" name="NLSPLINE"> F  </i>
   </separator>
   <separator name="electronic startup" >
    <i type="int" name="ISTART">     0</i>
    <i type="int" name="ICHARG">     2</i>
    <i type="int" name="INIWAV">     1</i>
   </separator>
   <separator name="electronic spin" >
    <i type="int" name="ISPIN">     2</i>
    <i type="logical" name="LNONCOLLINEAR"> F  </i>
    <v name="MAGMOM">      0.60000000</v>
    <i name="NUPDOWN">     -1.00000000</i>
    <i type="logical" name="LSORBIT"> F  </i>
    <v name="SAXIS">      0.00000000      0.00000000      1.00000000</v>
    <i type="logical" name="LSPIRAL"> F  </i>
    <v name="QSPIRAL">      0.00000000      0.00000000      0.00000000</v>
    <i type="logical" name="LZEROZ"> F  </i>
   </separator>
   <separator name="electronic exchange-correlation" >
    <i type="logical" name="LASPH"> T  </i>
    <i type="logical" name="LMETAGGA"> F  </i>
   </separator>
   <separator name="electronic convergence" >
    <i type="int" name="NELM">   100</i>
    <i type="int" name="NELMDL">    -5</i>
    <i type="int" name="NELMIN">     2</i>
    <i name="ENINI">    350.00000000</i>
    <separator name="electronic convergence detail" >
     <i type="logical" name="LDIAG"> T  </i>
     <i type="logical" name="LSUBROT"> F  </i>
     <i name="WEIMIN">      0.00000000</i>
     <i name="EBREAK">      0.00000026</i>
     <i name="DEPER">      0.30000000</i>
     <i type="int" name="NRMM">     4</i>
     <i name="TIME">      0.40000000</i>
    </separator>
   </separator>
   <separator name="electronic mixer" >
    <i name="AMIX">      0.40000000</i>
    <i name="BMIX">      1.00000000</i>
    <i name="AMIN">      0.10000000</i>
    <i name="AMIX_MAG">      1.60000000</i>
    <i name="BMIX_MAG">      1.00000000</i>
    <separator name="electronic mixer details" >
     <i type="int" name="IMIX">     4</i>
     <i type="logical" name="MIXFIRST"> F  </i>
     <i type="int" name="MAXMIX">   -45</i>
     <i name="WC">    100.00000000</i>
     <i type="int" name="INIMIX">     1</i>
     <i type="int" name="MIXPRE">     1</i>
     <i type="int" name="MREMOVE">     5</i>
    </separator>
   </separator>
   <separator name="electronic dipolcorrection" >
    <i type="logical" name="LDIPOL"> F  </i>
    <i type="logical" name="LMONO"> F  </i>
    <i type="int" name="IDIPOL">     0</i>
    <i name="EPSILON">      1.00000000</i>
    <v name="DIPOL">   -100.00000000   -100.00000000   -100.00000000</v>
    <i name="EFIELD">      0.00000000</i>
   </separator>
  </separator>
  <separator name="grids" >
   <i type="int" name="NGX">    18</i>
   <i type="int" name="NGY">    18</i>
   <i type="int" name="NGZ">    18</i>
   <i type="int" name="NGXF">    36</i>
   <i type="int" name="NGYF">    36</i>
   <i type="int" name="NGZF">    36</i>
   <i type="logical" name="ADDGRID"> F  </i>
  </separator>
  <separator name="ionic" >
   <i type="int" name="NSW">     0</i>
   <i type="int" name="IBRION">    -1</i>
   <i type="int" name="MDALGO">     0</i>
   <i type="int" name="ISIF">     2</i>
   <i name="PSTRESS">      0.00000000</i>
   <i name="EDIFFG">      0.00050000</i>
   <i type="int" name="NFREE">     0</i>
   <i name="POTIM">      0.50000000</i>
   <i name="SMASS">     -3.00000000</i>
   <i name="SCALEE">      1.00000000</i>
  </separator>
  <separator name="ionic md" >
   <i name="TEBEG">      0.00010000</i>
   <i name="TEEND">      0.00010000</i>
   <i type="int" name="NBLOCK">     1</i>
   <i type="int" name="KBLOCK">     1</i>
   <i type="int" name="NPACO">   256</i>
   <i name="APACO">     16.00000000</i>
  </separator>
  <separator name="symmetry" >
   <i type="int" name="ISYM">     2</i>
   <i name="SYMPREC">      0.00001000</i>
  </separator>
  <separator name="dos" >
   <i type="int" name="LORBIT">    11</i>
   <v name="RWIGS">     -1.00000000</v>
   <i type="int" name="NEDOS">   301</i>
   <i name="EMIN">     10.00000000</i>
   <i name="EMAX">    -10.00000000</i>
   <i name="EFERMI">      0.00000000</i>
  </separator>
  <separator name="writing" >
   <i type="int" name="NWRITE">     2</i>
   <i type="logical" name="LWAVE"> F  </i>
   <i type="logical" name="LDOWNSAMPLE"> F  </i>
   <i type="logical" name="LCHARG"> T  </i>
   <i type="logical" name="LPARD"> F  </i>
   <i type="logical" name="LVTOT"> F  </i>
   <i type="logical" name="LVHAR"> F  </i>
   <i type="logical" name="LELF"> F  </i>
   <i type="logical" name="LOPTICS"> F  </i>
   <v name="STM">      0.00000000      0.00000000      0.00000000      0.00000000      0.00000000      0.00000000      0.00000000</v>
  </separator>
  <separator name="performance" >
   <i type="int" name="NPAR">    48</i>
   <i type="int" name="NSIM">     4</i>
   <i type="int" name="NBLK">    -1</i>
   <i type="logical" name="LPLANE"> T  </i>
   <i type="logical" name="LSCALAPACK"> T  </i>
   <i type="logical" name="LSCAAWARE"> T  </i>
   <i type="logical" name="LSCALU"> F  </i>
   <i type="logical" name="LASYNC"> F  </i>
   <i type="logical" name="LORBITALREAL"> F  </i>
  </separator>
  <separator name="miscellaneous" >
   <i type="int" name="IDIOT">     3</i>
   <i type="int" name="PHON_NSTRUCT">    -1</i>
   <i type="logical" name="LMUSIC"> F  </i>
   <v name="POMASS">     26.98100000</v>
   <v name="DARWINR">      0.00000000</v>
   <v name="DARWINV">      1.00000000</v>
   <i type="logical" name="LCORR"> T  </i>
  </separator>
  <i type="logical" name="GGA_COMPAT"> T  </i>
  <i type="logical" name="LBERRY"> F  </i>
  <i type="int" name="ICORELEVEL">     0</i>
  <i type="logical" name="LDAU"> F  </i>
  <i type="int" name="I_CONSTRAINED_M">     0</i>
  <separator name="electronic exchange-correlation" >
   <i type="string" name="GGA">--</i>
   <i type="int" name="VOSKOWN">     0</i>
   <i type="logical" name="LHFCALC"> F  </i>
   <i type="string" name="PRECFOCK"></i>
   <i type="logical" name="LSYMGRAD"> F  </i>
   <i type="logical" name="LHFONE"> F  </i>
   <i type="logical" name="LRHFCALC"> F  </i>
   <i type="logical" name="LTHOMAS"> F  </i>
   <i type="logical" name="LMODELHF"> F  </i>
   <i type="logical" name="LFOCKACE"> F  </i>
   <i name="ENCUT4O">     -1.00000000</i>
   <i type="int" name="EXXOEP">     0</i>
   <i type="int" name="FOURORBIT">     0</i>
   <i name="AEXX">      0.00000000</i>
   <i name="HFALPHA">      0.00000000</i>
   <i name="MCALPHA">      0.00000000</i>
   <i name="ALDAX">      1.00000000</i>
   <i name="AGGAX">      1.00000000</i>
   <i name="ALDAC">      1.00000000</i>
   <i name="AGGAC">      1.00000000</i>
   <i type="int" name="NKREDX">     1</i>
   <i type="int" name="NKREDY">     1</i>
   <i type="int" name="NKREDZ">     1</i>
   <i type="logical" name="SHIFTRED"> F  </i>
   <i type="logical" name="ODDONLY"> F  </i>
   <i type="logical" name="EVENONLY"> F  </i>
   <i type="int" name="LMAXFOCK">     0</i>
   <i type="int" name="NMAXFOCKAE">     0</i>
   <i type="logical" name="LFOCKAEDFT"> F  </i>
   <i name="HFSCREEN">      0.00000000</i>
   <i name="HFSCREENC">      0.00000000</i>
   <i type="int" name="NBANDSGWLOW">     0</i>
  </separator>
  <separator name="vdW DFT" >
   <i type="logical" name="LUSE_VDW"> F  </i>
   <i name="Zab_VDW">     -0.84910000</i>
   <i name="PARAM1">      0.12340000</i>
   <i name="PARAM2">      1.00000000</i>
   <i name="PARAM3">      0.00000000</i>
  </separator>
  <separator name="model GW" >
   <i type="int" name="MODEL_GW">     0</i>
   <i name="MODEL_EPS0">      9.94976379</i>
   <i name="MODEL_ALPHA">      1.00000000</i>
  </separator>
  <separator name="linear response parameters" >
   <i type="logical" name="LEPSILON"> F  </i>
   <i type="logical" name="LRPA"> F  </i>
   <i type="logical" name="LNABLA"> F  </i>
   <i type="logical" name="LVEL"> F  </i>
   <i type="int" name="KINTER">     0</i>
   <i name="CSHIFT">      0.10000000</i>
   <i name="OMEGAMAX">     -1.00000000</i>
   <i name="DEG_THRESHOLD">      0.00200000</i>
   <i name="RTIME">     -0.10000000</i>
   <i name="WPLASMAI">      0.00000000</i>
   <v name="DFIELD">      0.00000000      0.00000000      0.00000000</v>
   <v name="WPLASMA">      0.00000000      0.00000000      0.00000000      0.00000000      0.00000000      0.00000000      0.00000000      0.00000000      0.00000000</v>
  </separator>
  <separator name="orbital magnetization" >
   <i type="logical" name="NUCIND"> F  </i>
   <v name="MAGPOS">      0.00000000      0.00000000      0.00000000</v>
   <i type="logical" name="LNICSALL"> T  </i>
   <i type="logical" name="ORBITALMAG"> F  </i>
   <i type="logical" name="LMAGBLOCH"> F  </i>
   <i type="logical" name="LCHIMAG"> F  </i>
   <i type="logical" name="LGAUGE"> T  </i>
   <i type="int" name="MAGATOM">     0</i>
   <v name="MAGDIPOL">      0.00000000      0.00000000      0.00000000</v>
   <v name="AVECCONST">      0.00000000      0.00000000      0.00000000</v>
  </separator>
  <separator name="response functions" >
   <i type="logical" name="LFINITE_TEMPERATURE"> F  </i>
   <i type="logical" name="LADDER"> F  </i>
   <i type="logical" name="LRPAFORCE"> F  </i>
   <i type="logical" name="LFXC"> F  </i>
   <i type="logical" name="LHARTREE"> T  </i>
   <i type="int" name="IBSE">     0</i>
   <v type="int" name="KPOINT">    -1     0     0     0</v>
   <i type="logical" name="LTCTC"> F  </i>
   <i type="logical" name="LTCTE"> F  </i>
   <i type="logical" name="LTETE"> F  </i>
   <i type="logical" name="LTRIPLET"> F  </i>
   <i type="logical" name="LFXCEPS"> F  </i>
   <i type="logical" name="LFXHEG"> F  </i>
   <i type="int" name="NATURALO">     2</i>
   <i type="logical" name="LHOLEGF"> F  </i>
   <i type="logical" name="L2ORDER"> F  </i>
   <i type="logical" name="LDMP1"> F  </i>
   <i type="logical" name="LMP2LT"> F  </i>
   <i type="logical" name="LSMP2LT"> F  </i>
   <i type="logical" name="LGWLF"> F  </i>
   <i name="ENCUTGW">     -2.00000000</i>
   <i name="ENCUTGWSOFT">     -2.00000000</i>
   <i name="ENCUTLF">     -1.00000000</i>
   <i type="logical" name="LESF_SPLINES"> F  </i>
   <i type="int" name="LMAXMP2">    -1</i>
   <i name="SCISSOR">      0.00000000</i>
   <i type="int" name="NOMEGA">     0</i>
   <i type="int" name="NOMEGAR">     0</i>
   <i type="int" name="NBANDSGW">    -1</i>
   <i type="int" name="NBANDSO">    -1</i>
   <i type="int" name="NBANDSV">    -1</i>
   <i type="int" name="NELM">   100</i>
   <i type="int" name="NELMHF">     1</i>
   <i type="int" name="DIM">     3</i>
   <i type="int" name="IESPILON">     4</i>
   <i type="int" name="ANTIRES">     0</i>
   <i name="OMEGAMAX">    -30.00000000</i>
   <i name="OMEGAMIN">    -30.00000000</i>
   <i name="OMEGATL">   -200.00000000</i>
   <i type="int" name="OMEGAGRID">     0</i>
   <i name="CSHIFT">     -0.10000000</i>
   <i type="logical" name="LSELFENERGY"> F  </i>
   <i type="logical" name="LSPECTRAL"> F  </i>
   <i type="logical" name="LSPECTRALGW"> F  </i>
   <i type="logical" name="LSINGLES"> F  </i>
   <i type="logical" name="LFERMIGW"> F  </i>
   <i type="logical" name="ODDONLYGW"> F  </i>
   <i type="logical" name="EVENONLYGW"> F  </i>
   <i type="int" name="NKREDLFX">     1</i>
   <i type="int" name="NKREDLFY">     1</i>
   <i type="int" name="NKREDLFZ">     1</i>
   <i type="int" name="MAXMEM">  2800</i>
   <i type="int" name="TELESCOPE">     0</i>
   <i type="int" name="NTAUPAR">    -1</i>
   <i type="int" name="NOMEGAPAR">    -1</i>
   <i name="DAMP_NEWTON">      0.80000001</i>
   <i name="LAMBDA">      1.00000000</i>
  </separator>
  <separator name="External order field" >
   <i name="OFIELD_KAPPA">      0.00000000</i>
   <v name="OFIELD_K">      0.00000000      0.00000000      0.00000000</v>
   <i name="OFIELD_Q6_NEAR">      0.00000000</i>
   <i name="OFIELD_Q6_FAR">      0.00000000</i>
   <i name="OFIELD_A">      0.00000000</i>
  </separator>
 </parameters>
 <atominfo>
  <atoms>       1 </atoms>
  <types>       1 </types>
  <array name="atoms" >
   <dimension dim="1">ion</dimension>
   <field type="string">element</field>
   <field type="int">atomtype</field>
   <set>
    <rc><c>Al</c><c>   1</c></rc>
   </set>
  </array>
  <array name="atomtypes" >
   <dimension dim="1">type</dimension>
   <field type="int">atomspertype</field>
   <field type="string">element</field>
   <field>mass</field>
   <field>valence</field>
   <field type="string">pseudopotential</field>
   <set>
    <rc><c>   1</c><c>Al</c><c>     26.98100000</c><c>      3.00000000</c><c>  PAW_PBE Al 04Jan2001                  </c></rc>
   </set>
  </array>
 </atominfo>
 <structure name="initialpos" >
  <crystal>
   <varray name="basis" >
    <v>       0.00000000       2.02400000       2.02400000 </v>
    <v>       2.02400000       0.00000000       2.02400000 </v>
    <v>       2.02400000       2.02400000       0.00000000 </v>
   </varray>
   <i name="volume">     16.58293965 </i>
   <varray name="rec_basis" >
    <v>      -0.24703557       0.24703557       0.24703557 </v>
    <v>       0.24703557      -0.24703557       0.24703557 </v>
    <v>       0.24703557       0.24703557      -0.24703557 </v>
   </varray>
  </crystal>
  <varray name="positions" >
   <v>       0.00000000       0.00000000       0.00000000 </v>
  </varray>
 </structure>
 <calculation>
  <scstep>
   <time name="dav">  115.72  115.72</time>
   <time name="total">  116.09  116.09</time>
   <energy>
    <i name="alphaZ">     -0.20254611 </i>
    <i name="ewald">    -73.39295237 </i>
    <i name="hartreedc">     -0.10329695 </i>
    <i name="XCdc">    -26.19545506 </i>
    <i name="pawpsdc">     66.16230985 </i>
    <i name="pawaedc">    -34.20858819 </i>
    <i name="eentropy">      0.00000000 </i>
    <i name="bandstr">     10.72768419 </i>
    <i name="atom">     53.53808135 </i>
    <i name="e_fr_energy">     -3.67476330 </i>
    <i name="e_wo_entrp">     -3.67476330 </i>
    <i name="e_0_energy">     -3.67476330 </i>
   </energy>
  </scstep>
  <scstep>
   <time name="dav">   28.30   43.09</time>
   <time name="total">   28.34   43.13</time>
   <energy>
    <i name="e_fr_energy">     -3.68151038 </i>
    <i name="e_wo_entrp">     -3.68151038 </i>
    <i name="e_0_energy">     -3.68151038 </i>
   </energy>
  </scstep>
  <scstep>
   <time name="dav">   36.34   50.82</time>
   <time name="total">   36.39   50.87</time>
   <energy>
    <i name="e_fr_energy">     -3.68151045 </i>
    <i name="e_wo_entrp">     -3.68151045 </i>
    <i name="e_0_energy">     -3.68151045 </i>
   </energy>
  </scstep>
  <scstep>
   <time name="dav">    5.32    5.76</time>
   <time name="total">    5.36    5.80</time>
   <energy>
    <i name="e_fr_energy">     -3.68151045 </i>
    <i name="e_wo_entrp">     -3.68151045 </i>
    <i name="e_0_energy">     -3.68151045 </i>
   </energy>
  </scstep>
  <scstep>
   <time name="dav">   12.06   12.06</time>
   <time name="total">   12.14   12.14</time>
   <energy>
    <i name="e_fr_energy">     -3.68151045 </i>
    <i name="e_wo_entrp">     -3.68151045 </i>
    <i name="e_0_energy">     -3.68151045 </i>
   </energy>
  </scstep>
  <scstep>
   <time name="diag">    0.36    0.36</time>
   <time name="diis">    0.14    0.14</time>
   <time name="orth">    0.05    0.05</time>
   <time name="total">    0.80    0.81</time>
   <energy>
    <i name="e_fr_energy">     -3.75321378 </i>
    <i name="e_wo_entrp">     -3.75321378 </i>
    <i name="e_0_energy">     -3.75321378 </i>
   </energy>
  </scstep>
  <scstep>
   <time name="diag">    0.36    0.36</time>
   <time name="diis">    0.17    0.17</time>
   <time name="orth">    0.05    0.05</time>
   <time name="total">    0.82    0.82</time>
   <energy>
    <i name="e_fr_energy">     -3.74477553 </i>
    <i name="e_wo_entrp">     -3.74477553 </i>
    <i name="e_0_energy">     -3.74477553 </i>
   </energy>
  </scstep>
  <scstep>
   <time name="diag">    0.36    0.36</time>
   <time name="diis">    0.18    0.18</time>
   <time name="orth">    0.05    0.05</time>
   <time name="total">    0.80    0.80</time>
   <energy>
    <i name="alphaZ">     -0.20254611 </i>
    <i name="ewald">    -73.39295237 </i>
    <i name="hartreedc">     -0.10223894 </i>
    <i name="XCdc">    -26.14637369 </i>
    <i name="pawpsdc">    147.64641876 </i>
    <i name="pawaedc">   -115.70103692 </i>
    <i name="eentropy">      0.00000000 </i>
    <i name="bandstr">     10.61590172 </i>
    <i name="atom">     53.53808135 </i>
    <i name="e_fr_energy">     -3.74474622 </i>
    <i name="e_wo_entrp">     -3.74474622 </i>
    <i name="e_0_energy">     -3.74474622 </i>
   </energy>
  </scstep>
  <structure>
   <crystal>
    <varray name="basis" >
     <v>       0.00000000       2.02400000       2.02400000 </v>
     <v>       2.02400000       0.00000000       2.02400000 </v>
     <v>       2.02400000       2.02400000       0.00000000 </v>
    </varray>
    <i name="volume">     16.58293965 </i>
    <varray name="rec_basis" >
     <v>      -0.24703557       0.24703557       0.24703557 </v>
     <v>       0.24703557      -0.24703557       0.24703557 </v>
     <v>       0.24703557       0.24703557      -0.24703557 </v>
    </varray>
   </crystal>
   <varray name="positions" >
    <v>       0.00000000       0.00000000       0.00000000 </v>
   </varray>
  </structure>
  <varray name="forces" >
   <v>       0.00000000       0.00000000       0.00000000 </v>
  </varray>
  <varray name="stress" >
   <v>     -10.52782782       0.00000000      -0.00000000 </v>
   <v>       0.00000000     -10.52782782       0.00000000 </v>
   <v>       0.00000000      -0.00000000     -10.52782782 </v>
  </varray>
  <energy>
   <i name="e_fr_energy">     -3.74474622 </i>
   <i name="e_wo_entrp">     -3.74474622 </i>
   <i name="e_0_energy">     -3.74474622 </i>
  </energy>
  <time name="totalsc">  201.26  230.98</time>
  <eigenvalues>
   <array>
    <dimension dim="1">band</dimension>
    <dimension dim="2">kpoint</dimension>
    <dimension dim="3">spin</dimension>
    <field>eigene</field>
    <field>occ</field>
    <set>
     <set comment="spin 1">
      <set comment="kpoint 1">
       <r>   -3.1601    1.0000 </r>
       <r>   20.5413    0.0000 </r>
       <r>   20.5413    0.0000 </r>
       <r>   20.5413    0.0000 </r>
       <r>   21.9812    0.0000 </r>
       <r>   21.9812    0.0000 </r>
       <r>   21.9812    0.0000 </r>
       <r>   24.3814    0.0000 </r>
       <r>   27.3276    0.0000 </r>
       <r>   27.3276    0.0000 </r>
       <r>   30.1523    0.0000 </r>
       <r>   32.5080    0.0000 </r>
       <r>   32.5080    0.0000 </r>
       <r>   32.5080    0.0000 </r>
       <r>   41.0870    0.0000 </r>
       <r>   56.8251    0.0000 </r>
       <r>   58.2619    0.0000 </r>
       <r>   58.2619    0.0000 </r>
       <r>   58.2619    0.0000 </r>
       <r>   59.2948    0.0000 </r>
       <r>   59.2948    0.0000 </r>
       <r>   59.2948    0.0000 </r>
       <r>   62.9028    0.0000 </r>
       <r>   62.9028    0.0000 </r>
       <r>   65.0891    0.0000 </r>
       <r>   65.0891    0.0000 </r>
       <r>   65.0891    0.0000 </r>
       <r>   73.5844    0.0000 </r>
       <r>   73.5844    0.0000 </r>
       <r>   73.5844    0.0000 </r>
       <r>   80.8742    0.0000 </r>
       <r>   83.2420    0.0000 </r>
       <r>   83.2420    0.0000 </r>
       <r>   87.3075    0.0000 </r>
       <r>   87.3075    0.0000 </r>
       <r>   87.3075    0.0000 </r>
       <r>   90.1806    0.0000 </r>
       <r>   90.1806    0.0000 </r>
       <r>   90.1806    0.0000 </r>
       <r>   90.9943    0.0000 </r>
       <r>   93.4902    0.0000 </r>
       <r>   93.4902    0.0000 </r>
       <r>   93.4902    0.0000 </r>
       <r>   93.9426    0.0000 </r>
       <r>   93.9426    0.0000 </r>
       <r>   93.9426    0.0000 </r>
       <r>   96.3804    0.0000 </r>
       <r>   96.3804    0.0000 </r>
      </set>
      <set comment="kpoint 2">
       <r>   -2.9362    1.0000 </r>
       <r>   17.6149    0.0000 </r>
       <r>   19.8901    0.0000 </r>
       <r>   19.8901    0.0000 </r>
       <r>   22.6637    0.0000 </r>
       <r>   22.9714    0.0000 </r>
       <r>   22.9714    0.0000 </r>
       <r>   26.2112    0.0000 </r>
       <r>   26.2112    0.0000 </r>
       <r>   26.4729    0.0000 </r>
       <r>   29.4015    0.0000 </r>
       <r>   33.6007    0.0000 </r>
       <r>   34.0826    0.0000 </r>
       <r>   34.0826    0.0000 </r>
       <r>   41.9621    0.0000 </r>
       <r>   56.4637    0.0000 </r>
       <r>   56.4637    0.0000 </r>
       <r>   56.5541    0.0000 </r>
       <r>   57.4370    0.0000 </r>
       <r>   58.6139    0.0000 </r>
       <r>   58.6139    0.0000 </r>
       <r>   60.0516    0.0000 </r>
       <r>   61.6536    0.0000 </r>
       <r>   61.6537    0.0000 </r>
       <r>   65.2898    0.0000 </r>
       <r>   69.0073    0.0000 </r>
       <r>   69.0073    0.0000 </r>
       <r>   71.8427    0.0000 </r>
       <r>   73.3393    0.0000 </r>
       <r>   73.3393    0.0000 </r>
       <r>   81.9684    0.0000 </r>
       <r>   81.9684    0.0000 </r>
       <r>   82.3900    0.0000 </r>
       <r>   84.2322    0.0000 </r>
       <r>   85.8863    0.0000 </r>
       <r>   85.8863    0.0000 </r>
       <r>   88.0462    0.0000 </r>
       <r>   88.0462    0.0000 </r>
       <r>   89.0246    0.0000 </r>
       <r>   90.1766    0.0000 </r>
       <r>   91.3426    0.0000 </r>
       <r>   91.3426    0.0000 </r>
       <r>   92.9633    0.0000 </r>
       <r>   94.8186    0.0000 </r>
       <r>   95.6783    0.0000 </r>
       <r>   95.6783    0.0000 </r>
       <r>   97.1441    0.0000 </r>
       <r>   97.1441    0.0000 </r>
      </set>
      <set comment="kpoint 3">
       <r>   -2.2668    1.0000 </r>
       <r>   13.9692    0.0000 </r>
       <r>   19.1554    0.0000 </r>
       <r>   19.1554    0.0000 </r>
       <r>   22.4350    0.0000 </r>
       <r>   23.8006    0.0000 </r>
       <r>   23.8006    0.0000 </r>
       <r>   25.3197    0.0000 </r>
       <r>   25.3197    0.0000 </r>
       <r>   27.8883    0.0000 </r>
       <r>   29.9872    0.0000 </r>
       <r>   36.4353    0.0000 </r>
       <r>   37.2496    0.0000 </r>
       <r>   37.2496    0.0000 </r>
       <r>   44.2015    0.0000 </r>
       <r>   51.8199    0.0000 </r>
       <r>   51.8199    0.0000 </r>
       <r>   54.6571    0.0000 </r>
       <r>   57.6109    0.0000 </r>
       <r>   58.8209    0.0000 </r>
       <r>   58.8210    0.0000 </r>
       <r>   61.6926    0.0000 </r>
       <r>   61.8069    0.0000 </r>
       <r>   61.8069    0.0000 </r>
       <r>   65.8806    0.0000 </r>
       <r>   69.0474    0.0000 </r>
       <r>   71.3198    0.0000 </r>
       <r>   71.3198    0.0000 </r>
       <r>   74.1549    0.0000 </r>
       <r>   74.1549    0.0000 </r>
       <r>   78.9290    0.0000 </r>
       <r>   79.0781    0.0000 </r>
       <r>   79.0781    0.0000 </r>
       <r>   82.8744    0.0000 </r>
       <r>   82.8744    0.0000 </r>
       <r>   84.8356    0.0000 </r>
       <r>   85.7105    0.0000 </r>
       <r>   86.7436    0.0000 </r>
       <r>   86.7436    0.0000 </r>
       <r>   87.7097    0.0000 </r>
       <r>   89.5560    0.0000 </r>
       <r>   90.0754    0.0000 </r>
       <r>   90.0754    0.0000 </r>
       <r>   94.1275    0.0000 </r>
       <r>   97.3700    0.0000 </r>
       <r>   97.3700    0.0000 </r>
       <r>   99.5866    0.0000 </r>
       <r>   99.5866    0.0000 </r>
      </set>
      <set comment="kpoint 4">
       <r>   -1.1580    1.0000 </r>
       <r>   10.5422   -0.0167 </r>
       <r>   18.7453    0.0000 </r>
       <r>   18.7453    0.0000 </r>
       <r>   22.2236    0.0000 </r>
       <r>   22.2538    0.0000 </r>
       <r>   22.2538    0.0000 </r>
       <r>   26.2429    0.0000 </r>
       <r>   27.3686    0.0000 </r>
       <r>   27.3686    0.0000 </r>
       <r>   33.3179    0.0000 </r>
       <r>   40.5400    0.0000 </r>
       <r>   40.8726    0.0000 </r>
       <r>   40.8726    0.0000 </r>
       <r>   47.1275    0.0000 </r>
       <r>   47.4162    0.0000 </r>
       <r>   47.4162    0.0000 </r>
       <r>   52.2138    0.0000 </r>
       <r>   57.5800    0.0000 </r>
       <r>   58.5858    0.0000 </r>
       <r>   58.5858    0.0000 </r>
       <r>   60.6830    0.0000 </r>
       <r>   62.2593    0.0000 </r>
       <r>   62.2593    0.0000 </r>
       <r>   66.8181    0.0000 </r>
       <r>   66.9419    0.0000 </r>
       <r>   67.8962    0.0000 </r>
       <r>   67.8962    0.0000 </r>
       <r>   74.6424    0.0000 </r>
       <r>   74.6424    0.0000 </r>
       <r>   75.7871    0.0000 </r>
       <r>   78.3961    0.0000 </r>
       <r>   79.2446    0.0000 </r>
       <r>   79.2446    0.0000 </r>
       <r>   80.1388    0.0000 </r>
       <r>   80.1388    0.0000 </r>
       <r>   81.1905    0.0000 </r>
       <r>   88.2500    0.0000 </r>
       <r>   88.2500    0.0000 </r>
       <r>   88.8012    0.0000 </r>
       <r>   89.5558    0.0000 </r>
       <r>   89.5558    0.0000 </r>
       <r>   91.2402    0.0000 </r>
       <r>   93.3872    0.0000 </r>
       <r>   97.6173    0.0000 </r>
       <r>   97.6173    0.0000 </r>
       <r>  101.6497    0.0000 </r>
       <r>  102.6334    0.0000 </r>
      </set>
      <set comment="kpoint 5">
       <r>    0.3802    1.0000 </r>
       <r>    7.4390    0.7152 </r>
       <r>   18.7007    0.0000 </r>
       <r>   18.7007    0.0000 </r>
       <r>   20.8231    0.0000 </r>
       <r>   20.8231    0.0000 </r>
       <r>   22.2950    0.0000 </r>
       <r>   24.7567    0.0000 </r>
       <r>   29.9042    0.0000 </r>
       <r>   29.9042    0.0000 </r>
       <r>   36.4468    0.0000 </r>
       <r>   41.9253    0.0000 </r>
       <r>   41.9253    0.0000 </r>
       <r>   45.1177    0.0000 </r>
       <r>   46.4755    0.0000 </r>
       <r>   46.4755    0.0000 </r>
       <r>   48.4151    0.0000 </r>
       <r>   51.9426    0.0000 </r>
       <r>   57.5602    0.0000 </r>
       <r>   58.3817    0.0000 </r>
       <r>   58.4210    0.0000 </r>
       <r>   58.4210    0.0000 </r>
       <r>   61.4946    0.0000 </r>
       <r>   61.4946    0.0000 </r>
       <r>   64.4567    0.0000 </r>
       <r>   64.4567    0.0000 </r>
       <r>   65.2483    0.0000 </r>
       <r>   67.9828    0.0000 </r>
       <r>   69.7303    0.0000 </r>
       <r>   73.9667    0.0000 </r>
       <r>   73.9667    0.0000 </r>
       <r>   76.6902    0.0000 </r>
       <r>   76.9944    0.0000 </r>
       <r>   76.9944    0.0000 </r>
       <r>   78.2248    0.0000 </r>
       <r>   80.8371    0.0000 </r>
       <r>   80.8371    0.0000 </r>
       <r>   88.6010    0.0000 </r>
       <r>   89.1850    0.0000 </r>
       <r>   89.1850    0.0000 </r>
       <r>   90.5450    0.0000 </r>
       <r>   92.1427    0.0000 </r>
       <r>   92.1427    0.0000 </r>
       <r>   94.5344    0.0000 </r>
       <r>   99.1019    0.0000 </r>
       <r>   99.1019    0.0000 </r>
       <r>  102.4021    0.0000 </r>
       <r>  104.3515    0.0000 </r>
      </set>
      <set comment="kpoint 6">
       <r>    2.3331    1.0000 </r>
       <r>    4.6995    1.0000 </r>
       <r>   19.0306    0.0000 </r>
       <r>   19.0306    0.0000 </r>
       <r>   19.7447    0.0000 </r>
       <r>   19.7447    0.0000 </r>
       <r>   22.7324    0.0000 </r>
       <r>   23.5699    0.0000 </r>
       <r>   32.2464    0.0000 </r>
       <r>   32.2464    0.0000 </r>
       <r>   39.0190    0.0000 </r>
       <r>   39.2356    0.0000 </r>
       <r>   39.2356    0.0000 </r>
       <r>   45.8477    0.0000 </r>
       <r>   49.7911    0.0000 </r>
       <r>   50.3851    0.0000 </r>
       <r>   50.3851    0.0000 </r>
       <r>   55.2924    0.0000 </r>
       <r>   55.9808    0.0000 </r>
       <r>   56.4837    0.0000 </r>
       <r>   56.4837    0.0000 </r>
       <r>   58.1520    0.0000 </r>
       <r>   59.9780    0.0000 </r>
       <r>   59.9780    0.0000 </r>
       <r>   62.5326    0.0000 </r>
       <r>   64.3501    0.0000 </r>
       <r>   64.3501    0.0000 </r>
       <r>   64.9718    0.0000 </r>
       <r>   68.9977    0.0000 </r>
       <r>   73.6650    0.0000 </r>
       <r>   73.6650    0.0000 </r>
       <r>   75.5508    0.0000 </r>
       <r>   75.5508    0.0000 </r>
       <r>   76.3294    0.0000 </r>
       <r>   77.0893    0.0000 </r>
       <r>   81.1431    0.0000 </r>
       <r>   81.1431    0.0000 </r>
       <r>   88.6705    0.0000 </r>
       <r>   88.9481    0.0000 </r>
       <r>   88.9481    0.0000 </r>
       <r>   89.2785    0.0000 </r>
       <r>   94.4290    0.0000 </r>
       <r>   95.3405    0.0000 </r>
       <r>   95.3405    0.0000 </r>
       <r>  101.4903    0.0000 </r>
       <r>  101.4904    0.0000 </r>
       <r>  105.2538    0.0000 </r>
       <r>  105.2538    0.0000 </r>
      </set>
      <set comment="kpoint 7">
       <r>   -2.8617    1.0000 </r>
       <r>   18.6254    0.0000 </r>
       <r>   18.6255    0.0000 </r>
       <r>   18.9332    0.0000 </r>
       <r>   21.3149    0.0000 </r>
       <r>   24.2917    0.0000 </r>
       <r>   24.3297    0.0000 </r>
       <r>   24.3297    0.0000 </r>
       <r>   26.5859    0.0000 </r>
       <r>   27.6039    0.0000 </r>
       <r>   30.5899    0.0000 </r>
       <r>   32.8538    0.0000 </r>
       <r>   32.8538    0.0000 </r>
       <r>   35.5722    0.0000 </r>
       <r>   42.4000    0.0000 </r>
       <r>   56.0246    0.0000 </r>
       <r>   56.0246    0.0000 </r>
       <r>   56.4371    0.0000 </r>
       <r>   57.8912    0.0000 </r>
       <r>   58.0483    0.0000 </r>
       <r>   58.9409    0.0000 </r>
       <r>   58.9409    0.0000 </r>
       <r>   59.4917    0.0000 </r>
       <r>   63.0122    0.0000 </r>
       <r>   67.5401    0.0000 </r>
       <r>   67.5401    0.0000 </r>
       <r>   70.4879    0.0000 </r>
       <r>   70.5644    0.0000 </r>
       <r>   73.7637    0.0000 </r>
       <r>   73.7637    0.0000 </r>
       <r>   80.7337    0.0000 </r>
       <r>   82.7190    0.0000 </r>
       <r>   82.7602    0.0000 </r>
       <r>   82.7602    0.0000 </r>
       <r>   83.4916    0.0000 </r>
       <r>   84.3131    0.0000 </r>
       <r>   88.7701    0.0000 </r>
       <r>   90.1359    0.0000 </r>
       <r>   90.1359    0.0000 </r>
       <r>   90.1868    0.0000 </r>
       <r>   90.1868    0.0000 </r>
       <r>   92.1351    0.0000 </r>
       <r>   93.2850    0.0000 </r>
       <r>   94.4863    0.0000 </r>
       <r>   94.8366    0.0000 </r>
       <r>   97.7894    0.0000 </r>
       <r>   97.8342    0.0000 </r>
       <r>   97.8343    0.0000 </r>
      </set>
      <set comment="kpoint 8">
       <r>   -2.3410    1.0000 </r>
       <r>   15.2916    0.0000 </r>
       <r>   17.6990    0.0000 </r>
       <r>   19.0445    0.0000 </r>
       <r>   21.6549    0.0000 </r>
       <r>   22.2795    0.0000 </r>
       <r>   24.7139    0.0000 </r>
       <r>   25.7350    0.0000 </r>
       <r>   27.0845    0.0000 </r>
       <r>   29.5065    0.0000 </r>
       <r>   29.9504    0.0000 </r>
       <r>   34.7313    0.0000 </r>
       <r>   35.0381    0.0000 </r>
       <r>   37.8856    0.0000 </r>
       <r>   44.4737    0.0000 </r>
       <r>   51.8388    0.0000 </r>
       <r>   53.0642    0.0000 </r>
       <r>   56.3778    0.0000 </r>
       <r>   57.0007    0.0000 </r>
       <r>   57.3280    0.0000 </r>
       <r>   58.9483    0.0000 </r>
       <r>   59.2057    0.0000 </r>
       <r>   60.9139    0.0000 </r>
       <r>   62.7209    0.0000 </r>
       <r>   67.6014    0.0000 </r>
       <r>   68.5322    0.0000 </r>
       <r>   71.5149    0.0000 </r>
       <r>   72.7645    0.0000 </r>
       <r>   72.7706    0.0000 </r>
       <r>   75.0574    0.0000 </r>
       <r>   77.3455    0.0000 </r>
       <r>   78.4867    0.0000 </r>
       <r>   80.7898    0.0000 </r>
       <r>   81.8140    0.0000 </r>
       <r>   82.5842    0.0000 </r>
       <r>   84.1444    0.0000 </r>
       <r>   86.3286    0.0000 </r>
       <r>   86.3490    0.0000 </r>
       <r>   89.1940    0.0000 </r>
       <r>   89.3506    0.0000 </r>
       <r>   90.0089    0.0000 </r>
       <r>   91.4326    0.0000 </r>
       <r>   93.7797    0.0000 </r>
       <r>   94.5429    0.0000 </r>
       <r>   94.5865    0.0000 </r>
       <r>   96.2084    0.0000 </r>
       <r>   97.0455    0.0000 </r>
       <r>   97.7665    0.0000 </r>
      </set>
      <set comment="kpoint 9">
       <r>   -1.3791    1.0000 </r>
       <r>   11.8148    0.0000 </r>
       <r>   17.1424    0.0000 </r>
       <r>   18.7032    0.0000 </r>
       <r>   20.0105    0.0000 </r>
       <r>   23.7895    0.0000 </r>
       <r>   24.6508    0.0000 </r>
       <r>   24.7594    0.0000 </r>
       <r>   28.2541    0.0000 </r>
       <r>   28.5523    0.0000 </r>
       <r>   33.0633    0.0000 </r>
       <r>   38.1008    0.0000 </r>
       <r>   39.0384    0.0000 </r>
       <r>   40.9081    0.0000 </r>
       <r>   47.1802    0.0000 </r>
       <r>   47.4177    0.0000 </r>
       <r>   49.1544    0.0000 </r>
       <r>   54.2085    0.0000 </r>
       <r>   56.8305    0.0000 </r>
       <r>   57.8974    0.0000 </r>
       <r>   59.0463    0.0000 </r>
       <r>   59.6958    0.0000 </r>
       <r>   60.9434    0.0000 </r>
       <r>   62.9478    0.0000 </r>
       <r>   65.3824    0.0000 </r>
       <r>   68.8991    0.0000 </r>
       <r>   68.9583    0.0000 </r>
       <r>   71.6386    0.0000 </r>
       <r>   72.1214    0.0000 </r>
       <r>   73.8233    0.0000 </r>
       <r>   77.2395    0.0000 </r>
       <r>   77.4223    0.0000 </r>
       <r>   78.6619    0.0000 </r>
       <r>   80.7329    0.0000 </r>
       <r>   81.1406    0.0000 </r>
       <r>   81.5492    0.0000 </r>
       <r>   82.7164    0.0000 </r>
       <r>   86.8362    0.0000 </r>
       <r>   86.8837    0.0000 </r>
       <r>   87.1151    0.0000 </r>
       <r>   91.2486    0.0000 </r>
       <r>   92.5477    0.0000 </r>
       <r>   92.6813    0.0000 </r>
       <r>   94.3154    0.0000 </r>
       <r>   94.5550    0.0000 </r>
       <r>   97.3397    0.0000 </r>
       <r>   99.9425    0.0000 </r>
       <r>  100.9171    0.0000 </r>
      </set>
      <set comment="kpoint 10">
       <r>    0.0153    1.0000 </r>
       <r>    8.6134    0.2010 </r>
       <r>   16.9630    0.0000 </r>
       <r>   18.3631    0.0000 </r>
       <r>   18.6122    0.0000 </r>
       <r>   23.2990    0.0000 </r>
       <r>   24.3929    0.0000 </r>
       <r>   26.0458    0.0000 </r>
       <r>   27.2235    0.0000 </r>
       <r>   30.8761    0.0000 </r>
       <r>   36.2899    0.0000 </r>
       <r>   40.8950    0.0000 </r>
       <r>   43.2647    0.0000 </r>
       <r>   43.7689    0.0000 </r>
       <r>   44.2477    0.0000 </r>
       <r>   46.4282    0.0000 </r>
       <r>   49.9266    0.0000 </r>
       <r>   52.5706    0.0000 </r>
       <r>   57.1153    0.0000 </r>
       <r>   58.5893    0.0000 </r>
       <r>   58.6234    0.0000 </r>
       <r>   59.2804    0.0000 </r>
       <r>   60.0827    0.0000 </r>
       <r>   62.7403    0.0000 </r>
       <r>   63.6292    0.0000 </r>
       <r>   65.7179    0.0000 </r>
       <r>   66.5107    0.0000 </r>
       <r>   70.5538    0.0000 </r>
       <r>   70.6032    0.0000 </r>
       <r>   71.4944    0.0000 </r>
       <r>   72.6227    0.0000 </r>
       <r>   76.2871    0.0000 </r>
       <r>   77.2496    0.0000 </r>
       <r>   78.4314    0.0000 </r>
       <r>   80.9862    0.0000 </r>
       <r>   81.6338    0.0000 </r>
       <r>   83.5488    0.0000 </r>
       <r>   84.6617    0.0000 </r>
       <r>   87.3659    0.0000 </r>
       <r>   88.7640    0.0000 </r>
       <r>   92.7423    0.0000 </r>
       <r>   93.7237    0.0000 </r>
       <r>   93.8271    0.0000 </r>
       <r>   94.7639    0.0000 </r>
       <r>   96.2666    0.0000 </r>
       <r>   98.4402    0.0000 </r>
       <r>  101.2488    0.0000 </r>
       <r>  103.7032    0.0000 </r>
      </set>
      <set comment="kpoint 11">
       <r>    1.8294    1.0000 </r>
       <r>    5.7563    1.0438 </r>
       <r>   17.1363    0.0000 </r>
       <r>   17.1624    0.0000 </r>
       <r>   18.8293    0.0000 </r>
       <r>   22.1184    0.0000 </r>
       <r>   24.6446    0.0000 </r>
       <r>   25.3337    0.0000 </r>
       <r>   29.4809    0.0000 </r>
       <r>   32.7605    0.0000 </r>
       <r>   39.1181    0.0000 </r>
       <r>   39.1589    0.0000 </r>
       <r>   40.6839    0.0000 </r>
       <r>   47.1987    0.0000 </r>
       <r>   47.4834    0.0000 </r>
       <r>   48.8746    0.0000 </r>
       <r>   49.8648    0.0000 </r>
       <r>   54.6130    0.0000 </r>
       <r>   55.9910    0.0000 </r>
       <r>   57.1340    0.0000 </r>
       <r>   57.4875    0.0000 </r>
       <r>   58.6781    0.0000 </r>
       <r>   58.7884    0.0000 </r>
       <r>   60.0962    0.0000 </r>
       <r>   63.0653    0.0000 </r>
       <r>   63.6786    0.0000 </r>
       <r>   64.3198    0.0000 </r>
       <r>   66.2392    0.0000 </r>
       <r>   69.1441    0.0000 </r>
       <r>   70.0700    0.0000 </r>
       <r>   72.0639    0.0000 </r>
       <r>   75.0167    0.0000 </r>
       <r>   76.2158    0.0000 </r>
       <r>   78.3390    0.0000 </r>
       <r>   80.8006    0.0000 </r>
       <r>   81.3780    0.0000 </r>
       <r>   82.8190    0.0000 </r>
       <r>   83.7792    0.0000 </r>
       <r>   88.6771    0.0000 </r>
       <r>   88.8794    0.0000 </r>
       <r>   92.5619    0.0000 </r>
       <r>   94.8072    0.0000 </r>
       <r>   95.7858    0.0000 </r>
       <r>   97.1346    0.0000 </r>
       <r>   99.7550    0.0000 </r>
       <r>  101.5124    0.0000 </r>
       <r>  101.5836    0.0000 </r>
       <r>  102.4832    0.0000 </r>
      </set>
      <set comment="kpoint 12">
       <r>    3.2557    1.0000 </r>
       <r>    4.0680    1.0000 </r>
       <r>   16.2778    0.0000 </r>
       <r>   17.7433    0.0000 </r>
       <r>   19.4556    0.0000 </r>
       <r>   21.2932    0.0000 </r>
       <r>   24.2590    0.0000 </r>
       <r>   25.4717    0.0000 </r>
       <r>   31.7581    0.0000 </r>
       <r>   31.9205    0.0000 </r>
       <r>   38.0432    0.0000 </r>
       <r>   39.7977    0.0000 </r>
       <r>   40.5475    0.0000 </r>
       <r>   46.4307    0.0000 </r>
       <r>   49.4976    0.0000 </r>
       <r>   50.7556    0.0000 </r>
       <r>   51.4636    0.0000 </r>
       <r>   54.4992    0.0000 </r>
       <r>   55.5984    0.0000 </r>
       <r>   56.0568    0.0000 </r>
       <r>   56.9948    0.0000 </r>
       <r>   58.3442    0.0000 </r>
       <r>   58.9721    0.0000 </r>
       <r>   59.7057    0.0000 </r>
       <r>   62.1054    0.0000 </r>
       <r>   62.3102    0.0000 </r>
       <r>   64.0051    0.0000 </r>
       <r>   65.0818    0.0000 </r>
       <r>   68.8721    0.0000 </r>
       <r>   69.6483    0.0000 </r>
       <r>   72.2659    0.0000 </r>
       <r>   74.7007    0.0000 </r>
       <r>   76.2283    0.0000 </r>
       <r>   78.4208    0.0000 </r>
       <r>   80.5637    0.0000 </r>
       <r>   81.4727    0.0000 </r>
       <r>   82.1851    0.0000 </r>
       <r>   83.6072    0.0000 </r>
       <r>   88.7076    0.0000 </r>
       <r>   88.8801    0.0000 </r>
       <r>   92.2933    0.0000 </r>
       <r>   95.0407    0.0000 </r>
       <r>   96.7589    0.0000 </r>
       <r>   98.2906    0.0000 </r>
       <r>  100.1740    0.0000 </r>
       <r>  100.8210    0.0000 </r>
       <r>  103.8987    0.0000 </r>
       <r>  104.6719    0.0000 </r>
      </set>
      <set comment="kpoint 13">
       <r>    1.1792    1.0000 </r>
       <r>    6.6661    1.0122 </r>
       <r>   15.8124    0.0000 </r>
       <r>   18.7032    0.0000 </r>
       <r>   20.4652    0.0000 </r>
       <r>   20.8421    0.0000 </r>
       <r>   23.7263    0.0000 </r>
       <r>   26.4143    0.0000 </r>
       <r>   29.2454    0.0000 </r>
       <r>   31.3322    0.0000 </r>
       <r>   38.1225    0.0000 </r>
       <r>   39.3588    0.0000 </r>
       <r>   42.8287    0.0000 </r>
       <r>   45.3186    0.0000 </r>
       <r>   46.6534    0.0000 </r>
       <r>   48.7875    0.0000 </r>
       <r>   49.4779    0.0000 </r>
       <r>   53.9134    0.0000 </r>
       <r>   56.9230    0.0000 </r>
       <r>   57.1300    0.0000 </r>
       <r>   57.2807    0.0000 </r>
       <r>   59.5929    0.0000 </r>
       <r>   59.6310    0.0000 </r>
       <r>   60.8525    0.0000 </r>
       <r>   61.2785    0.0000 </r>
       <r>   64.2654    0.0000 </r>
       <r>   65.1224    0.0000 </r>
       <r>   68.7148    0.0000 </r>
       <r>   69.6919    0.0000 </r>
       <r>   70.1872    0.0000 </r>
       <r>   71.4651    0.0000 </r>
       <r>   75.3897    0.0000 </r>
       <r>   76.5447    0.0000 </r>
       <r>   79.0485    0.0000 </r>
       <r>   80.1530    0.0000 </r>
       <r>   81.8137    0.0000 </r>
       <r>   83.0077    0.0000 </r>
       <r>   83.7662    0.0000 </r>
       <r>   88.0716    0.0000 </r>
       <r>   88.3342    0.0000 </r>
       <r>   93.1473    0.0000 </r>
       <r>   93.7982    0.0000 </r>
       <r>   94.9224    0.0000 </r>
       <r>   96.0151    0.0000 </r>
       <r>   98.9568    0.0000 </r>
       <r>  100.3645    0.0000 </r>
       <r>  102.6697    0.0000 </r>
       <r>  106.1887    0.0000 </r>
      </set>
      <set comment="kpoint 14">
       <r>   -0.4968    1.0000 </r>
       <r>    9.6381   -0.0575 </r>
       <r>   15.7474    0.0000 </r>
       <r>   20.0103    0.0000 </r>
       <r>   20.7829    0.0000 </r>
       <r>   21.8372    0.0000 </r>
       <r>   23.5131    0.0000 </r>
       <r>   26.5259    0.0000 </r>
       <r>   27.4021    0.0000 </r>
       <r>   29.3644    0.0000 </r>
       <r>   35.3972    0.0000 </r>
       <r>   39.8060    0.0000 </r>
       <r>   42.2760    0.0000 </r>
       <r>   43.8750    0.0000 </r>
       <r>   43.9969    0.0000 </r>
       <r>   48.0828    0.0000 </r>
       <r>   48.9749    0.0000 </r>
       <r>   52.2652    0.0000 </r>
       <r>   57.0417    0.0000 </r>
       <r>   57.6945    0.0000 </r>
       <r>   59.6322    0.0000 </r>
       <r>   59.8465    0.0000 </r>
       <r>   60.5374    0.0000 </r>
       <r>   61.8576    0.0000 </r>
       <r>   64.0768    0.0000 </r>
       <r>   65.8146    0.0000 </r>
       <r>   68.4653    0.0000 </r>
       <r>   70.4557    0.0000 </r>
       <r>   70.7493    0.0000 </r>
       <r>   72.7245    0.0000 </r>
       <r>   75.2355    0.0000 </r>
       <r>   76.0687    0.0000 </r>
       <r>   77.6968    0.0000 </r>
       <r>   79.2003    0.0000 </r>
       <r>   79.6379    0.0000 </r>
       <r>   83.0525    0.0000 </r>
       <r>   84.4162    0.0000 </r>
       <r>   84.7303    0.0000 </r>
       <r>   86.1879    0.0000 </r>
       <r>   86.9040    0.0000 </r>
       <r>   90.9614    0.0000 </r>
       <r>   91.2926    0.0000 </r>
       <r>   94.7238    0.0000 </r>
       <r>   95.4811    0.0000 </r>
       <r>   96.4618    0.0000 </r>
       <r>   99.8617    0.0000 </r>
       <r>  100.7916    0.0000 </r>
       <r>  104.1556    0.0000 </r>
      </set>
      <set comment="kpoint 15">
       <r>   -1.7483    1.0000 </r>
       <r>   12.9211    0.0000 </r>
       <r>   16.0958    0.0000 </r>
       <r>   20.9314    0.0000 </r>
       <r>   21.7475    0.0000 </r>
       <r>   23.4364    0.0000 </r>
       <r>   23.6109    0.0000 </r>
       <r>   24.2023    0.0000 </r>
       <r>   26.3111    0.0000 </r>
       <r>   29.6207    0.0000 </r>
       <r>   32.1666    0.0000 </r>
       <r>   36.0582    0.0000 </r>
       <r>   38.4387    0.0000 </r>
       <r>   40.4783    0.0000 </r>
       <r>   45.9770    0.0000 </r>
       <r>   47.7508    0.0000 </r>
       <r>   51.9623    0.0000 </r>
       <r>   54.5321    0.0000 </r>
       <r>   56.7111    0.0000 </r>
       <r>   57.2682    0.0000 </r>
       <r>   59.6193    0.0000 </r>
       <r>   60.0036    0.0000 </r>
       <r>   61.3699    0.0000 </r>
       <r>   61.4872    0.0000 </r>
       <r>   67.1951    0.0000 </r>
       <r>   68.6467    0.0000 </r>
       <r>   69.5737    0.0000 </r>
       <r>   71.1601    0.0000 </r>
       <r>   74.0086    0.0000 </r>
       <r>   74.9896    0.0000 </r>
       <r>   76.9941    0.0000 </r>
       <r>   78.1332    0.0000 </r>
       <r>   78.9402    0.0000 </r>
       <r>   79.2746    0.0000 </r>
       <r>   82.8064    0.0000 </r>
       <r>   83.2684    0.0000 </r>
       <r>   84.7256    0.0000 </r>
       <r>   85.3784    0.0000 </r>
       <r>   86.7966    0.0000 </r>
       <r>   87.0543    0.0000 </r>
       <r>   89.3000    0.0000 </r>
       <r>   90.8925    0.0000 </r>
       <r>   91.8952    0.0000 </r>
       <r>   94.5955    0.0000 </r>
       <r>   96.5900    0.0000 </r>
       <r>   97.2515    0.0000 </r>
       <r>   99.5579    0.0000 </r>
       <r>  101.5407    0.0000 </r>
      </set>
      <set comment="kpoint 16">
       <r>   -2.5639    1.0000 </r>
       <r>   16.1330    0.0000 </r>
       <r>   17.1345    0.0000 </r>
       <r>   21.1216    0.0000 </r>
       <r>   22.2889    0.0000 </r>
       <r>   23.3676    0.0000 </r>
       <r>   24.1107    0.0000 </r>
       <r>   24.4748    0.0000 </r>
       <r>   25.4844    0.0000 </r>
       <r>   28.8139    0.0000 </r>
       <r>   30.2778    0.0000 </r>
       <r>   33.2739    0.0000 </r>
       <r>   35.6252    0.0000 </r>
       <r>   36.9659    0.0000 </r>
       <r>   43.3791    0.0000 </r>
       <r>   52.3232    0.0000 </r>
       <r>   55.7349    0.0000 </r>
       <r>   56.5034    0.0000 </r>
       <r>   56.5811    0.0000 </r>
       <r>   57.4447    0.0000 </r>
       <r>   59.3361    0.0000 </r>
       <r>   60.3261    0.0000 </r>
       <r>   60.6580    0.0000 </r>
       <r>   61.2657    0.0000 </r>
       <r>   68.7402    0.0000 </r>
       <r>   69.1742    0.0000 </r>
       <r>   69.5866    0.0000 </r>
       <r>   71.7988    0.0000 </r>
       <r>   73.3338    0.0000 </r>
       <r>   73.8453    0.0000 </r>
       <r>   80.2278    0.0000 </r>
       <r>   80.5306    0.0000 </r>
       <r>   80.9038    0.0000 </r>
       <r>   81.9766    0.0000 </r>
       <r>   82.5140    0.0000 </r>
       <r>   86.1751    0.0000 </r>
       <r>   86.4789    0.0000 </r>
       <r>   86.8766    0.0000 </r>
       <r>   87.5781    0.0000 </r>
       <r>   89.9581    0.0000 </r>
       <r>   90.8715    0.0000 </r>
       <r>   92.3022    0.0000 </r>
       <r>   92.4182    0.0000 </r>
       <r>   92.9860    0.0000 </r>
       <r>   93.4206    0.0000 </r>
       <r>   95.9197    0.0000 </r>
       <r>   97.8608    0.0000 </r>
       <r>   98.8006    0.0000 </r>
      </set>
      <set comment="kpoint 17">
       <r>   -1.9702    1.0000 </r>
       <r>   16.6219    0.0000 </r>
       <r>   16.6219    0.0000 </r>
       <r>   16.7640    0.0000 </r>
       <r>   19.5848    0.0000 </r>
       <r>   19.9520    0.0000 </r>
       <r>   27.5222    0.0000 </r>
       <r>   27.5222    0.0000 </r>
       <r>   28.4257    0.0000 </r>
       <r>   30.5462    0.0000 </r>
       <r>   32.5227    0.0000 </r>
       <r>   33.9953    0.0000 </r>
       <r>   33.9953    0.0000 </r>
       <r>   38.7866    0.0000 </r>
       <r>   46.6271    0.0000 </r>
       <r>   51.9686    0.0000 </r>
       <r>   51.9686    0.0000 </r>
       <r>   52.4767    0.0000 </r>
       <r>   55.6491    0.0000 </r>
       <r>   59.2673    0.0000 </r>
       <r>   59.4567    0.0000 </r>
       <r>   59.4567    0.0000 </r>
       <r>   60.0415    0.0000 </r>
       <r>   62.7907    0.0000 </r>
       <r>   67.1325    0.0000 </r>
       <r>   70.3805    0.0000 </r>
       <r>   70.3805    0.0000 </r>
       <r>   72.5876    0.0000 </r>
       <r>   72.5876    0.0000 </r>
       <r>   76.3003    0.0000 </r>
       <r>   76.3572    0.0000 </r>
       <r>   78.1771    0.0000 </r>
       <r>   78.3486    0.0000 </r>
       <r>   78.3486    0.0000 </r>
       <r>   82.5689    0.0000 </r>
       <r>   84.2040    0.0000 </r>
       <r>   87.4164    0.0000 </r>
       <r>   87.4164    0.0000 </r>
       <r>   88.5440    0.0000 </r>
       <r>   89.8772    0.0000 </r>
       <r>   91.9461    0.0000 </r>
       <r>   91.9461    0.0000 </r>
       <r>   93.6308    0.0000 </r>
       <r>   93.6902    0.0000 </r>
       <r>   93.6902    0.0000 </r>
       <r>   93.7668    0.0000 </r>
       <r>   98.2184    0.0000 </r>
       <r>   98.5495    0.0000 </r>
      </set>
      <set comment="kpoint 18">
       <r>   -1.1580    1.0000 </r>
       <r>   13.4056    0.0000 </r>
       <r>   15.9268    0.0000 </r>
       <r>   17.2229    0.0000 </r>
       <r>   17.5006    0.0000 </r>
       <r>   20.4807    0.0000 </r>
       <r>   27.4456    0.0000 </r>
       <r>   28.1490    0.0000 </r>
       <r>   29.8255    0.0000 </r>
       <r>   31.3809    0.0000 </r>
       <r>   33.6825    0.0000 </r>
       <r>   36.1748    0.0000 </r>
       <r>   37.4505    0.0000 </r>
       <r>   40.5956    0.0000 </r>
       <r>   47.3442    0.0000 </r>
       <r>   49.1648    0.0000 </r>
       <r>   49.6330    0.0000 </r>
       <r>   52.8594    0.0000 </r>
       <r>   55.4040    0.0000 </r>
       <r>   57.4900    0.0000 </r>
       <r>   59.5600    0.0000 </r>
       <r>   59.6590    0.0000 </r>
       <r>   60.7083    0.0000 </r>
       <r>   61.9875    0.0000 </r>
       <r>   65.4867    0.0000 </r>
       <r>   68.5321    0.0000 </r>
       <r>   68.9342    0.0000 </r>
       <r>   71.2005    0.0000 </r>
       <r>   71.5699    0.0000 </r>
       <r>   73.9080    0.0000 </r>
       <r>   77.1472    0.0000 </r>
       <r>   77.4962    0.0000 </r>
       <r>   77.9985    0.0000 </r>
       <r>   79.4694    0.0000 </r>
       <r>   82.1319    0.0000 </r>
       <r>   82.8579    0.0000 </r>
       <r>   84.9167    0.0000 </r>
       <r>   86.0755    0.0000 </r>
       <r>   87.7533    0.0000 </r>
       <r>   90.1698    0.0000 </r>
       <r>   90.2605    0.0000 </r>
       <r>   92.0234    0.0000 </r>
       <r>   92.9230    0.0000 </r>
       <r>   93.9381    0.0000 </r>
       <r>   94.5664    0.0000 </r>
       <r>   98.0668    0.0000 </r>
       <r>   98.4016    0.0000 </r>
       <r>   99.0391    0.0000 </r>
      </set>
      <set comment="kpoint 19">
       <r>    0.0880    1.0000 </r>
       <r>   10.1664   -0.0486 </r>
       <r>   15.6138    0.0000 </r>
       <r>   15.6150    0.0000 </r>
       <r>   17.2727    0.0000 </r>
       <r>   22.6060    0.0000 </r>
       <r>   26.0888    0.0000 </r>
       <r>   28.1728    0.0000 </r>
       <r>   29.9233    0.0000 </r>
       <r>   31.9826    0.0000 </r>
       <r>   37.0071    0.0000 </r>
       <r>   39.5077    0.0000 </r>
       <r>   42.2349    0.0000 </r>
       <r>   42.9283    0.0000 </r>
       <r>   43.3946    0.0000 </r>
       <r>   46.0306    0.0000 </r>
       <r>   52.6227    0.0000 </r>
       <r>   53.7372    0.0000 </r>
       <r>   55.1419    0.0000 </r>
       <r>   55.6567    0.0000 </r>
       <r>   57.8190    0.0000 </r>
       <r>   59.7760    0.0000 </r>
       <r>   59.9507    0.0000 </r>
       <r>   62.5783    0.0000 </r>
       <r>   63.3545    0.0000 </r>
       <r>   65.8389    0.0000 </r>
       <r>   66.2064    0.0000 </r>
       <r>   68.5494    0.0000 </r>
       <r>   69.7723    0.0000 </r>
       <r>   72.9613    0.0000 </r>
       <r>   75.2402    0.0000 </r>
       <r>   75.5476    0.0000 </r>
       <r>   77.8053    0.0000 </r>
       <r>   78.3755    0.0000 </r>
       <r>   81.3769    0.0000 </r>
       <r>   81.7659    0.0000 </r>
       <r>   83.4561    0.0000 </r>
       <r>   87.4082    0.0000 </r>
       <r>   87.7942    0.0000 </r>
       <r>   90.3643    0.0000 </r>
       <r>   91.9774    0.0000 </r>
       <r>   93.3028    0.0000 </r>
       <r>   93.4252    0.0000 </r>
       <r>   94.7316    0.0000 </r>
       <r>   97.5911    0.0000 </r>
       <r>   98.3601    0.0000 </r>
       <r>   99.6874    0.0000 </r>
       <r>  102.0047    0.0000 </r>
      </set>
      <set comment="kpoint 20">
       <r>    1.7558    1.0000 </r>
       <r>    7.2178    0.8287 </r>
       <r>   14.2096    0.0000 </r>
       <r>   15.6835    0.0000 </r>
       <r>   17.4249    0.0000 </r>
       <r>   24.8552    0.0000 </r>
       <r>   25.1527    0.0000 </r>
       <r>   28.0176    0.0000 </r>
       <r>   29.1392    0.0000 </r>
       <r>   33.3724    0.0000 </r>
       <r>   39.6387    0.0000 </r>
       <r>   39.8856    0.0000 </r>
       <r>   41.4778    0.0000 </r>
       <r>   44.8414    0.0000 </r>
       <r>   46.5926    0.0000 </r>
       <r>   48.0860    0.0000 </r>
       <r>   51.4621    0.0000 </r>
       <r>   53.7321    0.0000 </r>
       <r>   54.6768    0.0000 </r>
       <r>   55.9197    0.0000 </r>
       <r>   57.7456    0.0000 </r>
       <r>   59.1808    0.0000 </r>
       <r>   59.5868    0.0000 </r>
       <r>   61.1093    0.0000 </r>
       <r>   61.7734    0.0000 </r>
       <r>   63.9437    0.0000 </r>
       <r>   64.7055    0.0000 </r>
       <r>   65.6445    0.0000 </r>
       <r>   67.6316    0.0000 </r>
       <r>   69.8451    0.0000 </r>
       <r>   72.6645    0.0000 </r>
       <r>   74.9915    0.0000 </r>
       <r>   76.5937    0.0000 </r>
       <r>   77.1027    0.0000 </r>
       <r>   80.5040    0.0000 </r>
       <r>   81.7839    0.0000 </r>
       <r>   85.1747    0.0000 </r>
       <r>   87.7061    0.0000 </r>
       <r>   88.0550    0.0000 </r>
       <r>   90.5272    0.0000 </r>
       <r>   93.1529    0.0000 </r>
       <r>   93.8199    0.0000 </r>
       <r>   96.5474    0.0000 </r>
       <r>   97.0344    0.0000 </r>
       <r>   98.9161    0.0000 </r>
       <r>  100.4961    0.0000 </r>
       <r>  100.7732    0.0000 </r>
       <r>  103.0491    0.0000 </r>
      </set>
      <set comment="kpoint 21">
       <r>    3.8172    1.0000 </r>
       <r>    4.6371    1.0000 </r>
       <r>   13.2014    0.0000 </r>
       <r>   16.1361    0.0000 </r>
       <r>   17.9507    0.0000 </r>
       <r>   23.9307    0.0000 </r>
       <r>   26.4082    0.0000 </r>
       <r>   28.7978    0.0000 </r>
       <r>   29.4065    0.0000 </r>
       <r>   31.8573    0.0000 </r>
       <r>   37.9453    0.0000 </r>
       <r>   40.7465    0.0000 </r>
       <r>   42.6236    0.0000 </r>
       <r>   47.2513    0.0000 </r>
       <r>   49.2439    0.0000 </r>
       <r>   49.9200    0.0000 </r>
       <r>   50.3389    0.0000 </r>
       <r>   54.6344    0.0000 </r>
       <r>   55.1353    0.0000 </r>
       <r>   55.3849    0.0000 </r>
       <r>   56.3656    0.0000 </r>
       <r>   58.3366    0.0000 </r>
       <r>   59.4898    0.0000 </r>
       <r>   60.6135    0.0000 </r>
       <r>   61.7671    0.0000 </r>
       <r>   61.9776    0.0000 </r>
       <r>   62.9251    0.0000 </r>
       <r>   63.8393    0.0000 </r>
       <r>   66.2927    0.0000 </r>
       <r>   67.9071    0.0000 </r>
       <r>   72.6336    0.0000 </r>
       <r>   75.1473    0.0000 </r>
       <r>   76.6750    0.0000 </r>
       <r>   76.7369    0.0000 </r>
       <r>   79.7941    0.0000 </r>
       <r>   80.8603    0.0000 </r>
       <r>   85.3970    0.0000 </r>
       <r>   87.7136    0.0000 </r>
       <r>   88.7253    0.0000 </r>
       <r>   89.3613    0.0000 </r>
       <r>   93.2760    0.0000 </r>
       <r>   95.1125    0.0000 </r>
       <r>   97.9586    0.0000 </r>
       <r>   98.7984    0.0000 </r>
       <r>   99.7882    0.0000 </r>
       <r>  100.1843    0.0000 </r>
       <r>  103.1264    0.0000 </r>
       <r>  106.3116    0.0000 </r>
      </set>
      <set comment="kpoint 22">
       <r>    2.4044    1.0000 </r>
       <r>    6.2986    1.0779 </r>
       <r>   12.6085    0.0000 </r>
       <r>   16.9716    0.0000 </r>
       <r>   18.8718    0.0000 </r>
       <r>   23.3604    0.0000 </r>
       <r>   25.9771    0.0000 </r>
       <r>   28.9389    0.0000 </r>
       <r>   29.8061    0.0000 </r>
       <r>   30.6670    0.0000 </r>
       <r>   36.4199    0.0000 </r>
       <r>   41.3129    0.0000 </r>
       <r>   43.8397    0.0000 </r>
       <r>   44.9998    0.0000 </r>
       <r>   48.4602    0.0000 </r>
       <r>   50.0772    0.0000 </r>
       <r>   51.5785    0.0000 </r>
       <r>   54.9522    0.0000 </r>
       <r>   55.9692    0.0000 </r>
       <r>   56.2066    0.0000 </r>
       <r>   56.2572    0.0000 </r>
       <r>   56.9517    0.0000 </r>
       <r>   59.9539    0.0000 </r>
       <r>   60.6914    0.0000 </r>
       <r>   61.1280    0.0000 </r>
       <r>   61.5014    0.0000 </r>
       <r>   63.9133    0.0000 </r>
       <r>   64.4519    0.0000 </r>
       <r>   66.8548    0.0000 </r>
       <r>   70.2636    0.0000 </r>
       <r>   73.5515    0.0000 </r>
       <r>   74.5705    0.0000 </r>
       <r>   76.7210    0.0000 </r>
       <r>   77.4438    0.0000 </r>
       <r>   79.2978    0.0000 </r>
       <r>   81.0186    0.0000 </r>
       <r>   84.8459    0.0000 </r>
       <r>   87.4422    0.0000 </r>
       <r>   87.9988    0.0000 </r>
       <r>   89.7892    0.0000 </r>
       <r>   90.4505    0.0000 </r>
       <r>   95.6018    0.0000 </r>
       <r>   96.0251    0.0000 </r>
       <r>  100.3093    0.0000 </r>
       <r>  100.7183    0.0000 </r>
       <r>  102.3590    0.0000 </r>
       <r>  104.4306    0.0000 </r>
       <r>  105.7246    0.0000 </r>
      </set>
      <set comment="kpoint 23">
       <r>    0.5983    1.0000 </r>
       <r>    9.0854    0.0194 </r>
       <r>   12.4705    0.0000 </r>
[...]
       <set comment="band 2">
        <r>  0.0789  0.0240  0.0004  0.1391  0.0000  0.0000  0.0000  0.0000  0.0000 </r>
       </set>
       <set comment="band 3">
        <r>  0.0571  0.0774  0.0036  0.0631  0.0000  0.0000  0.0000  0.0000  0.0000 </r>
       </set>
       <set comment="band 4">
        <r>  0.2145  0.0063  0.1192  0.0135  0.0000  0.0000  0.0000  0.0000  0.0000 </r>
       </set>
       <set comment="band 5">
        <r>  0.0127  0.1198  0.0101  0.0654  0.0000  0.0000  0.0000  0.0000  0.0000 </r>
       </set>
       <set comment="band 6">
        <r>  0.0341  0.0898  0.0332  0.0044  0.0000  0.0000  0.0000  0.0000  0.0000 </r>
       </set>
       <set comment="band 7">
        <r>  0.0402  0.1204  0.0002  0.0390  0.0000  0.0000  0.0000  0.0000  0.0000 </r>
       </set>
       <set comment="band 8">
        <r>  0.0197  0.0414  0.0791  0.0080  0.0000  0.0000  0.0000  0.0000  0.0000 </r>
       </set>
       <set comment="band 9">
        <r>  0.0101  0.0005  0.0110  0.0568  0.0000  0.0000  0.0000  0.0000  0.0000 </r>
       </set>
       <set comment="band 10">
        <r>  0.0004  0.0034  0.0106  0.0089  0.0000  0.0000  0.0000  0.0000  0.0000 </r>
       </set>
       <set comment="band 11">
        <r>  0.0685  0.0050  0.0487  0.0000  0.0000  0.0000  0.0000  0.0000  0.0000 </r>
       </set>
       <set comment="band 12">
        <r>  0.0444  0.0029  0.0012  0.0121  0.0000  0.0000  0.0000  0.0000  0.0000 </r>
       </set>
       <set comment="band 13">
        <r>  0.0002  0.0013  0.0459  0.1088  0.0000  0.0000  0.0000  0.0000  0.0000 </r>
       </set>
       <set comment="band 14">
        <r>  0.0085  0.0094  0.0132  0.0275  0.0000  0.0000  0.0000  0.0000  0.0000 </r>
       </set>
       <set comment="band 15">
        <r>  0.0809  0.0000  0.0786  0.0344  0.0000  0.0000  0.0000  0.0000  0.0000 </r>
       </set>
       <set comment="band 16">
        <r>  0.0232  0.0418  0.0915  0.0482  0.0000  0.0000  0.0000  0.0000  0.0000 </r>
       </set>
       <set comment="band 17">
        <r>  0.1052  0.0211  0.1080  0.0037  0.0000  0.0000  0.0000  0.0000  0.0000 </r>
       </set>
       <set comment="band 18">
        <r>  0.3976  0.0071  0.0969  0.0411  0.0000  0.0000  0.0000  0.0000  0.0000 </r>
       </set>
       <set comment="band 19">
        <r>  0.3296  0.1564  0.0008  0.5027  0.0000  0.0000  0.0000  0.0000  0.0000 </r>
       </set>
       <set comment="band 20">
        <r>  4.2155  0.0060  0.0722  0.0179  0.0000  0.0000  0.0000  0.0000  0.0000 </r>
       </set>
       <set comment="band 21">
        <r>  1.7608  1.0236  0.0895  0.0032  0.0000  0.0000  0.0000  0.0000  0.0000 </r>
       </set>
       <set comment="band 22">
        <r>  2.8528  0.8693  0.0423  0.2536  0.0000  0.0000  0.0000  0.0000  0.0000 </r>
       </set>
       <set comment="band 23">
        <r>  0.0405  0.2150  0.6424  0.2136  0.0000  0.0000  0.0000  0.0000  0.0000 </r>
       </set>
       <set comment="band 24">
        <r>  0.1059  0.2145  0.3229  0.5358  0.0000  0.0000  0.0000  0.0000  0.0000 </r>
       </set>
       <set comment="band 25">
        <r>  0.2348  0.0002  2.5062  0.9301  0.0000  0.0000  0.0000  0.0000  0.0000 </r>
       </set>
       <set comment="band 26">
        <r>  0.0009  0.1296  0.2119  1.6935  0.0000  0.0000  0.0000  0.0000  0.0000 </r>
       </set>
       <set comment="band 27">
        <r>  0.0024  0.0006  0.0163  0.0617  0.0000  0.0000  0.0000  0.0000  0.0000 </r>
       </set>
       <set comment="band 28">
        <r>  0.0879  0.4886  0.0050  0.1768  0.0000  0.0000  0.0000  0.0000  0.0000 </r>
       </set>
       <set comment="band 29">
        <r>  0.2160  1.6411  0.0191  0.0297  0.0000  0.0000  0.0000  0.0000  0.0000 </r>
       </set>
       <set comment="band 30">
        <r>  0.0242  0.0129  0.0123  0.1264  0.0000  0.0000  0.0000  0.0000  0.0000 </r>
       </set>
       <set comment="band 31">
        <r>  0.0753  0.2360  0.0850  0.1631  0.0000  0.0000  0.0000  0.0000  0.0000 </r>
       </set>
       <set comment="band 32">
        <r>  0.0651  0.0058  0.6758  0.0143  0.0000  0.0000  0.0000  0.0000  0.0000 </r>
       </set>
       <set comment="band 33">
        <r>  0.0792  0.0194  0.0440  0.2069  0.0000  0.0000  0.0000  0.0000  0.0000 </r>
       </set>
       <set comment="band 34">
        <r>  0.6949  0.0115  0.1507  0.0060  0.0000  0.0000  0.0000  0.0000  0.0000 </r>
       </set>
       <set comment="band 35">
        <r>  0.0188  0.0774  0.0142  0.0058  0.0000  0.0000  0.0000  0.0000  0.0000 </r>
       </set>
       <set comment="band 36">
        <r>  0.0139  0.0342  0.0226  0.1108  0.0000  0.0000  0.0000  0.0000  0.0000 </r>
       </set>
       <set comment="band 37">
        <r>  0.0769  0.0268  0.0060  0.0543  0.0000  0.0000  0.0000  0.0000  0.0000 </r>
       </set>
       <set comment="band 38">
        <r>  0.0437  0.0775  0.0681  0.0464  0.0000  0.0000  0.0000  0.0000  0.0000 </r>
       </set>
       <set comment="band 39">
        <r>  0.0349  0.0198  0.0169  0.0001  0.0000  0.0000  0.0000  0.0000  0.0000 </r>
       </set>
       <set comment="band 40">
        <r>  0.0017  0.0041  0.0326  0.0120  0.0000  0.0000  0.0000  0.0000  0.0000 </r>
       </set>
       <set comment="band 41">
        <r>  0.0414  0.0031  0.0046  0.0301  0.0000  0.0000  0.0000  0.0000  0.0000 </r>
       </set>
       <set comment="band 42">
        <r>  0.0082  0.0033  0.0362  0.0305  0.0000  0.0000  0.0000  0.0000  0.0000 </r>
       </set>
       <set comment="band 43">
        <r>  0.0201  0.0014  0.0046  0.0981  0.0000  0.0000  0.0000  0.0000  0.0000 </r>
       </set>
       <set comment="band 44">
        <r>  0.0183  0.1574  0.0001  0.0023  0.0000  0.0000  0.0000  0.0000  0.0000 </r>
       </set>
       <set comment="band 45">
        <r>  0.0325  0.0083  0.0014  0.0799  0.0000  0.0000  0.0000  0.0000  0.0000 </r>
       </set>
       <set comment="band 46">
        <r>  0.0000  0.0536  0.0396  0.0016  0.0000  0.0000  0.0000  0.0000  0.0000 </r>
       </set>
       <set comment="band 47">
        <r>  0.0202  0.0017  0.0806  0.0076  0.0000  0.0000  0.0000  0.0000  0.0000 </r>
       </set>
       <set comment="band 48">
        <r>  0.0000  0.0304  0.0167  0.0001  0.0000  0.0000  0.0000  0.0000  0.0000 </r>
       </set>
      </set>
      <set comment="kpoint 55">
       <set comment="band 1">
        <r>  0.0820  0.0144  0.1493  0.0000  0.0000  0.0000  0.0000  0.0000  0.0000 </r>
       </set>
       <set comment="band 2">
        <r>  0.0000  0.0000  0.0000  0.2078  0.0000  0.0000  0.0000  0.0000  0.0000 </r>
       </set>
       <set comment="band 3">
        <r>  0.0776  0.0531  0.0745  0.0000  0.0000  0.0000  0.0000  0.0000  0.0000 </r>
       </set>
       <set comment="band 4">
        <r>  0.2991  0.0805  0.0098  0.0000  0.0000  0.0000  0.0000  0.0000  0.0000 </r>
       </set>
       <set comment="band 5">
        <r>  0.0000  0.0000  0.0000  0.1259  0.0000  0.0000  0.0000  0.0000  0.0000 </r>
       </set>
       <set comment="band 6">
        <r>  0.0842  0.2432  0.0039  0.0000  0.0000  0.0000  0.0000  0.0000  0.0000 </r>
       </set>
       <set comment="band 7">
        <r>  0.0245  0.0388  0.0466  0.0000  0.0000  0.0000  0.0000  0.0000  0.0000 </r>
       </set>
       <set comment="band 8">
        <r>  0.0224  0.0719  0.0389  0.0000  0.0000  0.0000  0.0000  0.0000  0.0000 </r>
       </set>
       <set comment="band 9">
        <r>  0.0000  0.0000  0.0000  0.0237  0.0000  0.0000  0.0000  0.0000  0.0000 </r>
       </set>
       <set comment="band 10">
        <r>  0.0033  0.0000  0.0029  0.0000  0.0000  0.0000  0.0000  0.0000  0.0000 </r>
       </set>
       <set comment="band 11">
        <r>  0.0615  0.0198  0.0957  0.0000  0.0000  0.0000  0.0000  0.0000  0.0000 </r>
       </set>
       <set comment="band 12">
        <r>  0.0000  0.0000  0.0000  0.0727  0.0000  0.0000  0.0000  0.0000  0.0000 </r>
       </set>
       <set comment="band 13">
        <r>  0.0000  0.0000  0.0000  0.1803  0.0000  0.0000  0.0000  0.0000  0.0000 </r>
       </set>
       <set comment="band 14">
        <r>  0.0175  0.0100  0.0484  0.0000  0.0000  0.0000  0.0000  0.0000  0.0000 </r>
       </set>
       <set comment="band 15">
        <r>  0.1017  0.0112  0.0200  0.0000  0.0000  0.0000  0.0000  0.0000  0.0000 </r>
       </set>
       <set comment="band 16">
        <r>  0.0000  0.0000  0.0000  0.0174  0.0000  0.0000  0.0000  0.0000  0.0000 </r>
       </set>
       <set comment="band 17">
        <r>  0.1156  0.0181  0.4004  0.0000  0.0000  0.0000  0.0000  0.0000  0.0000 </r>
       </set>
       <set comment="band 18">
        <r>  0.0000  0.0000  0.0000  0.0115  0.0000  0.0000  0.0000  0.0000  0.0000 </r>
       </set>
       <set comment="band 19">
        <r>  0.5076  0.0008  0.0342  0.0000  0.0000  0.0000  0.0000  0.0000  0.0000 </r>
       </set>
       <set comment="band 20">
        <r>  4.2071  0.7496  0.0306  0.0000  0.0000  0.0000  0.0000  0.0000  0.0000 </r>
       </set>
       <set comment="band 21">
        <r>  0.0000  0.0000  0.0000  1.0395  0.0000  0.0000  0.0000  0.0000  0.0000 </r>
       </set>
       <set comment="band 22">
        <r>  4.7261  1.3301  0.0580  0.0000  0.0000  0.0000  0.0000  0.0000  0.0000 </r>
       </set>
       <set comment="band 23">
        <r>  0.2077  0.0110  0.5443  0.0000  0.0000  0.0000  0.0000  0.0000  0.0000 </r>
       </set>
       <set comment="band 24">
        <r>  0.0000  0.0000  0.0000  1.5547  0.0000  0.0000  0.0000  0.0000  0.0000 </r>
       </set>
       <set comment="band 25">
        <r>  0.0237  0.1636  2.7261  0.0000  0.0000  0.0000  0.0000  0.0000  0.0000 </r>
       </set>
       <set comment="band 26">
        <r>  0.2277  1.4832  0.3373  0.0000  0.0000  0.0000  0.0000  0.0000  0.0000 </r>
       </set>
       <set comment="band 27">
        <r>  0.0000  0.0000  0.0000  1.1399  0.0000  0.0000  0.0000  0.0000  0.0000 </r>
       </set>
       <set comment="band 28">
        <r>  0.0000  0.0000  0.0000  1.0337  0.0000  0.0000  0.0000  0.0000  0.0000 </r>
       </set>
       <set comment="band 29">
        <r>  0.3993  0.3791  0.5618  0.0000  0.0000  0.0000  0.0000  0.0000  0.0000 </r>
       </set>
       <set comment="band 30">
        <r>  0.0275  0.7955  0.0329  0.0000  0.0000  0.0000  0.0000  0.0000  0.0000 </r>
       </set>
       <set comment="band 31">
        <r>  0.0000  0.0000  0.0000  0.0730  0.0000  0.0000  0.0000  0.0000  0.0000 </r>
       </set>
       <set comment="band 32">
        <r>  0.1624  0.0004  0.5105  0.0000  0.0000  0.0000  0.0000  0.0000  0.0000 </r>
       </set>
       <set comment="band 33">
        <r>  0.4133  0.1816  0.0000  0.0000  0.0000  0.0000  0.0000  0.0000  0.0000 </r>
       </set>
       <set comment="band 34">
        <r>  0.0000  0.0000  0.0000  0.0038  0.0000  0.0000  0.0000  0.0000  0.0000 </r>
       </set>
       <set comment="band 35">
        <r>  0.2866  0.0128  0.0355  0.0000  0.0000  0.0000  0.0000  0.0000  0.0000 </r>
       </set>
       <set comment="band 36">
        <r>  0.1117  0.1296  0.1290  0.0000  0.0000  0.0000  0.0000  0.0000  0.0000 </r>
       </set>
       <set comment="band 37">
        <r>  0.0000  0.0000  0.0000  0.4929  0.0000  0.0000  0.0000  0.0000  0.0000 </r>
       </set>
       <set comment="band 38">
        <r>  0.0014  0.0440  0.0134  0.0000  0.0000  0.0000  0.0000  0.0000  0.0000 </r>
       </set>
       <set comment="band 39">
        <r>  0.0000  0.0000  0.0000  0.0156  0.0000  0.0000  0.0000  0.0000  0.0000 </r>
       </set>
       <set comment="band 40">
        <r>  0.0020  0.0197  0.0127  0.0000  0.0000  0.0000  0.0000  0.0000  0.0000 </r>
       </set>
       <set comment="band 41">
        <r>  0.0000  0.0000  0.0000  0.0246  0.0000  0.0000  0.0000  0.0000  0.0000 </r>
       </set>
       <set comment="band 42">
        <r>  0.1256  0.0071  0.0735  0.0000  0.0000  0.0000  0.0000  0.0000  0.0000 </r>
       </set>
       <set comment="band 43">
        <r>  0.0097  0.1117  0.0504  0.0000  0.0000  0.0000  0.0000  0.0000  0.0000 </r>
       </set>
       <set comment="band 44">
        <r>  0.0518  0.0585  0.0009  0.0000  0.0000  0.0000  0.0000  0.0000  0.0000 </r>
       </set>
       <set comment="band 45">
        <r>  0.0000  0.0000  0.0000  0.0749  0.0000  0.0000  0.0000  0.0000  0.0000 </r>
       </set>
       <set comment="band 46">
        <r>  0.0000  0.0000  0.0000  0.0116  0.0000  0.0000  0.0000  0.0000  0.0000 </r>
       </set>
       <set comment="band 47">
        <r>  0.0846  0.0154  0.0601  0.0000  0.0000  0.0000  0.0000  0.0000  0.0000 </r>
       </set>
       <set comment="band 48">
        <r>  0.0443  0.0453  0.0189  0.0000  0.0000  0.0000  0.0000  0.0000  0.0000 </r>
       </set>
      </set>
      <set comment="kpoint 56">
       <set comment="band 1">
        <r>  0.0478  0.0363  0.0000  0.1408  0.0000  0.0000  0.0000  0.0000  0.0000 </r>
       </set>
       <set comment="band 2">
        <r>  0.0000  0.0000  0.2248  0.0000  0.0000  0.0000  0.0000  0.0000  0.0000 </r>
       </set>
       <set comment="band 3">
        <r>  0.1915  0.0654  0.0000  0.0038  0.0000  0.0000  0.0000  0.0000  0.0000 </r>
       </set>
       <set comment="band 4">
        <r>  0.2301  0.0358  0.0000  0.0758  0.0000  0.0000  0.0000  0.0000  0.0000 </r>
       </set>
       <set comment="band 5">
        <r>  0.0234  0.0852  0.0000  0.0717  0.0000  0.0000  0.0000  0.0000  0.0000 </r>
       </set>
       <set comment="band 6">
        <r>  0.0057  0.2594  0.0000  0.0288  0.0000  0.0000  0.0000  0.0000  0.0000 </r>
       </set>
       <set comment="band 7">
        <r>  0.0000  0.0000  0.0974  0.0000  0.0000  0.0000  0.0000  0.0000  0.0000 </r>
       </set>
       <set comment="band 8">
        <r>  0.0905  0.0357  0.0000  0.0175  0.0000  0.0000  0.0000  0.0000  0.0000 </r>
       </set>
       <set comment="band 9">
        <r>  0.0000  0.0000  0.0243  0.0000  0.0000  0.0000  0.0000  0.0000  0.0000 </r>
       </set>
       <set comment="band 10">
        <r>  0.0090  0.0005  0.0000  0.0322  0.0000  0.0000  0.0000  0.0000  0.0000 </r>
       </set>
       <set comment="band 11">
        <r>  0.0000  0.0000  0.0006  0.0000  0.0000  0.0000  0.0000  0.0000  0.0000 </r>
       </set>
       <set comment="band 12">
        <r>  0.0706  0.0004  0.0000  0.1194  0.0000  0.0000  0.0000  0.0000  0.0000 </r>
       </set>
       <set comment="band 13">
        <r>  0.0000  0.0000  0.1885  0.0000  0.0000  0.0000  0.0000  0.0000  0.0000 </r>
       </set>
       <set comment="band 14">
        <r>  0.0007  0.0008  0.0000  0.0061  0.0000  0.0000  0.0000  0.0000  0.0000 </r>
       </set>
       <set comment="band 15">
        <r>  0.1247  0.0050  0.0000  0.0996  0.0000  0.0000  0.0000  0.0000  0.0000 </r>
       </set>
       <set comment="band 16">
        <r>  0.0000  0.0000  0.0122  0.0000  0.0000  0.0000  0.0000  0.0000  0.0000 </r>
       </set>
       <set comment="band 17">
        <r>  0.0000  0.0000  0.4243  0.0000  0.0000  0.0000  0.0000  0.0000  0.0000 </r>
       </set>
       <set comment="band 18">
        <r>  0.0948  0.1504  0.0000  0.2927  0.0000  0.0000  0.0000  0.0000  0.0000 </r>
       </set>
       <set comment="band 19">
        <r>  6.2583  0.5736  0.0000  0.0028  0.0000  0.0000  0.0000  0.0000  0.0000 </r>
       </set>
       <set comment="band 20">
        <r>  2.8600  1.1087  0.0000  0.1071  0.0000  0.0000  0.0000  0.0000  0.0000 </r>
       </set>
       <set comment="band 21">
        <r>  0.3966  0.3404  0.0000  0.3609  0.0000  0.0000  0.0000  0.0000  0.0000 </r>
       </set>
       <set comment="band 22">
        <r>  0.0000  0.0000  0.8040  0.0000  0.0000  0.0000  0.0000  0.0000  0.0000 </r>
       </set>
       <set comment="band 23">
        <r>  0.0000  0.0000  0.0943  0.0000  0.0000  0.0000  0.0000  0.0000  0.0000 </r>
       </set>
       <set comment="band 24">
        <r>  0.0636  0.1320  0.0000  1.4634  0.0000  0.0000  0.0000  0.0000  0.0000 </r>
       </set>
       <set comment="band 25">
        <r>  0.2680  0.2747  0.0000  0.0873  0.0000  0.0000  0.0000  0.0000  0.0000 </r>
       </set>
       <set comment="band 26">
        <r>  0.0000  0.0000  1.5680  0.0000  0.0000  0.0000  0.0000  0.0000  0.0000 </r>
       </set>
       <set comment="band 27">
        <r>  0.0000  0.0000  1.2074  0.0000  0.0000  0.0000  0.0000  0.0000  0.0000 </r>
       </set>
       <set comment="band 28">
        <r>  0.1040  0.0142  0.0000  2.1322  0.0000  0.0000  0.0000  0.0000  0.0000 </r>
       </set>
       <set comment="band 29">
        <r>  0.1363  1.6695  0.0000  0.0544  0.0000  0.0000  0.0000  0.0000  0.0000 </r>
       </set>
       <set comment="band 30">
        <r>  0.0000  0.0000  0.9272  0.0000  0.0000  0.0000  0.0000  0.0000  0.0000 </r>
       </set>
       <set comment="band 31">
        <r>  0.0176  0.8551  0.0000  0.2192  0.0000  0.0000  0.0000  0.0000  0.0000 </r>
       </set>
       <set comment="band 32">
        <r>  0.4269  0.0098  0.0000  0.2479  0.0000  0.0000  0.0000  0.0000  0.0000 </r>
       </set>
       <set comment="band 33">
        <r>  0.2614  0.0286  0.0000  0.0202  0.0000  0.0000  0.0000  0.0000  0.0000 </r>
       </set>
       <set comment="band 34">
        <r>  0.4199  0.0852  0.0000  0.0016  0.0000  0.0000  0.0000  0.0000  0.0000 </r>
       </set>
       <set comment="band 35">
        <r>  0.0000  0.0000  0.2013  0.0000  0.0000  0.0000  0.0000  0.0000  0.0000 </r>
       </set>
       <set comment="band 36">
        <r>  0.1302  0.0021  0.0000  0.0237  0.0000  0.0000  0.0000  0.0000  0.0000 </r>
       </set>
       <set comment="band 37">
        <r>  0.0000  0.0000  0.0948  0.0000  0.0000  0.0000  0.0000  0.0000  0.0000 </r>
       </set>
       <set comment="band 38">
        <r>  0.0421  0.0201  0.0000  0.3612  0.0000  0.0000  0.0000  0.0000  0.0000 </r>
       </set>
       <set comment="band 39">
        <r>  0.0020  0.0236  0.0000  0.0116  0.0000  0.0000  0.0000  0.0000  0.0000 </r>
       </set>
       <set comment="band 40">
        <r>  0.0000  0.0000  0.1600  0.0000  0.0000  0.0000  0.0000  0.0000  0.0000 </r>
       </set>
       <set comment="band 41">
        <r>  0.0103  0.1148  0.0000  0.0006  0.0000  0.0000  0.0000  0.0000  0.0000 </r>
       </set>
       <set comment="band 42">
        <r>  0.0000  0.0000  0.0070  0.0000  0.0000  0.0000  0.0000  0.0000  0.0000 </r>
       </set>
       <set comment="band 43">
        <r>  0.0000  0.0000  0.0093  0.0000  0.0000  0.0000  0.0000  0.0000  0.0000 </r>
       </set>
       <set comment="band 44">
        <r>  0.0327  0.0682  0.0000  0.0039  0.0000  0.0000  0.0000  0.0000  0.0000 </r>
       </set>
       <set comment="band 45">
        <r>  0.0066  0.0002  0.0000  0.0178  0.0000  0.0000  0.0000  0.0000  0.0000 </r>
       </set>
       <set comment="band 46">
        <r>  0.0000  0.0000  0.0153  0.0000  0.0000  0.0000  0.0000  0.0000  0.0000 </r>
       </set>
       <set comment="band 47">
        <r>  0.0794  0.1322  0.0000  0.0109  0.0000  0.0000  0.0000  0.0000  0.0000 </r>
       </set>
       <set comment="band 48">
        <r>  0.0000  0.0000  0.0717  0.0000  0.0000  0.0000  0.0000  0.0000  0.0000 </r>
       </set>
      </set>
     </set>
    </set>
   </array>
  </projected>
 </calculation>
 <structure name="finalpos" >
  <crystal>
   <varray name="basis" >
    <v>       0.00000000       2.02400000       2.02400000 </v>
    <v>       2.02400000       0.00000000       2.02400000 </v>
    <v>       2.02400000       2.02400000       0.00000000 </v>
   </varray>
   <i name="volume">     16.58293965 </i>
   <varray name="rec_basis" >
    <v>      -0.24703557       0.24703557       0.24703557 </v>
    <v>       0.24703557      -0.24703557       0.24703557 </v>
    <v>       0.24703557       0.24703557      -0.24703557 </v>
   </varray>
  </crystal>
  <varray name="positions" >
   <v>       0.00000000       0.00000000       0.00000000 </v>
  </varray>
 </structure>
</modeling>
