 running on   48 total cores
 distrk:  each k-point on   48 cores,    1 groups
 distr:  one band on    1 cores,   48 groups
 vasp.6.2.1 16May21 (build Aug 15 2022 14:47:30) complex                         
 POSCAR found type information on POSCAR Al
 POSCAR found :  1 types and       1 ions
 scaLAPACK will be used
 -----------------------------------------------------------------------------
|                                                                             |
|           W    W    AA    RRRRR   N    N  II  N    N   GGGG   !!!           |
|           W    W   A  A   R    R  NN   N  II  NN   N  G    G  !!!           |
|           W    W  A    A  R    R  N N  N  II  N N  N  G       !!!           |
|           W WW W  AAAAAA  RRRRR   N  N N  II  N  N N  G  GGG   !            |
|           WW  WW  A    A  R   R   N   NN  II  N   NN  G    G                |
|           W    W  A    A  R    R  N    N  II  N    N   GGGG   !!!           |
|                                                                             |
|     For optimal performance we recommend to set                             |
|       NCORE = 2 up to number-of-cores-per-socket                            |
|     NCORE specifies how many cores store one orbital (NPAR=cpu/NCORE).      |
|     This setting can greatly improve the performance of VASP for DFT.       |
|     The default, NCORE=1 might be grossly inefficient on modern             |
|     multi-core architectures or massively parallel machines. Do your        |
|     own testing! More info at https://www.vasp.at/wiki/index.php/NCORE      |
|     Unfortunately you need to use the default for GW and RPA                |
|     calculations (for HF NCORE is supported but not extensively tested      |
|     yet).                                                                   |
|                                                                             |
 -----------------------------------------------------------------------------

 LDA part: xc-table for Pade appr. of Perdew
 POSCAR found type information on POSCAR Al
 POSCAR found :  1 types and       1 ions
 POSCAR, INCAR and KPOINTS ok, starting setup
 FFT: planning ...
 WAVECAR not read
 entering main loop
       N       E                     dE             d eps       ncg     rms          rms(c)
DAV:   1    -0.367476330190E+01   -0.36748E+01   -0.67603E+02 16032   0.228E+01
DAV:   2    -0.368151037677E+01   -0.67471E-02   -0.68033E-02 10848   0.411E-01
DAV:   3    -0.368151044950E+01   -0.72735E-07   -0.73250E-07 20208   0.123E-03
DAV:   4    -0.368151044895E+01    0.55030E-09    0.12481E-12 10896   0.177E-07
DAV:   5    -0.368151044941E+01   -0.45240E-09    0.12775E-12 15408   0.292E-10    0.177E+00
RMM:   6    -0.375321377942E+01   -0.71703E-01   -0.22908E-03 10760   0.710E-02    0.836E-01
RMM:   7    -0.374477552803E+01    0.84383E-02   -0.89173E-04 11157   0.421E-02    0.673E-01
RMM:   8    -0.374474621683E+01    0.29311E-04   -0.17727E-04 11112   0.202E-02
   1 F= -.37447462E+01 E0= -.37447462E+01  d E =0.000000E+00  mag=    -0.0022
 -----------------------------------------------------------------------------
|                                                                             |
|           W    W    AA    RRRRR   N    N  II  N    N   GGGG   !!!           |
|           W    W   A  A   R    R  NN   N  II  NN   N  G    G  !!!           |
|           W    W  A    A  R    R  N N  N  II  N N  N  G       !!!           |
|           W WW W  AAAAAA  RRRRR   N  N N  II  N  N N  G  GGG   !            |
|           WW  WW  A    A  R   R   N   NN  II  N   NN  G    G                |
|           W    W  A    A  R    R  N    N  II  N    N   GGGG   !!!           |
|                                                                             |
|     Tetrahedron method does not include variations of the Fermi             |
|     occupations, so forces and stress will be inaccurate. We suggest        |
|     using a different smearing scheme ISMEAR = 1 or 2 for metals in         |
|     relaxations.                                                            |
|                                                                             |
 -----------------------------------------------------------------------------

