<?xml version="1.0" encoding="ISO-8859-1"?>
<modeling>
 <generator>
  <i name="program" type="string">vasp </i>
  <i name="version" type="string">6.2.1  </i>
  <i name="subversion" type="string">16May21 (build Aug 15 2022 14:47:30) complex                          parallel </i>
  <i name="platform" type="string">LinuxGNU </i>
  <i name="date" type="string">2025 12 11 </i>
  <i name="time" type="string">13:43:18 </i>
 </generator>
 <incar>
  <i type="string" name="PREC">Accurate</i>
  <i type="string" name="ALGO">Fast</i>
  <i type="int" name="ISPIN">     2</i>
  <i type="int" name="NELM">   100</i>
  <i name="EDIFF">      0.00005000</i>
  <i type="int" name="NSW">     0</i>
  <i name="ENCUT">    400.00000000</i>
  <v name="MAGMOM">      0.60000000</v>
  <i type="logical" name="LREAL"> F  </i>
  <i type="int" name="ISMEAR">    -5</i>
  <i name="SIGMA">      0.05000000</i>
  <i type="logical" name="LWAVE"> F  </i>
  <i type="logical" name="LCHARG"> T  </i>
  <i type="int" name="LORBIT">    11</i>
  <i type="logical" name="LASPH"> T  </i>
 </incar>
 <primitive_cell>
  <structure name="primitive_cell" >
   <crystal>
    <varray name="basis" >
     <v>       0.00000000       2.02400000       2.02400000 </v>
     <v>       2.02400000       0.00000000       2.02400000 </v>
     <v>       2.02400000       2.02400000       0.00000000 </v>
    </varray>
    <i name="volume">     16.58293965 </i>
    <varray name="rec_basis" >
     <v>      -0.24703557       0.24703557       0.24703557 </v>
     <v>       0.24703557      -0.24703557       0.24703557 </v>
     <v>       0.24703557       0.24703557      -0.24703557 </v>
    </varray>
   </crystal>
   <varray name="positions" >
    <v>       0.00000000       0.00000000       0.00000000 </v>
   </varray>
  </structure>
  <varray name="primitive_index" >
   <v type="int" >        1 </v>
  </varray>
 </primitive_cell>
 <kpoints>
  <generation param="Gamma">
   <v type="int" name="divisions">      11       11       11 </v>
   <v name="usershift">      0.00000000       0.00000000       0.00000000 </v>
   <v name="genvec1">      0.09090909       0.00000000       0.00000000 </v>
   <v name="genvec2">      0.00000000       0.09090909       0.00000000 </v>
   <v name="genvec3">      0.00000000       0.00000000       0.09090909 </v>
   <v name="shift">      0.00000000       0.00000000       0.00000000 </v>
  </generation>
  <varray name="kpointlist" >
   <v>       0.00000000       0.00000000       0.00000000 </v>
   <v>       0.09090909       0.00000000       0.00000000 </v>
   <v>       0.18181818       0.00000000       0.00000000 </v>
   <v>       0.27272727       0.00000000       0.00000000 </v>
   <v>       0.36363636       0.00000000       0.00000000 </v>
   <v>       0.45454545       0.00000000       0.00000000 </v>
   <v>       0.09090909       0.09090909       0.00000000 </v>
   <v>       0.18181818       0.09090909       0.00000000 </v>
   <v>       0.27272727       0.09090909       0.00000000 </v>
   <v>       0.36363636       0.09090909       0.00000000 </v>
   <v>       0.45454545       0.09090909       0.00000000 </v>
   <v>      -0.45454545       0.09090909       0.00000000 </v>
   <v>      -0.36363636       0.09090909       0.00000000 </v>
   <v>      -0.27272727       0.09090909       0.00000000 </v>
   <v>      -0.18181818       0.09090909       0.00000000 </v>
   <v>      -0.09090909       0.09090909       0.00000000 </v>
   <v>       0.18181818       0.18181818       0.00000000 </v>
   <v>       0.27272727       0.18181818       0.00000000 </v>
   <v>       0.36363636       0.18181818       0.00000000 </v>
   <v>       0.45454545       0.18181818       0.00000000 </v>
   <v>      -0.45454545       0.18181818       0.00000000 </v>
   <v>      -0.36363636       0.18181818       0.00000000 </v>
   <v>      -0.27272727       0.18181818       0.00000000 </v>
   <v>      -0.18181818       0.18181818       0.00000000 </v>
   <v>       0.27272727       0.27272727       0.00000000 </v>
   <v>       0.36363636       0.27272727       0.00000000 </v>
   <v>       0.45454545       0.27272727       0.00000000 </v>
   <v>      -0.45454545       0.27272727       0.00000000 </v>
   <v>      -0.36363636       0.27272727       0.00000000 </v>
   <v>      -0.27272727       0.27272727       0.00000000 </v>
   <v>       0.36363636       0.36363636       0.00000000 </v>
   <v>       0.45454545       0.36363636       0.00000000 </v>
   <v>      -0.45454545       0.36363636       0.00000000 </v>
   <v>      -0.36363636       0.36363636       0.00000000 </v>
   <v>       0.45454545       0.45454545       0.00000000 </v>
   <v>      -0.45454545       0.45454545       0.00000000 </v>
   <v>       0.27272727       0.18181818       0.09090909 </v>
   <v>       0.36363636       0.18181818       0.09090909 </v>
   <v>       0.45454545       0.18181818       0.09090909 </v>
   <v>      -0.45454545       0.18181818       0.09090909 </v>
   <v>       0.36363636       0.27272727       0.09090909 </v>
   <v>       0.45454545       0.27272727       0.09090909 </v>
   <v>      -0.45454545       0.27272727       0.09090909 </v>
   <v>      -0.36363636       0.27272727       0.09090909 </v>
   <v>      -0.27272727       0.27272727       0.09090909 </v>
   <v>      -0.18181818       0.27272727       0.09090909 </v>
   <v>       0.45454545       0.36363636       0.09090909 </v>
   <v>      -0.45454545       0.36363636       0.09090909 </v>
   <v>      -0.36363636       0.36363636       0.09090909 </v>
   <v>      -0.27272727       0.36363636       0.09090909 </v>
   <v>      -0.45454545       0.45454545       0.09090909 </v>
   <v>      -0.36363636       0.45454545       0.09090909 </v>
   <v>      -0.45454545       0.36363636       0.18181818 </v>
   <v>      -0.36363636       0.36363636       0.18181818 </v>
   <v>      -0.36363636       0.45454545       0.18181818 </v>
   <v>      -0.27272727       0.45454545       0.18181818 </v>
  </varray>
  <varray name="weights" >
   <v>       0.00075131 </v>
   <v>       0.00601052 </v>
   <v>       0.00601052 </v>
   <v>       0.00601052 </v>
   <v>       0.00601052 </v>
   <v>       0.00601052 </v>
   <v>       0.00450789 </v>
   <v>       0.01803156 </v>
   <v>       0.01803156 </v>
   <v>       0.01803156 </v>
   <v>       0.01803156 </v>
   <v>       0.01803156 </v>
   <v>       0.01803156 </v>
   <v>       0.01803156 </v>
   <v>       0.01803156 </v>
   <v>       0.00901578 </v>
   <v>       0.00450789 </v>
   <v>       0.01803156 </v>
   <v>       0.01803156 </v>
   <v>       0.01803156 </v>
   <v>       0.01803156 </v>
   <v>       0.01803156 </v>
   <v>       0.01803156 </v>
   <v>       0.00901578 </v>
   <v>       0.00450789 </v>
   <v>       0.01803156 </v>
   <v>       0.01803156 </v>
   <v>       0.01803156 </v>
   <v>       0.01803156 </v>
   <v>       0.00901578 </v>
   <v>       0.00450789 </v>
   <v>       0.01803156 </v>
   <v>       0.01803156 </v>
   <v>       0.00901578 </v>
   <v>       0.00450789 </v>
   <v>       0.00901578 </v>
   <v>       0.01803156 </v>
   <v>       0.03606311 </v>
   <v>       0.03606311 </v>
   <v>       0.03606311 </v>
   <v>       0.01803156 </v>
   <v>       0.03606311 </v>
   <v>       0.03606311 </v>
   <v>       0.03606311 </v>
   <v>       0.03606311 </v>
   <v>       0.01803156 </v>
   <v>       0.01803156 </v>
   <v>       0.03606311 </v>
   <v>       0.03606311 </v>
   <v>       0.01803156 </v>
   <v>       0.01803156 </v>
   <v>       0.01803156 </v>
   <v>       0.01803156 </v>
   <v>       0.03606311 </v>
   <v>       0.01803156 </v>
   <v>       0.01803156 </v>
  </varray>
  <varray name="tetrahedronlist"  type="int" >
   <v type="int" >       24        1        2        2        7 </v>
   <v type="int" >       48        2        7        8       16 </v>
   <v type="int" >       48        2        3        8       16 </v>
   <v type="int" >       24        2        2        7       16 </v>
   <v type="int" >       48        3        8        9       15 </v>
   <v type="int" >       48        3        4        9       15 </v>
   <v type="int" >       48        3        8       15       16 </v>
   <v type="int" >       48        4        9       10       14 </v>
   <v type="int" >       48        4        5       10       14 </v>
   <v type="int" >       48        4        9       14       15 </v>
   <v type="int" >       48        5       10       11       13 </v>
   <v type="int" >       48        5        6       11       13 </v>
   <v type="int" >       48        5       10       13       14 </v>
   <v type="int" >       48        6       11       12       12 </v>
   <v type="int" >       24        6        6       12       12 </v>
   <v type="int" >       48        6       11       12       13 </v>
   <v type="int" >       24        7        8        8       17 </v>
   <v type="int" >       24        7        8        8       16 </v>
   <v type="int" >       48        8       17       18       37 </v>
   <v type="int" >       48        8        9       18       37 </v>
   <v type="int" >       48        8        9       15       37 </v>
   <v type="int" >       24        8        8       17       37 </v>
   <v type="int" >       24        8        8       16       37 </v>
   <v type="int" >       48        8       15       16       37 </v>
   <v type="int" >       48        9       18       19       38 </v>
   <v type="int" >       48        9       10       19       38 </v>
   <v type="int" >       48        9       10       14       38 </v>
   <v type="int" >       48        9       18       37       38 </v>
   <v type="int" >       48        9       15       37       38 </v>
   <v type="int" >       48        9       14       15       38 </v>
   <v type="int" >       48       10       19       20       39 </v>
   <v type="int" >       48       10       11       20       39 </v>
   <v type="int" >       48       10       11       13       39 </v>
   <v type="int" >       48       10       19       38       39 </v>
   <v type="int" >       48       10       14       38       39 </v>
   <v type="int" >       48       10       13       14       39 </v>
   <v type="int" >       48       11       20       21       40 </v>
   <v type="int" >       48       11       12       21       40 </v>
   <v type="int" >       48       11       12       12       40 </v>
   <v type="int" >       48       11       20       39       40 </v>
   <v type="int" >       48       11       13       39       40 </v>
   <v type="int" >       48       11       12       13       40 </v>
   <v type="int" >       48       12       21       22       40 </v>
   <v type="int" >       48       12       13       22       40 </v>
   <v type="int" >       48       12       21       40       40 </v>
   <v type="int" >       24       12       12       40       40 </v>
   <v type="int" >       48       13       22       23       39 </v>
   <v type="int" >       48       13       14       23       39 </v>
   <v type="int" >       48       13       22       39       40 </v>
   <v type="int" >       48       14       23       24       38 </v>
   <v type="int" >       48       14       15       24       38 </v>
   <v type="int" >       48       14       23       38       39 </v>
   <v type="int" >       24       15       15       24       37 </v>
   <v type="int" >       24       15       15       16       37 </v>
   <v type="int" >       48       15       24       37       38 </v>
   <v type="int" >       24       17       18       18       25 </v>
   <v type="int" >       24       17       18       18       37 </v>
   <v type="int" >       48       18       25       26       41 </v>
   <v type="int" >       48       18       19       26       41 </v>
   <v type="int" >       48       18       19       38       41 </v>
   <v type="int" >       24       18       18       25       41 </v>
   <v type="int" >       24       18       18       37       41 </v>
   <v type="int" >       48       18       37       38       41 </v>
   <v type="int" >       48       19       26       27       42 </v>
   <v type="int" >       48       19       20       27       42 </v>
   <v type="int" >       48       19       20       39       42 </v>
   <v type="int" >       48       19       26       41       42 </v>
   <v type="int" >       48       19       38       41       42 </v>
   <v type="int" >       48       19       38       39       42 </v>
   <v type="int" >       48       20       27       28       43 </v>
   <v type="int" >       48       20       21       28       43 </v>
   <v type="int" >       48       20       21       40       43 </v>
   <v type="int" >       48       20       27       42       43 </v>
   <v type="int" >       48       20       39       42       43 </v>
   <v type="int" >       48       20       39       40       43 </v>
   <v type="int" >       48       21       28       29       44 </v>
   <v type="int" >       48       21       22       29       44 </v>
   <v type="int" >       48       21       22       40       44 </v>
   <v type="int" >       48       21       28       43       44 </v>
   <v type="int" >       48       21       40       43       44 </v>
   <v type="int" >       48       21       40       40       44 </v>
   <v type="int" >       48       22       29       30       45 </v>
   <v type="int" >       48       22       23       30       45 </v>
   <v type="int" >       48       22       23       39       45 </v>
   <v type="int" >       48       22       29       44       45 </v>
   <v type="int" >       48       22       40       44       45 </v>
   <v type="int" >       48       22       39       40       45 </v>
   <v type="int" >       24       23       23       30       46 </v>
   <v type="int" >       24       23       23       24       46 </v>
   <v type="int" >       48       23       24       38       46 </v>
   <v type="int" >       48       23       30       45       46 </v>
   <v type="int" >       48       23       39       45       46 </v>
   <v type="int" >       48       23       38       39       46 </v>
   <v type="int" >       24       24       38       38       46 </v>
   <v type="int" >       24       24       37       38       38 </v>
   <v type="int" >       24       25       26       26       31 </v>
   <v type="int" >       24       25       26       26       41 </v>
   <v type="int" >       48       26       31       32       47 </v>
   <v type="int" >       48       26       27       32       47 </v>
   <v type="int" >       48       26       27       42       47 </v>
   <v type="int" >       24       26       26       31       47 </v>
   <v type="int" >       24       26       26       41       47 </v>
   <v type="int" >       48       26       41       42       47 </v>
   <v type="int" >       48       27       32       33       48 </v>
   <v type="int" >       48       27       28       33       48 </v>
   <v type="int" >       48       27       28       43       48 </v>
   <v type="int" >       48       27       32       47       48 </v>
   <v type="int" >       48       27       42       47       48 </v>
   <v type="int" >       48       27       42       43       48 </v>
   <v type="int" >       48       28       33       34       49 </v>
   <v type="int" >       48       28       29       34       49 </v>
   <v type="int" >       48       28       29       44       49 </v>
   <v type="int" >       48       28       33       48       49 </v>
   <v type="int" >       48       28       43       48       49 </v>
   <v type="int" >       48       28       43       44       49 </v>
   <v type="int" >       24       29       29       34       50 </v>
   <v type="int" >       24       29       29       30       50 </v>
   <v type="int" >       48       29       30       45       50 </v>
   <v type="int" >       48       29       34       49       50 </v>
   <v type="int" >       48       29       44       49       50 </v>
   <v type="int" >       48       29       44       45       50 </v>
   <v type="int" >       24       30       45       45       50 </v>
   <v type="int" >       24       30       45       45       46 </v>
   <v type="int" >       24       31       32       32       35 </v>
   <v type="int" >       24       31       32       32       47 </v>
   <v type="int" >       48       32       35       36       51 </v>
   <v type="int" >       48       32       33       36       51 </v>
   <v type="int" >       48       32       33       48       51 </v>
   <v type="int" >       24       32       32       35       51 </v>
   <v type="int" >       24       32       32       47       51 </v>
   <v type="int" >       48       32       47       48       51 </v>
   <v type="int" >       24       33       33       36       52 </v>
   <v type="int" >       24       33       33       34       52 </v>
   <v type="int" >       48       33       34       49       52 </v>
   <v type="int" >       48       33       36       51       52 </v>
   <v type="int" >       48       33       48       51       52 </v>
   <v type="int" >       48       33       48       49       52 </v>
   <v type="int" >       24       34       49       49       52 </v>
   <v type="int" >       24       34       49       49       50 </v>
   <v type="int" >       12       35       35       36       36 </v>
   <v type="int" >       24       35       36       36       51 </v>
   <v type="int" >       12       36       36       51       51 </v>
   <v type="int" >       24       36       51       51       52 </v>
   <v type="int" >       24       37       38       38       41 </v>
   <v type="int" >       48       38       41       42       46 </v>
   <v type="int" >       48       38       39       42       46 </v>
   <v type="int" >       24       38       38       41       46 </v>
   <v type="int" >       48       39       42       43       45 </v>
   <v type="int" >       48       39       40       43       45 </v>
   <v type="int" >       48       39       42       45       46 </v>
   <v type="int" >       48       40       43       44       44 </v>
   <v type="int" >       24       40       40       44       44 </v>
   <v type="int" >       48       40       43       44       45 </v>
   <v type="int" >       24       41       42       42       47 </v>
   <v type="int" >       24       41       42       42       46 </v>
   <v type="int" >       48       42       47       48       53 </v>
   <v type="int" >       48       42       43       48       53 </v>
   <v type="int" >       48       42       43       45       53 </v>
   <v type="int" >       24       42       42       47       53 </v>
   <v type="int" >       24       42       42       46       53 </v>
   <v type="int" >       48       42       45       46       53 </v>
   <v type="int" >       48       43       48       49       54 </v>
   <v type="int" >       48       43       44       49       54 </v>
   <v type="int" >       48       43       44       44       54 </v>
   <v type="int" >       48       43       48       53       54 </v>
   <v type="int" >       48       43       45       53       54 </v>
   <v type="int" >       48       43       44       45       54 </v>
   <v type="int" >       48       44       49       50       54 </v>
   <v type="int" >       48       44       45       50       54 </v>
   <v type="int" >       48       44       49       54       54 </v>
   <v type="int" >       24       44       44       54       54 </v>
   <v type="int" >       24       45       45       50       53 </v>
   <v type="int" >       24       45       45       46       53 </v>
   <v type="int" >       48       45       50       53       54 </v>
   <v type="int" >       24       47       48       48       51 </v>
   <v type="int" >       24       47       48       48       53 </v>
   <v type="int" >       48       48       51       52       55 </v>
   <v type="int" >       48       48       49       52       55 </v>
   <v type="int" >       48       48       49       54       55 </v>
   <v type="int" >       24       48       48       51       55 </v>
   <v type="int" >       24       48       48       53       55 </v>
   <v type="int" >       48       48       53       54       55 </v>
   <v type="int" >       24       49       49       52       56 </v>
   <v type="int" >       24       49       49       50       56 </v>
   <v type="int" >       48       49       50       54       56 </v>
   <v type="int" >       48       49       52       55       56 </v>
   <v type="int" >       48       49       54       55       56 </v>
   <v type="int" >       48       49       54       54       56 </v>
   <v type="int" >       24       50       54       54       56 </v>
   <v type="int" >       24       50       53       54       54 </v>
   <v type="int" >       12       51       51       52       52 </v>
   <v type="int" >       24       51       52       52       55 </v>
   <v type="int" >       12       52       52       55       55 </v>
   <v type="int" >       24       52       55       55       56 </v>
   <v type="int" >       24       53       54       54       55 </v>
   <v type="int" >       48       54       55       56       56 </v>
   <v type="int" >       24       54       54       56       56 </v>
   <v type="int" >       24       54       54       55       56 </v>
   <v type="int" >       12       55       55       56       56 </v>
   <v type="int" >       24       55       56       56       56 </v>
   <v type="int" >        6       56       56       56       56 </v>
  </varray>
  <i name="volumeweight">      0.00012522 </i>
 </kpoints>
 <parameters>
  <separator name="general" >
   <i type="string" name="SYSTEM">unknown system</i>
   <i type="logical" name="LCOMPAT"> F  </i>
  </separator>
  <separator name="electronic" >
   <i type="string" name="PREC">accura</i>
   <i name="ENMAX">    400.00000000</i>
   <i name="ENAUG">    291.05200000</i>
   <i name="EDIFF">      0.00005000</i>
   <i type="int" name="IALGO">    68</i>
   <i type="int" name="IWAVPR">    10</i>
   <i type="int" name="NBANDS">    48</i>
   <i type="int" name="NBANDSLOW">    -1</i>
   <i type="int" name="NBANDSHIGH">    -1</i>
   <i name="NELECT">      3.00000000</i>
   <i type="int" name="TURBO">     0</i>
   <i type="int" name="IRESTART">     0</i>
   <i type="int" name="NREBOOT">     0</i>
   <i type="int" name="NMIN">     0</i>
   <i name="EREF">      0.00000000</i>
   <separator name="electronic smearing" >
    <i type="int" name="ISMEAR">    -5</i>
    <i name="SIGMA">      0.05000000</i>
    <i name="KSPACING">      0.50000000</i>
    <i type="logical" name="KGAMMA"> T  </i>
    <i type="logical" name="KBLOWUP"> T  </i>
   </separator>
   <separator name="electronic projectors" >
    <i type="logical" name="LREAL"> F  </i>
    <v name="ROPT">      0.00000000</v>
    <i type="int" name="LMAXPAW">  -100</i>
    <i type="int" name="LMAXMIX">     2</i>
    <i type="logical" name="NLSPLINE"> F  </i>
   </separator>
   <separator name="electronic startup" >
    <i type="int" name="ISTART">     0</i>
    <i type="int" name="ICHARG">     2</i>
    <i type="int" name="INIWAV">     1</i>
   </separator>
   <separator name="electronic spin" >
    <i type="int" name="ISPIN">     2</i>
    <i type="logical" name="LNONCOLLINEAR"> F  </i>
    <v name="MAGMOM">      0.60000000</v>
    <i name="NUPDOWN">     -1.00000000</i>
    <i type="logical" name="LSORBIT"> F  </i>
    <v name="SAXIS">      0.00000000      0.00000000      1.00000000</v>
    <i type="logical" name="LSPIRAL"> F  </i>
    <v name="QSPIRAL">      0.00000000      0.00000000      0.00000000</v>
    <i type="logical" name="LZEROZ"> F  </i>
   </separator>
   <separator name="electronic exchange-correlation" >
    <i type="logical" name="LASPH"> T  </i>
    <i type="logical" name="LMETAGGA"> F  </i>
   </separator>
   <separator name="electronic convergence" >
    <i type="int" name="NELM">   100</i>
    <i type="int" name="NELMDL">    -5</i>
    <i type="int" name="NELMIN">     2</i>
    <i name="ENINI">    400.00000000</i>
    <separator name="electronic convergence detail" >
     <i type="logical" name="LDIAG"> T  </i>
     <i type="logical" name="LSUBROT"> F  </i>
     <i name="WEIMIN">      0.00000000</i>
     <i name="EBREAK">      0.00000026</i>
     <i name="DEPER">      0.30000000</i>
     <i type="int" name="NRMM">     4</i>
     <i name="TIME">      0.40000000</i>
    </separator>
   </separator>
   <separator name="electronic mixer" >
    <i name="AMIX">      0.40000000</i>
    <i name="BMIX">      1.00000000</i>
    <i name="AMIN">      0.10000000</i>
    <i name="AMIX_MAG">      1.60000000</i>
    <i name="BMIX_MAG">      1.00000000</i>
    <separator name="electronic mixer details" >
     <i type="int" name="IMIX">     4</i>
     <i type="logical" name="MIXFIRST"> F  </i>
     <i type="int" name="MAXMIX">   -45</i>
     <i name="WC">    100.00000000</i>
     <i type="int" name="INIMIX">     1</i>
     <i type="int" name="MIXPRE">     1</i>
     <i type="int" name="MREMOVE">     5</i>
    </separator>
   </separator>
   <separator name="electronic dipolcorrection" >
    <i type="logical" name="LDIPOL"> F  </i>
    <i type="logical" name="LMONO"> F  </i>
    <i type="int" name="IDIPOL">     0</i>
    <i name="EPSILON">      1.00000000</i>
    <v name="DIPOL">   -100.00000000   -100.00000000   -100.00000000</v>
    <i name="EFIELD">      0.00000000</i>
   </separator>
  </separator>
  <separator name="grids" >
   <i type="int" name="NGX">    20</i>
   <i type="int" name="NGY">    20</i>
   <i type="int" name="NGZ">    20</i>
   <i type="int" name="NGXF">    40</i>
   <i type="int" name="NGYF">    40</i>
   <i type="int" name="NGZF">    40</i>
   <i type="logical" name="ADDGRID"> F  </i>
  </separator>
  <separator name="ionic" >
   <i type="int" name="NSW">     0</i>
   <i type="int" name="IBRION">    -1</i>
   <i type="int" name="MDALGO">     0</i>
   <i type="int" name="ISIF">     2</i>
   <i name="PSTRESS">      0.00000000</i>
   <i name="EDIFFG">      0.00050000</i>
   <i type="int" name="NFREE">     0</i>
   <i name="POTIM">      0.50000000</i>
   <i name="SMASS">     -3.00000000</i>
   <i name="SCALEE">      1.00000000</i>
  </separator>
  <separator name="ionic md" >
   <i name="TEBEG">      0.00010000</i>
   <i name="TEEND">      0.00010000</i>
   <i type="int" name="NBLOCK">     1</i>
   <i type="int" name="KBLOCK">     1</i>
   <i type="int" name="NPACO">   256</i>
   <i name="APACO">     16.00000000</i>
  </separator>
  <separator name="symmetry" >
   <i type="int" name="ISYM">     2</i>
   <i name="SYMPREC">      0.00001000</i>
  </separator>
  <separator name="dos" >
   <i type="int" name="LORBIT">    11</i>
   <v name="RWIGS">     -1.00000000</v>
   <i type="int" name="NEDOS">   301</i>
   <i name="EMIN">     10.00000000</i>
   <i name="EMAX">    -10.00000000</i>
   <i name="EFERMI">      0.00000000</i>
  </separator>
  <separator name="writing" >
   <i type="int" name="NWRITE">     2</i>
   <i type="logical" name="LWAVE"> F  </i>
   <i type="logical" name="LDOWNSAMPLE"> F  </i>
   <i type="logical" name="LCHARG"> T  </i>
   <i type="logical" name="LPARD"> F  </i>
   <i type="logical" name="LVTOT"> F  </i>
   <i type="logical" name="LVHAR"> F  </i>
   <i type="logical" name="LELF"> F  </i>
   <i type="logical" name="LOPTICS"> F  </i>
   <v name="STM">      0.00000000      0.00000000      0.00000000      0.00000000      0.00000000      0.00000000      0.00000000</v>
  </separator>
  <separator name="performance" >
   <i type="int" name="NPAR">    48</i>
   <i type="int" name="NSIM">     4</i>
   <i type="int" name="NBLK">    -1</i>
   <i type="logical" name="LPLANE"> T  </i>
   <i type="logical" name="LSCALAPACK"> T  </i>
   <i type="logical" name="LSCAAWARE"> T  </i>
   <i type="logical" name="LSCALU"> F  </i>
   <i type="logical" name="LASYNC"> F  </i>
   <i type="logical" name="LORBITALREAL"> F  </i>
  </separator>
  <separator name="miscellaneous" >
   <i type="int" name="IDIOT">     3</i>
   <i type="int" name="PHON_NSTRUCT">    -1</i>
   <i type="logical" name="LMUSIC"> F  </i>
   <v name="POMASS">     26.98100000</v>
   <v name="DARWINR">      0.00000000</v>
   <v name="DARWINV">      1.00000000</v>
   <i type="logical" name="LCORR"> T  </i>
  </separator>
  <i type="logical" name="GGA_COMPAT"> T  </i>
  <i type="logical" name="LBERRY"> F  </i>
  <i type="int" name="ICORELEVEL">     0</i>
  <i type="logical" name="LDAU"> F  </i>
  <i type="int" name="I_CONSTRAINED_M">     0</i>
  <separator name="electronic exchange-correlation" >
   <i type="string" name="GGA">--</i>
   <i type="int" name="VOSKOWN">     0</i>
   <i type="logical" name="LHFCALC"> F  </i>
   <i type="string" name="PRECFOCK"></i>
   <i type="logical" name="LSYMGRAD"> F  </i>
   <i type="logical" name="LHFONE"> F  </i>
   <i type="logical" name="LRHFCALC"> F  </i>
   <i type="logical" name="LTHOMAS"> F  </i>
   <i type="logical" name="LMODELHF"> F  </i>
   <i type="logical" name="LFOCKACE"> F  </i>
   <i name="ENCUT4O">     -1.00000000</i>
   <i type="int" name="EXXOEP">     0</i>
   <i type="int" name="FOURORBIT">     0</i>
   <i name="AEXX">      0.00000000</i>
   <i name="HFALPHA">      0.00000000</i>
   <i name="MCALPHA">      0.00000000</i>
   <i name="ALDAX">      1.00000000</i>
   <i name="AGGAX">      1.00000000</i>
   <i name="ALDAC">      1.00000000</i>
   <i name="AGGAC">      1.00000000</i>
   <i type="int" name="NKREDX">     1</i>
   <i type="int" name="NKREDY">     1</i>
   <i type="int" name="NKREDZ">     1</i>
   <i type="logical" name="SHIFTRED"> F  </i>
   <i type="logical" name="ODDONLY"> F  </i>
   <i type="logical" name="EVENONLY"> F  </i>
   <i type="int" name="LMAXFOCK">     0</i>
   <i type="int" name="NMAXFOCKAE">     0</i>
   <i type="logical" name="LFOCKAEDFT"> F  </i>
   <i name="HFSCREEN">      0.00000000</i>
   <i name="HFSCREENC">      0.00000000</i>
   <i type="int" name="NBANDSGWLOW">     0</i>
  </separator>
  <separator name="vdW DFT" >
   <i type="logical" name="LUSE_VDW"> F  </i>
   <i name="Zab_VDW">     -0.84910000</i>
   <i name="PARAM1">      0.12340000</i>
   <i name="PARAM2">      1.00000000</i>
   <i name="PARAM3">      0.00000000</i>
  </separator>
  <separator name="model GW" >
   <i type="int" name="MODEL_GW">     0</i>
   <i name="MODEL_EPS0">      9.94976379</i>
   <i name="MODEL_ALPHA">      1.00000000</i>
  </separator>
  <separator name="linear response parameters" >
   <i type="logical" name="LEPSILON"> F  </i>
   <i type="logical" name="LRPA"> F  </i>
   <i type="logical" name="LNABLA"> F  </i>
   <i type="logical" name="LVEL"> F  </i>
   <i type="int" name="KINTER">     0</i>
   <i name="CSHIFT">      0.10000000</i>
   <i name="OMEGAMAX">     -1.00000000</i>
   <i name="DEG_THRESHOLD">      0.00200000</i>
   <i name="RTIME">     -0.10000000</i>
   <i name="WPLASMAI">      0.00000000</i>
   <v name="DFIELD">      0.00000000      0.00000000      0.00000000</v>
   <v name="WPLASMA">      0.00000000      0.00000000      0.00000000      0.00000000      0.00000000      0.00000000      0.00000000      0.00000000      0.00000000</v>
  </separator>
  <separator name="orbital magnetization" >
   <i type="logical" name="NUCIND"> F  </i>
   <v name="MAGPOS">      0.00000000      0.00000000      0.00000000</v>
   <i type="logical" name="LNICSALL"> T  </i>
   <i type="logical" name="ORBITALMAG"> F  </i>
   <i type="logical" name="LMAGBLOCH"> F  </i>
   <i type="logical" name="LCHIMAG"> F  </i>
   <i type="logical" name="LGAUGE"> T  </i>
   <i type="int" name="MAGATOM">     0</i>
   <v name="MAGDIPOL">      0.00000000      0.00000000      0.00000000</v>
   <v name="AVECCONST">      0.00000000      0.00000000      0.00000000</v>
  </separator>
  <separator name="response functions" >
   <i type="logical" name="LFINITE_TEMPERATURE"> F  </i>
   <i type="logical" name="LADDER"> F  </i>
   <i type="logical" name="LRPAFORCE"> F  </i>
   <i type="logical" name="LFXC"> F  </i>
   <i type="logical" name="LHARTREE"> T  </i>
   <i type="int" name="IBSE">     0</i>
   <v type="int" name="KPOINT">    -1     0     0     0</v>
   <i type="logical" name="LTCTC"> F  </i>
   <i type="logical" name="LTCTE"> F  </i>
   <i type="logical" name="LTETE"> F  </i>
   <i type="logical" name="LTRIPLET"> F  </i>
   <i type="logical" name="LFXCEPS"> F  </i>
   <i type="logical" name="LFXHEG"> F  </i>
   <i type="int" name="NATURALO">     2</i>
   <i type="logical" name="LHOLEGF"> F  </i>
   <i type="logical" name="L2ORDER"> F  </i>
   <i type="logical" name="LDMP1"> F  </i>
   <i type="logical" name="LMP2LT"> F  </i>
   <i type="logical" name="LSMP2LT"> F  </i>
   <i type="logical" name="LGWLF"> F  </i>
   <i name="ENCUTGW">     -2.00000000</i>
   <i name="ENCUTGWSOFT">     -2.00000000</i>
   <i name="ENCUTLF">     -1.00000000</i>
   <i type="logical" name="LESF_SPLINES"> F  </i>
   <i type="int" name="LMAXMP2">    -1</i>
   <i name="SCISSOR">      0.00000000</i>
   <i type="int" name="NOMEGA">     0</i>
   <i type="int" name="NOMEGAR">     0</i>
   <i type="int" name="NBANDSGW">    -1</i>
   <i type="int" name="NBANDSO">    -1</i>
   <i type="int" name="NBANDSV">    -1</i>
   <i type="int" name="NELM">   100</i>
   <i type="int" name="NELMHF">     1</i>
   <i type="int" name="DIM">     3</i>
   <i type="int" name="IESPILON">     4</i>
   <i type="int" name="ANTIRES">     0</i>
   <i name="OMEGAMAX">    -30.00000000</i>
   <i name="OMEGAMIN">    -30.00000000</i>
   <i name="OMEGATL">   -200.00000000</i>
   <i type="int" name="OMEGAGRID">     0</i>
   <i name="CSHIFT">     -0.10000000</i>
   <i type="logical" name="LSELFENERGY"> F  </i>
   <i type="logical" name="LSPECTRAL"> F  </i>
   <i type="logical" name="LSPECTRALGW"> F  </i>
   <i type="logical" name="LSINGLES"> F  </i>
   <i type="logical" name="LFERMIGW"> F  </i>
   <i type="logical" name="ODDONLYGW"> F  </i>
   <i type="logical" name="EVENONLYGW"> F  </i>
   <i type="int" name="NKREDLFX">     1</i>
   <i type="int" name="NKREDLFY">     1</i>
   <i type="int" name="NKREDLFZ">     1</i>
   <i type="int" name="MAXMEM">  2800</i>
   <i type="int" name="TELESCOPE">     0</i>
   <i type="int" name="NTAUPAR">    -1</i>
   <i type="int" name="NOMEGAPAR">    -1</i>
   <i name="DAMP_NEWTON">      0.80000001</i>
   <i name="LAMBDA">      1.00000000</i>
  </separator>
  <separator name="External order field" >
   <i name="OFIELD_KAPPA">      0.00000000</i>
   <v name="OFIELD_K">      0.00000000      0.00000000      0.00000000</v>
   <i name="OFIELD_Q6_NEAR">      0.00000000</i>
   <i name="OFIELD_Q6_FAR">      0.00000000</i>
   <i name="OFIELD_A">      0.00000000</i>
  </separator>
 </parameters>
 <atominfo>
  <atoms>       1 </atoms>
  <types>       1 </types>
  <array name="atoms" >
   <dimension dim="1">ion</dimension>
   <field type="string">element</field>
   <field type="int">atomtype</field>
   <set>
    <rc><c>Al</c><c>   1</c></rc>
   </set>
  </array>
  <array name="atomtypes" >
   <dimension dim="1">type</dimension>
   <field type="int">atomspertype</field>
   <field type="string">element</field>
   <field>mass</field>
   <field>valence</field>
   <field type="string">pseudopotential</field>
   <set>
    <rc><c>   1</c><c>Al</c><c>     26.98100000</c><c>      3.00000000</c><c>  PAW_PBE Al 04Jan2001                  </c></rc>
   </set>
  </array>
 </atominfo>
 <structure name="initialpos" >
  <crystal>
   <varray name="basis" >
    <v>       0.00000000       2.02400000       2.02400000 </v>
    <v>       2.02400000       0.00000000       2.02400000 </v>
    <v>       2.02400000       2.02400000       0.00000000 </v>
   </varray>
   <i name="volume">     16.58293965 </i>
   <varray name="rec_basis" >
    <v>      -0.24703557       0.24703557       0.24703557 </v>
    <v>       0.24703557      -0.24703557       0.24703557 </v>
    <v>       0.24703557       0.24703557      -0.24703557 </v>
   </varray>
  </crystal>
  <varray name="positions" >
   <v>       0.00000000       0.00000000       0.00000000 </v>
  </varray>
 </structure>
 <calculation>
  <scstep>
   <time name="dav">   13.85   13.85</time>
   <time name="total">   14.25   14.25</time>
   <energy>
    <i name="alphaZ">     -0.20254611 </i>
    <i name="ewald">    -73.39295237 </i>
    <i name="hartreedc">     -0.10329695 </i>
    <i name="XCdc">    -26.19545329 </i>
    <i name="pawpsdc">     66.16230985 </i>
    <i name="pawaedc">    -34.20858819 </i>
    <i name="eentropy">      0.00000000 </i>
    <i name="bandstr">     10.73533745 </i>
    <i name="atom">     53.53815432 </i>
    <i name="e_fr_energy">     -3.66703530 </i>
    <i name="e_wo_entrp">     -3.66703530 </i>
    <i name="e_0_energy">     -3.66703530 </i>
   </energy>
  </scstep>
  <scstep>
   <time name="dav">    7.37    7.37</time>
   <time name="total">    7.42    7.42</time>
   <energy>
    <i name="e_fr_energy">     -3.68230484 </i>
    <i name="e_wo_entrp">     -3.68230484 </i>
    <i name="e_0_energy">     -3.68230484 </i>
   </energy>
  </scstep>
  <scstep>
   <time name="dav">   26.63   26.63</time>
   <time name="total">   26.67   26.67</time>
   <energy>
    <i name="e_fr_energy">     -3.68230520 </i>
    <i name="e_wo_entrp">     -3.68230520 </i>
    <i name="e_0_energy">     -3.68230520 </i>
   </energy>
  </scstep>
  <scstep>
   <time name="dav">    6.73    6.73</time>
   <time name="total">    6.77    6.77</time>
   <energy>
    <i name="e_fr_energy">     -3.68230520 </i>
    <i name="e_wo_entrp">     -3.68230520 </i>
    <i name="e_0_energy">     -3.68230520 </i>
   </energy>
  </scstep>
  <scstep>
   <time name="dav">   11.59   11.59</time>
   <time name="total">   11.65   11.65</time>
   <energy>
    <i name="e_fr_energy">     -3.68230520 </i>
    <i name="e_wo_entrp">     -3.68230520 </i>
    <i name="e_0_energy">     -3.68230520 </i>
   </energy>
  </scstep>
  <scstep>
   <time name="diag">    0.59    0.59</time>
   <time name="diis">    0.08    0.08</time>
   <time name="orth">    0.06    0.06</time>
   <time name="total">    1.06    1.06</time>
   <energy>
    <i name="e_fr_energy">     -3.75396640 </i>
    <i name="e_wo_entrp">     -3.75396640 </i>
    <i name="e_0_energy">     -3.75396640 </i>
   </energy>
  </scstep>
  <scstep>
   <time name="diag">    0.40    0.40</time>
   <time name="diis">    0.09    0.09</time>
   <time name="orth">    0.14    0.14</time>
   <time name="total">    0.89    0.89</time>
   <energy>
    <i name="e_fr_energy">     -3.74553687 </i>
    <i name="e_wo_entrp">     -3.74553687 </i>
    <i name="e_0_energy">     -3.74553687 </i>
   </energy>
  </scstep>
  <scstep>
   <time name="diag">    0.39    0.39</time>
   <time name="diis">    0.10    0.10</time>
   <time name="orth">    0.06    0.06</time>
   <time name="total">    0.82    0.82</time>
   <energy>
    <i name="alphaZ">     -0.20254611 </i>
    <i name="ewald">    -73.39295237 </i>
    <i name="hartreedc">     -0.10224745 </i>
    <i name="XCdc">    -26.14608606 </i>
    <i name="pawpsdc">    145.75488477 </i>
    <i name="pawaedc">   -113.80926606 </i>
    <i name="eentropy">      0.00000000 </i>
    <i name="bandstr">     10.61456561 </i>
    <i name="atom">     53.53815432 </i>
    <i name="e_fr_energy">     -3.74549336 </i>
    <i name="e_wo_entrp">     -3.74549336 </i>
    <i name="e_0_energy">     -3.74549336 </i>
   </energy>
  </scstep>
  <structure>
   <crystal>
    <varray name="basis" >
     <v>       0.00000000       2.02400000       2.02400000 </v>
     <v>       2.02400000       0.00000000       2.02400000 </v>
     <v>       2.02400000       2.02400000       0.00000000 </v>
    </varray>
    <i name="volume">     16.58293965 </i>
    <varray name="rec_basis" >
     <v>      -0.24703557       0.24703557       0.24703557 </v>
     <v>       0.24703557      -0.24703557       0.24703557 </v>
     <v>       0.24703557       0.24703557      -0.24703557 </v>
    </varray>
   </crystal>
   <varray name="positions" >
    <v>       0.00000000       0.00000000       0.00000000 </v>
   </varray>
  </structure>
  <varray name="forces" >
   <v>      -0.00000000       0.00000000      -0.00000000 </v>
  </varray>
  <varray name="stress" >
   <v>     -10.35559611       0.00000000      -0.00000000 </v>
   <v>       0.00000000     -10.35559611      -0.00000000 </v>
   <v>       0.00000000       0.00000000     -10.35559611 </v>
  </varray>
  <energy>
   <i name="e_fr_energy">     -3.74549336 </i>
   <i name="e_wo_entrp">     -3.74549336 </i>
   <i name="e_0_energy">     -3.74549336 </i>
  </energy>
  <time name="totalsc">   71.66   71.66</time>
  <eigenvalues>
   <array>
    <dimension dim="1">band</dimension>
    <dimension dim="2">kpoint</dimension>
    <dimension dim="3">spin</dimension>
    <field>eigene</field>
    <field>occ</field>
    <set>
     <set comment="spin 1">
      <set comment="kpoint 1">
       <r>   -3.1603    1.0000 </r>
       <r>   20.5359    0.0000 </r>
       <r>   20.5359    0.0000 </r>
       <r>   20.5359    0.0000 </r>
       <r>   21.9806    0.0000 </r>
       <r>   21.9806    0.0000 </r>
       <r>   21.9806    0.0000 </r>
       <r>   24.3801    0.0000 </r>
       <r>   27.3111    0.0000 </r>
       <r>   27.3111    0.0000 </r>
       <r>   30.1518    0.0000 </r>
       <r>   32.5053    0.0000 </r>
       <r>   32.5053    0.0000 </r>
       <r>   32.5053    0.0000 </r>
       <r>   41.0738    0.0000 </r>
       <r>   56.3292    0.0000 </r>
       <r>   56.8756    0.0000 </r>
       <r>   56.8757    0.0000 </r>
       <r>   56.8757    0.0000 </r>
       <r>   59.2516    0.0000 </r>
       <r>   59.2516    0.0000 </r>
       <r>   59.2516    0.0000 </r>
       <r>   62.8620    0.0000 </r>
       <r>   62.8620    0.0000 </r>
       <r>   65.0786    0.0000 </r>
       <r>   65.0786    0.0000 </r>
       <r>   65.0786    0.0000 </r>
       <r>   73.3119    0.0000 </r>
       <r>   73.3120    0.0000 </r>
       <r>   73.3120    0.0000 </r>
       <r>   80.8383    0.0000 </r>
       <r>   83.1397    0.0000 </r>
       <r>   83.1397    0.0000 </r>
       <r>   87.2518    0.0000 </r>
       <r>   87.2518    0.0000 </r>
       <r>   87.2518    0.0000 </r>
       <r>   90.1242    0.0000 </r>
       <r>   90.1243    0.0000 </r>
       <r>   90.1243    0.0000 </r>
       <r>   90.9365    0.0000 </r>
       <r>   93.4731    0.0000 </r>
       <r>   93.4731    0.0000 </r>
       <r>   93.4731    0.0000 </r>
       <r>   93.9311    0.0000 </r>
       <r>   93.9311    0.0000 </r>
       <r>   93.9311    0.0000 </r>
       <r>   96.3754    0.0000 </r>
       <r>   96.3754    0.0000 </r>
      </set>
      <set comment="kpoint 2">
       <r>   -2.9365    1.0000 </r>
       <r>   17.6118    0.0000 </r>
       <r>   19.8863    0.0000 </r>
       <r>   19.8863    0.0000 </r>
       <r>   22.6616    0.0000 </r>
       <r>   22.9694    0.0000 </r>
       <r>   22.9694    0.0000 </r>
       <r>   26.1958    0.0000 </r>
       <r>   26.1958    0.0000 </r>
       <r>   26.4714    0.0000 </r>
       <r>   29.4004    0.0000 </r>
       <r>   33.5981    0.0000 </r>
       <r>   34.0767    0.0000 </r>
       <r>   34.0767    0.0000 </r>
       <r>   41.9497    0.0000 </r>
       <r>   55.6427    0.0000 </r>
       <r>   56.0213    0.0000 </r>
       <r>   56.0213    0.0000 </r>
       <r>   56.8883    0.0000 </r>
       <r>   57.5837    0.0000 </r>
       <r>   57.5837    0.0000 </r>
       <r>   59.4559    0.0000 </r>
       <r>   61.6086    0.0000 </r>
       <r>   61.6086    0.0000 </r>
       <r>   65.2779    0.0000 </r>
       <r>   68.9704    0.0000 </r>
       <r>   68.9704    0.0000 </r>
       <r>   71.5960    0.0000 </r>
       <r>   73.0635    0.0000 </r>
       <r>   73.0635    0.0000 </r>
       <r>   81.8750    0.0000 </r>
       <r>   81.8750    0.0000 </r>
       <r>   82.3338    0.0000 </r>
       <r>   84.1415    0.0000 </r>
       <r>   85.8339    0.0000 </r>
       <r>   85.8339    0.0000 </r>
       <r>   88.0042    0.0000 </r>
       <r>   88.0042    0.0000 </r>
       <r>   89.0020    0.0000 </r>
       <r>   90.1283    0.0000 </r>
       <r>   91.3253    0.0000 </r>
       <r>   91.3253    0.0000 </r>
       <r>   92.9328    0.0000 </r>
       <r>   94.8100    0.0000 </r>
       <r>   95.6680    0.0000 </r>
       <r>   95.6680    0.0000 </r>
       <r>   97.1178    0.0000 </r>
       <r>   97.1179    0.0000 </r>
      </set>
      <set comment="kpoint 3">
       <r>   -2.2671    1.0000 </r>
       <r>   13.9662    0.0000 </r>
       <r>   19.1516    0.0000 </r>
       <r>   19.1516    0.0000 </r>
       <r>   22.4310    0.0000 </r>
       <r>   23.7932    0.0000 </r>
       <r>   23.7932    0.0000 </r>
       <r>   25.3089    0.0000 </r>
       <r>   25.3089    0.0000 </r>
       <r>   27.8855    0.0000 </r>
       <r>   29.9793    0.0000 </r>
       <r>   36.4263    0.0000 </r>
       <r>   37.2317    0.0000 </r>
       <r>   37.2317    0.0000 </r>
       <r>   44.1581    0.0000 </r>
       <r>   51.7530    0.0000 </r>
       <r>   51.7530    0.0000 </r>
       <r>   54.1759    0.0000 </r>
       <r>   56.8640    0.0000 </r>
       <r>   57.0907    0.0000 </r>
       <r>   57.0907    0.0000 </r>
       <r>   59.3997    0.0000 </r>
       <r>   61.7504    0.0000 </r>
       <r>   61.7504    0.0000 </r>
       <r>   65.8683    0.0000 </r>
       <r>   68.9393    0.0000 </r>
       <r>   71.1254    0.0000 </r>
       <r>   71.1254    0.0000 </r>
       <r>   74.0003    0.0000 </r>
       <r>   74.0003    0.0000 </r>
       <r>   78.8651    0.0000 </r>
       <r>   79.0057    0.0000 </r>
       <r>   79.0057    0.0000 </r>
       <r>   82.8282    0.0000 </r>
       <r>   82.8282    0.0000 </r>
       <r>   84.8180    0.0000 </r>
       <r>   85.6656    0.0000 </r>
       <r>   86.6257    0.0000 </r>
       <r>   86.6257    0.0000 </r>
       <r>   87.5525    0.0000 </r>
       <r>   89.4741    0.0000 </r>
       <r>   90.0295    0.0000 </r>
       <r>   90.0295    0.0000 </r>
       <r>   93.9595    0.0000 </r>
       <r>   97.3090    0.0000 </r>
       <r>   97.3090    0.0000 </r>
       <r>   99.5263    0.0000 </r>
       <r>   99.5263    0.0000 </r>
      </set>
      <set comment="kpoint 4">
       <r>   -1.1584    1.0000 </r>
       <r>   10.5411   -0.0167 </r>
       <r>   18.7423    0.0000 </r>
       <r>   18.7423    0.0000 </r>
       <r>   22.2200    0.0000 </r>
       <r>   22.2491    0.0000 </r>
       <r>   22.2491    0.0000 </r>
       <r>   26.2411    0.0000 </r>
       <r>   27.3558    0.0000 </r>
       <r>   27.3558    0.0000 </r>
       <r>   33.3141    0.0000 </r>
       <r>   40.5161    0.0000 </r>
       <r>   40.8517    0.0000 </r>
       <r>   40.8517    0.0000 </r>
       <r>   47.0605    0.0000 </r>
       <r>   47.3886    0.0000 </r>
       <r>   47.3886    0.0000 </r>
       <r>   52.0625    0.0000 </r>
       <r>   57.0722    0.0000 </r>
       <r>   57.2305    0.0000 </r>
       <r>   57.2305    0.0000 </r>
       <r>   58.8002    0.0000 </r>
       <r>   62.2050    0.0000 </r>
       <r>   62.2050    0.0000 </r>
       <r>   66.4389    0.0000 </r>
       <r>   66.8078    0.0000 </r>
       <r>   67.8627    0.0000 </r>
       <r>   67.8627    0.0000 </r>
       <r>   74.4651    0.0000 </r>
       <r>   74.4651    0.0000 </r>
       <r>   75.7528    0.0000 </r>
       <r>   78.3843    0.0000 </r>
       <r>   79.1637    0.0000 </r>
       <r>   79.1637    0.0000 </r>
       <r>   80.0128    0.0000 </r>
       <r>   80.0128    0.0000 </r>
       <r>   81.1792    0.0000 </r>
       <r>   88.1944    0.0000 </r>
       <r>   88.1944    0.0000 </r>
       <r>   88.7741    0.0000 </r>
       <r>   89.5086    0.0000 </r>
       <r>   89.5086    0.0000 </r>
       <r>   91.1703    0.0000 </r>
       <r>   93.1603    0.0000 </r>
       <r>   97.5453    0.0000 </r>
       <r>   97.5453    0.0000 </r>
       <r>  101.5480    0.0000 </r>
       <r>  102.5221    0.0000 </r>
      </set>
      <set comment="kpoint 5">
       <r>    0.3798    1.0000 </r>
       <r>    7.4384    0.7152 </r>
       <r>   18.6981    0.0000 </r>
       <r>   18.6981    0.0000 </r>
       <r>   20.8197    0.0000 </r>
       <r>   20.8197    0.0000 </r>
       <r>   22.2916    0.0000 </r>
       <r>   24.7544    0.0000 </r>
       <r>   29.8867    0.0000 </r>
       <r>   29.8867    0.0000 </r>
       <r>   36.4441    0.0000 </r>
       <r>   41.9097    0.0000 </r>
       <r>   41.9097    0.0000 </r>
       <r>   45.0636    0.0000 </r>
       <r>   46.4462    0.0000 </r>
       <r>   46.4462    0.0000 </r>
       <r>   48.3781    0.0000 </r>
       <r>   51.8085    0.0000 </r>
       <r>   57.1548    0.0000 </r>
       <r>   57.1548    0.0000 </r>
       <r>   57.1548    0.0000 </r>
       <r>   57.3900    0.0000 </r>
       <r>   61.3889    0.0000 </r>
       <r>   61.3889    0.0000 </r>
       <r>   64.1720    0.0000 </r>
       <r>   64.4300    0.0000 </r>
       <r>   64.4300    0.0000 </r>
       <r>   67.9702    0.0000 </r>
       <r>   69.6826    0.0000 </r>
       <r>   73.8817    0.0000 </r>
       <r>   73.8817    0.0000 </r>
       <r>   76.5907    0.0000 </r>
       <r>   76.9773    0.0000 </r>
       <r>   76.9773    0.0000 </r>
       <r>   78.2154    0.0000 </r>
       <r>   80.5615    0.0000 </r>
       <r>   80.5616    0.0000 </r>
       <r>   88.5726    0.0000 </r>
       <r>   89.1445    0.0000 </r>
       <r>   89.1445    0.0000 </r>
       <r>   90.4990    0.0000 </r>
       <r>   92.0422    0.0000 </r>
       <r>   92.0422    0.0000 </r>
       <r>   94.4094    0.0000 </r>
       <r>   99.0187    0.0000 </r>
       <r>   99.0187    0.0000 </r>
       <r>  102.3670    0.0000 </r>
       <r>  104.2278    0.0000 </r>
      </set>
      <set comment="kpoint 6">
       <r>    2.3327    1.0000 </r>
       <r>    4.6991    1.0000 </r>
       <r>   19.0273    0.0000 </r>
       <r>   19.0273    0.0000 </r>
       <r>   19.7405    0.0000 </r>
       <r>   19.7405    0.0000 </r>
       <r>   22.7296    0.0000 </r>
       <r>   23.5666    0.0000 </r>
       <r>   32.2132    0.0000 </r>
       <r>   32.2132    0.0000 </r>
       <r>   39.0082    0.0000 </r>
       <r>   39.2228    0.0000 </r>
       <r>   39.2228    0.0000 </r>
       <r>   45.8219    0.0000 </r>
       <r>   49.7177    0.0000 </r>
       <r>   50.3478    0.0000 </r>
       <r>   50.3478    0.0000 </r>
       <r>   54.7563    0.0000 </r>
       <r>   55.6357    0.0000 </r>
       <r>   55.9483    0.0000 </r>
       <r>   55.9483    0.0000 </r>
       <r>   57.7744    0.0000 </r>
       <r>   58.3920    0.0000 </r>
       <r>   58.3920    0.0000 </r>
       <r>   62.0972    0.0000 </r>
       <r>   63.9977    0.0000 </r>
       <r>   64.2694    0.0000 </r>
       <r>   64.2694    0.0000 </r>
       <r>   68.9632    0.0000 </r>
       <r>   73.6190    0.0000 </r>
       <r>   73.6190    0.0000 </r>
       <r>   75.5327    0.0000 </r>
       <r>   75.5327    0.0000 </r>
       <r>   76.3229    0.0000 </r>
       <r>   76.9662    0.0000 </r>
       <r>   80.7049    0.0000 </r>
       <r>   80.7049    0.0000 </r>
       <r>   88.6251    0.0000 </r>
       <r>   88.9016    0.0000 </r>
       <r>   88.9016    0.0000 </r>
       <r>   89.2336    0.0000 </r>
       <r>   94.3222    0.0000 </r>
       <r>   95.1733    0.0000 </r>
       <r>   95.1733    0.0000 </r>
       <r>  101.2944    0.0000 </r>
       <r>  101.2945    0.0000 </r>
       <r>  105.1822    0.0000 </r>
       <r>  105.1822    0.0000 </r>
      </set>
      <set comment="kpoint 7">
       <r>   -2.8619    1.0000 </r>
       <r>   18.6229    0.0000 </r>
       <r>   18.6229    0.0000 </r>
       <r>   18.9284    0.0000 </r>
       <r>   21.3141    0.0000 </r>
       <r>   24.2839    0.0000 </r>
       <r>   24.3271    0.0000 </r>
       <r>   24.3271    0.0000 </r>
       <r>   26.5853    0.0000 </r>
       <r>   27.5851    0.0000 </r>
       <r>   30.5860    0.0000 </r>
       <r>   32.8507    0.0000 </r>
       <r>   32.8507    0.0000 </r>
       <r>   35.5639    0.0000 </r>
       <r>   42.3847    0.0000 </r>
       <r>   55.5570    0.0000 </r>
       <r>   55.5570    0.0000 </r>
       <r>   55.7462    0.0000 </r>
       <r>   57.2535    0.0000 </r>
       <r>   57.8616    0.0000 </r>
       <r>   57.9460    0.0000 </r>
       <r>   57.9460    0.0000 </r>
       <r>   59.4491    0.0000 </r>
       <r>   62.8318    0.0000 </r>
       <r>   67.5047    0.0000 </r>
       <r>   67.5047    0.0000 </r>
       <r>   70.4505    0.0000 </r>
       <r>   70.4572    0.0000 </r>
       <r>   73.5116    0.0000 </r>
       <r>   73.5116    0.0000 </r>
       <r>   80.6472    0.0000 </r>
       <r>   82.6076    0.0000 </r>
       <r>   82.7076    0.0000 </r>
       <r>   82.7076    0.0000 </r>
       <r>   83.4309    0.0000 </r>
       <r>   84.2060    0.0000 </r>
       <r>   88.7540    0.0000 </r>
       <r>   90.1002    0.0000 </r>
       <r>   90.1002    0.0000 </r>
       <r>   90.1668    0.0000 </r>
       <r>   90.1668    0.0000 </r>
       <r>   92.1231    0.0000 </r>
       <r>   93.1873    0.0000 </r>
       <r>   94.4759    0.0000 </r>
       <r>   94.8160    0.0000 </r>
       <r>   97.7762    0.0000 </r>
       <r>   97.8151    0.0000 </r>
       <r>   97.8151    0.0000 </r>
      </set>
      <set comment="kpoint 8">
       <r>   -2.3413    1.0000 </r>
       <r>   15.2886    0.0000 </r>
       <r>   17.6962    0.0000 </r>
       <r>   19.0407    0.0000 </r>
       <r>   21.6532    0.0000 </r>
       <r>   22.2731    0.0000 </r>
       <r>   24.7088    0.0000 </r>
       <r>   25.7284    0.0000 </r>
       <r>   27.0701    0.0000 </r>
       <r>   29.5002    0.0000 </r>
       <r>   29.9459    0.0000 </r>
       <r>   34.7251    0.0000 </r>
       <r>   35.0321    0.0000 </r>
       <r>   37.8751    0.0000 </r>
       <r>   44.4378    0.0000 </r>
       <r>   51.7680    0.0000 </r>
       <r>   52.9181    0.0000 </r>
       <r>   55.8402    0.0000 </r>
       <r>   56.1412    0.0000 </r>
       <r>   56.8050    0.0000 </r>
       <r>   57.7611    0.0000 </r>
       <r>   58.2594    0.0000 </r>
       <r>   59.6806    0.0000 </r>
       <r>   62.4418    0.0000 </r>
       <r>   67.5102    0.0000 </r>
       <r>   68.4539    0.0000 </r>
       <r>   71.3678    0.0000 </r>
       <r>   72.6058    0.0000 </r>
       <r>   72.6336    0.0000 </r>
       <r>   74.9589    0.0000 </r>
       <r>   77.3087    0.0000 </r>
       <r>   78.4413    0.0000 </r>
       <r>   80.7054    0.0000 </r>
       <r>   81.7415    0.0000 </r>
       <r>   82.5200    0.0000 </r>
       <r>   84.1079    0.0000 </r>
       <r>   86.2595    0.0000 </r>
       <r>   86.2895    0.0000 </r>
       <r>   89.1576    0.0000 </r>
       <r>   89.3035    0.0000 </r>
       <r>   89.8492    0.0000 </r>
       <r>   91.3828    0.0000 </r>
       <r>   93.7532    0.0000 </r>
       <r>   94.4764    0.0000 </r>
       <r>   94.5508    0.0000 </r>
       <r>   96.1876    0.0000 </r>
       <r>   97.0344    0.0000 </r>
       <r>   97.6704    0.0000 </r>
      </set>
      <set comment="kpoint 9">
       <r>   -1.3794    1.0000 </r>
       <r>   11.8133    0.0000 </r>
       <r>   17.1396    0.0000 </r>
       <r>   18.6998    0.0000 </r>
       <r>   20.0070    0.0000 </r>
       <r>   23.7861    0.0000 </r>
       <r>   24.6451    0.0000 </r>
       <r>   24.7499    0.0000 </r>
       <r>   28.2492    0.0000 </r>
       <r>   28.5353    0.0000 </r>
       <r>   33.0556    0.0000 </r>
       <r>   38.0834    0.0000 </r>
       <r>   39.0237    0.0000 </r>
       <r>   40.8843    0.0000 </r>
       <r>   47.1520    0.0000 </r>
       <r>   47.3582    0.0000 </r>
       <r>   49.1157    0.0000 </r>
       <r>   53.9229    0.0000 </r>
       <r>   56.1013    0.0000 </r>
       <r>   56.9796    0.0000 </r>
       <r>   57.9220    0.0000 </r>
       <r>   58.7326    0.0000 </r>
       <r>   59.2301    0.0000 </r>
       <r>   62.6696    0.0000 </r>
       <r>   65.0795    0.0000 </r>
       <r>   68.8158    0.0000 </r>
       <r>   68.8858    0.0000 </r>
       <r>   71.5703    0.0000 </r>
       <r>   72.0510    0.0000 </r>
       <r>   73.7523    0.0000 </r>
       <r>   77.0708    0.0000 </r>
       <r>   77.2005    0.0000 </r>
       <r>   78.6232    0.0000 </r>
       <r>   80.7027    0.0000 </r>
       <r>   81.0467    0.0000 </r>
       <r>   81.5001    0.0000 </r>
       <r>   82.6520    0.0000 </r>
       <r>   86.7751    0.0000 </r>
       <r>   86.8256    0.0000 </r>
       <r>   87.0674    0.0000 </r>
       <r>   91.1032    0.0000 </r>
       <r>   92.4593    0.0000 </r>
       <r>   92.6330    0.0000 </r>
       <r>   94.2244    0.0000 </r>
       <r>   94.5071    0.0000 </r>
       <r>   97.3011    0.0000 </r>
       <r>   99.8104    0.0000 </r>
       <r>  100.8351    0.0000 </r>
      </set>
      <set comment="kpoint 10">
       <r>    0.0149    1.0000 </r>
       <r>    8.6124    0.2011 </r>
       <r>   16.9602    0.0000 </r>
       <r>   18.3590    0.0000 </r>
       <r>   18.6092    0.0000 </r>
       <r>   23.2907    0.0000 </r>
       <r>   24.3879    0.0000 </r>
       <r>   26.0397    0.0000 </r>
       <r>   27.2126    0.0000 </r>
       <r>   30.8486    0.0000 </r>
       <r>   36.2801    0.0000 </r>
       <r>   40.8757    0.0000 </r>
       <r>   43.2430    0.0000 </r>
       <r>   43.7205    0.0000 </r>
       <r>   44.2255    0.0000 </r>
       <r>   46.3975    0.0000 </r>
       <r>   49.8464    0.0000 </r>
       <r>   52.3789    0.0000 </r>
       <r>   56.2802    0.0000 </r>
       <r>   57.1604    0.0000 </r>
       <r>   57.4263    0.0000 </r>
       <r>   58.1262    0.0000 </r>
       <r>   59.2572    0.0000 </r>
       <r>   61.9518    0.0000 </r>
       <r>   63.3442    0.0000 </r>
       <r>   65.0561    0.0000 </r>
       <r>   66.4723    0.0000 </r>
       <r>   70.4623    0.0000 </r>
       <r>   70.5049    0.0000 </r>
       <r>   71.3870    0.0000 </r>
       <r>   72.6049    0.0000 </r>
       <r>   76.1681    0.0000 </r>
       <r>   77.1854    0.0000 </r>
       <r>   78.2450    0.0000 </r>
       <r>   80.6813    0.0000 </r>
       <r>   81.5701    0.0000 </r>
       <r>   83.3871    0.0000 </r>
       <r>   84.6289    0.0000 </r>
       <r>   87.3073    0.0000 </r>
       <r>   88.6507    0.0000 </r>
       <r>   92.6025    0.0000 </r>
       <r>   93.6475    0.0000 </r>
       <r>   93.7579    0.0000 </r>
       <r>   94.6211    0.0000 </r>
       <r>   96.2068    0.0000 </r>
       <r>   98.3719    0.0000 </r>
       <r>  101.1844    0.0000 </r>
       <r>  103.4031    0.0000 </r>
      </set>
      <set comment="kpoint 11">
       <r>    1.8290    1.0000 </r>
       <r>    5.7557    1.0438 </r>
       <r>   17.1342    0.0000 </r>
       <r>   17.1604    0.0000 </r>
       <r>   18.8261    0.0000 </r>
       <r>   22.1132    0.0000 </r>
       <r>   24.6398    0.0000 </r>
       <r>   25.3312    0.0000 </r>
       <r>   29.4647    0.0000 </r>
       <r>   32.7317    0.0000 </r>
       <r>   39.1076    0.0000 </r>
       <r>   39.1509    0.0000 </r>
       <r>   40.6699    0.0000 </r>
       <r>   47.1575    0.0000 </r>
       <r>   47.4522    0.0000 </r>
       <r>   48.7918    0.0000 </r>
       <r>   49.8341    0.0000 </r>
       <r>   54.4560    0.0000 </r>
       <r>   55.4266    0.0000 </r>
       <r>   56.3644    0.0000 </r>
       <r>   57.1130    0.0000 </r>
       <r>   57.1370    0.0000 </r>
       <r>   58.7664    0.0000 </r>
       <r>   59.3951    0.0000 </r>
       <r>   62.6338    0.0000 </r>
       <r>   62.8787    0.0000 </r>
       <r>   64.0840    0.0000 </r>
       <r>   66.1182    0.0000 </r>
       <r>   69.1302    0.0000 </r>
       <r>   69.8556    0.0000 </r>
       <r>   71.9747    0.0000 </r>
       <r>   74.9808    0.0000 </r>
       <r>   76.1482    0.0000 </r>
       <r>   78.2079    0.0000 </r>
       <r>   80.5319    0.0000 </r>
       <r>   81.3194    0.0000 </r>
       <r>   82.7967    0.0000 </r>
       <r>   83.6694    0.0000 </r>
       <r>   88.5332    0.0000 </r>
       <r>   88.7530    0.0000 </r>
       <r>   92.4778    0.0000 </r>
       <r>   94.7243    0.0000 </r>
       <r>   95.7059    0.0000 </r>
       <r>   97.0286    0.0000 </r>
       <r>   99.7195    0.0000 </r>
       <r>  101.4606    0.0000 </r>
       <r>  101.4974    0.0000 </r>
       <r>  102.2990    0.0000 </r>
      </set>
      <set comment="kpoint 12">
       <r>    3.2553    1.0000 </r>
       <r>    4.0676    1.0000 </r>
       <r>   16.2753    0.0000 </r>
       <r>   17.7417    0.0000 </r>
       <r>   19.4518    0.0000 </r>
       <r>   21.2900    0.0000 </r>
       <r>   24.2558    0.0000 </r>
       <r>   25.4672    0.0000 </r>
       <r>   31.7393    0.0000 </r>
       <r>   31.8959    0.0000 </r>
       <r>   38.0357    0.0000 </r>
       <r>   39.7862    0.0000 </r>
       <r>   40.5356    0.0000 </r>
       <r>   46.4092    0.0000 </r>
       <r>   49.4482    0.0000 </r>
       <r>   50.6999    0.0000 </r>
       <r>   51.4396    0.0000 </r>
       <r>   54.1689    0.0000 </r>
       <r>   55.3248    0.0000 </r>
       <r>   55.7280    0.0000 </r>
       <r>   56.6547    0.0000 </r>
       <r>   57.5398    0.0000 </r>
       <r>   57.8337    0.0000 </r>
       <r>   59.1417    0.0000 </r>
       <r>   61.8075    0.0000 </r>
       <r>   62.1128    0.0000 </r>
       <r>   63.2456    0.0000 </r>
       <r>   64.8495    0.0000 </r>
       <r>   68.8643    0.0000 </r>
       <r>   69.4612    0.0000 </r>
       <r>   72.1969    0.0000 </r>
       <r>   74.6774    0.0000 </r>
       <r>   76.1759    0.0000 </r>
       <r>   78.2817    0.0000 </r>
       <r>   80.2981    0.0000 </r>
       <r>   81.4220    0.0000 </r>
       <r>   82.1708    0.0000 </r>
       <r>   83.5427    0.0000 </r>
       <r>   88.5774    0.0000 </r>
       <r>   88.7222    0.0000 </r>
       <r>   92.2251    0.0000 </r>
       <r>   94.9739    0.0000 </r>
       <r>   96.6552    0.0000 </r>
       <r>   98.2273    0.0000 </r>
       <r>  100.0433    0.0000 </r>
       <r>  100.7318    0.0000 </r>
       <r>  103.8184    0.0000 </r>
       <r>  104.6282    0.0000 </r>
      </set>
      <set comment="kpoint 13">
       <r>    1.1788    1.0000 </r>
       <r>    6.6655    1.0122 </r>
       <r>   15.8104    0.0000 </r>
       <r>   18.7009    0.0000 </r>
       <r>   20.4619    0.0000 </r>
       <r>   20.8382    0.0000 </r>
       <r>   23.7228    0.0000 </r>
       <r>   26.4090    0.0000 </r>
       <r>   29.2291    0.0000 </r>
       <r>   31.3105    0.0000 </r>
       <r>   38.1086    0.0000 </r>
       <r>   39.3489    0.0000 </r>
       <r>   42.8128    0.0000 </r>
       <r>   45.2844    0.0000 </r>
       <r>   46.6020    0.0000 </r>
       <r>   48.7344    0.0000 </r>
       <r>   49.4461    0.0000 </r>
       <r>   53.7259    0.0000 </r>
       <r>   56.1945    0.0000 </r>
       <r>   56.3582    0.0000 </r>
       <r>   56.5189    0.0000 </r>
       <r>   58.2635    0.0000 </r>
       <r>   59.3177    0.0000 </r>
       <r>   60.6631    0.0000 </r>
       <r>   61.0591    0.0000 </r>
       <r>   63.1892    0.0000 </r>
       <r>   64.9534    0.0000 </r>
       <r>   68.6788    0.0000 </r>
       <r>   69.4502    0.0000 </r>
       <r>   70.1752    0.0000 </r>
       <r>   71.3928    0.0000 </r>
       <r>   75.3527    0.0000 </r>
       <r>   76.4805    0.0000 </r>
       <r>   78.8380    0.0000 </r>
       <r>   79.9356    0.0000 </r>
       <r>   81.7668    0.0000 </r>
       <r>   82.9850    0.0000 </r>
       <r>   83.7042    0.0000 </r>
       <r>   87.9599    0.0000 </r>
       <r>   88.1523    0.0000 </r>
       <r>   93.0302    0.0000 </r>
       <r>   93.7088    0.0000 </r>
       <r>   94.8743    0.0000 </r>
       <r>   95.9389    0.0000 </r>
       <r>   98.8479    0.0000 </r>
       <r>  100.2774    0.0000 </r>
       <r>  102.5113    0.0000 </r>
       <r>  106.1346    0.0000 </r>
      </set>
      <set comment="kpoint 14">
       <r>   -0.4972    1.0000 </r>
       <r>    9.6371   -0.0575 </r>
       <r>   15.7447    0.0000 </r>
       <r>   20.0077    0.0000 </r>
       <r>   20.7779    0.0000 </r>
       <r>   21.8330    0.0000 </r>
       <r>   23.5096    0.0000 </r>
       <r>   26.5148    0.0000 </r>
       <r>   27.3960    0.0000 </r>
       <r>   29.3494    0.0000 </r>
       <r>   35.3836    0.0000 </r>
       <r>   39.7906    0.0000 </r>
       <r>   42.2427    0.0000 </r>
       <r>   43.8589    0.0000 </r>
       <r>   43.9737    0.0000 </r>
       <r>   48.0563    0.0000 </r>
       <r>   48.9001    0.0000 </r>
       <r>   52.1130    0.0000 </r>
       <r>   56.2329    0.0000 </r>
       <r>   56.7269    0.0000 </r>
       <r>   58.1163    0.0000 </r>
       <r>   58.5021    0.0000 </r>
       <r>   60.1692    0.0000 </r>
       <r>   61.4980    0.0000 </r>
       <r>   64.0554    0.0000 </r>
       <r>   65.1219    0.0000 </r>
       <r>   68.4133    0.0000 </r>
       <r>   70.3772    0.0000 </r>
       <r>   70.6276    0.0000 </r>
       <r>   72.6967    0.0000 </r>
       <r>   75.2177    0.0000 </r>
       <r>   75.9594    0.0000 </r>
       <r>   77.6499    0.0000 </r>
       <r>   78.9417    0.0000 </r>
       <r>   79.4652    0.0000 </r>
       <r>   83.0064    0.0000 </r>
       <r>   84.3549    0.0000 </r>
       <r>   84.6968    0.0000 </r>
       <r>   86.1501    0.0000 </r>
       <r>   86.8073    0.0000 </r>
       <r>   90.8746    0.0000 </r>
       <r>   91.1966    0.0000 </r>
       <r>   94.6445    0.0000 </r>
       <r>   95.3570    0.0000 </r>
       <r>   96.3580    0.0000 </r>
       <r>   99.7830    0.0000 </r>
       <r>  100.7071    0.0000 </r>
       <r>  104.0953    0.0000 </r>
      </set>
      <set comment="kpoint 15">
       <r>   -1.7486    1.0000 </r>
       <r>   12.9183    0.0000 </r>
       <r>   16.0933    0.0000 </r>
       <r>   20.9284    0.0000 </r>
       <r>   21.7427    0.0000 </r>
       <r>   23.4325    0.0000 </r>
       <r>   23.6055    0.0000 </r>
       <r>   24.1975    0.0000 </r>
       <r>   26.3037    0.0000 </r>
       <r>   29.6106    0.0000 </r>
       <r>   32.1544    0.0000 </r>
       <r>   36.0493    0.0000 </r>
       <r>   38.4242    0.0000 </r>
       <r>   40.4598    0.0000 </r>
       <r>   45.9263    0.0000 </r>
       <r>   47.7155    0.0000 </r>
       <r>   51.9150    0.0000 </r>
       <r>   54.0638    0.0000 </r>
       <r>   56.0265    0.0000 </r>
       <r>   56.5405    0.0000 </r>
       <r>   57.9845    0.0000 </r>
       <r>   59.5273    0.0000 </r>
       <r>   59.6241    0.0000 </r>
       <r>   61.1662    0.0000 </r>
       <r>   67.0458    0.0000 </r>
       <r>   68.5920    0.0000 </r>
       <r>   69.5050    0.0000 </r>
       <r>   71.0538    0.0000 </r>
       <r>   73.9115    0.0000 </r>
       <r>   74.8774    0.0000 </r>
       <r>   76.9788    0.0000 </r>
       <r>   77.9367    0.0000 </r>
       <r>   78.8895    0.0000 </r>
       <r>   79.2228    0.0000 </r>
       <r>   82.7653    0.0000 </r>
       <r>   83.2086    0.0000 </r>
       <r>   84.6854    0.0000 </r>
       <r>   85.3546    0.0000 </r>
       <r>   86.7295    0.0000 </r>
       <r>   87.0245    0.0000 </r>
       <r>   89.2030    0.0000 </r>
       <r>   90.8169    0.0000 </r>
       <r>   91.7410    0.0000 </r>
       <r>   94.5036    0.0000 </r>
       <r>   96.4885    0.0000 </r>
       <r>   97.2264    0.0000 </r>
       <r>   99.4346    0.0000 </r>
       <r>  101.5042    0.0000 </r>
      </set>
      <set comment="kpoint 16">
       <r>   -2.5642    1.0000 </r>
       <r>   16.1292    0.0000 </r>
       <r>   17.1320    0.0000 </r>
       <r>   21.1167    0.0000 </r>
       <r>   22.2882    0.0000 </r>
       <r>   23.3653    0.0000 </r>
       <r>   24.1019    0.0000 </r>
       <r>   24.4686    0.0000 </r>
       <r>   25.4752    0.0000 </r>
       <r>   28.8065    0.0000 </r>
       <r>   30.2686    0.0000 </r>
       <r>   33.2710    0.0000 </r>
       <r>   35.6192    0.0000 </r>
       <r>   36.9514    0.0000 </r>
       <r>   43.3531    0.0000 </r>
       <r>   52.2359    0.0000 </r>
       <r>   55.7064    0.0000 </r>
       <r>   55.7328    0.0000 </r>
       <r>   55.9227    0.0000 </r>
       <r>   56.3978    0.0000 </r>
       <r>   57.7261    0.0000 </r>
       <r>   59.6841    0.0000 </r>
       <r>   59.9899    0.0000 </r>
       <r>   61.0256    0.0000 </r>
       <r>   68.6584    0.0000 </r>
       <r>   69.0369    0.0000 </r>
       <r>   69.5611    0.0000 </r>
       <r>   71.6694    0.0000 </r>
       <r>   73.1353    0.0000 </r>
       <r>   73.7591    0.0000 </r>
       <r>   80.1270    0.0000 </r>
       <r>   80.4411    0.0000 </r>
       <r>   80.8208    0.0000 </r>
       <r>   81.9614    0.0000 </r>
       <r>   82.4679    0.0000 </r>
       <r>   86.1332    0.0000 </r>
       <r>   86.3023    0.0000 </r>
       <r>   86.8493    0.0000 </r>
       <r>   87.4908    0.0000 </r>
       <r>   89.9183    0.0000 </r>
       <r>   90.8115    0.0000 </r>
       <r>   92.2753    0.0000 </r>
       <r>   92.4010    0.0000 </r>
       <r>   92.9655    0.0000 </r>
       <r>   93.3624    0.0000 </r>
       <r>   95.8178    0.0000 </r>
       <r>   97.7725    0.0000 </r>
       <r>   98.7780    0.0000 </r>
      </set>
      <set comment="kpoint 17">
       <r>   -1.9705    1.0000 </r>
       <r>   16.6190    0.0000 </r>
       <r>   16.6190    0.0000 </r>
       <r>   16.7590    0.0000 </r>
       <r>   19.5803    0.0000 </r>
       <r>   19.9498    0.0000 </r>
       <r>   27.5087    0.0000 </r>
       <r>   27.5087    0.0000 </r>
       <r>   28.4036    0.0000 </r>
       <r>   30.5419    0.0000 </r>
       <r>   32.5116    0.0000 </r>
       <r>   33.9918    0.0000 </r>
       <r>   33.9918    0.0000 </r>
       <r>   38.7762    0.0000 </r>
       <r>   46.5651    0.0000 </r>
       <r>   51.8296    0.0000 </r>
       <r>   51.8296    0.0000 </r>
       <r>   52.4534    0.0000 </r>
       <r>   54.9708    0.0000 </r>
       <r>   57.5944    0.0000 </r>
       <r>   57.5944    0.0000 </r>
       <r>   57.7133    0.0000 </r>
       <r>   59.9827    0.0000 </r>
       <r>   61.9115    0.0000 </r>
       <r>   66.9312    0.0000 </r>
       <r>   70.1306    0.0000 </r>
       <r>   70.1306    0.0000 </r>
       <r>   72.5105    0.0000 </r>
       <r>   72.5105    0.0000 </r>
       <r>   76.2506    0.0000 </r>
       <r>   76.2693    0.0000 </r>
       <r>   78.0814    0.0000 </r>
       <r>   78.2324    0.0000 </r>
       <r>   78.2324    0.0000 </r>
       <r>   82.5031    0.0000 </r>
       <r>   84.1590    0.0000 </r>
       <r>   87.3742    0.0000 </r>
       <r>   87.3742    0.0000 </r>
       <r>   88.3079    0.0000 </r>
       <r>   89.8661    0.0000 </r>
       <r>   91.8385    0.0000 </r>
       <r>   91.8385    0.0000 </r>
       <r>   93.5484    0.0000 </r>
       <r>   93.6455    0.0000 </r>
       <r>   93.6455    0.0000 </r>
       <r>   93.7569    0.0000 </r>
       <r>   98.1756    0.0000 </r>
       <r>   98.3653    0.0000 </r>
      </set>
      <set comment="kpoint 18">
       <r>   -1.1584    1.0000 </r>
       <r>   13.4029    0.0000 </r>
       <r>   15.9243    0.0000 </r>
       <r>   17.2184    0.0000 </r>
       <r>   17.4980    0.0000 </r>
       <r>   20.4781    0.0000 </r>
       <r>   27.4308    0.0000 </r>
       <r>   28.1348    0.0000 </r>
       <r>   29.8026    0.0000 </r>
       <r>   31.3748    0.0000 </r>
       <r>   33.6733    0.0000 </r>
       <r>   36.1668    0.0000 </r>
       <r>   37.4413    0.0000 </r>
       <r>   40.5737    0.0000 </r>
       <r>   47.3122    0.0000 </r>
       <r>   49.1150    0.0000 </r>
       <r>   49.5401    0.0000 </r>
       <r>   52.7637    0.0000 </r>
       <r>   54.8363    0.0000 </r>
       <r>   56.4503    0.0000 </r>
       <r>   57.6392    0.0000 </r>
       <r>   58.0144    0.0000 </r>
       <r>   60.0205    0.0000 </r>
       <r>   61.2391    0.0000 </r>
       <r>   64.9067    0.0000 </r>
       <r>   68.4642    0.0000 </r>
       <r>   68.8739    0.0000 </r>
       <r>   71.0570    0.0000 </r>
       <r>   71.3682    0.0000 </r>
       <r>   73.8793    0.0000 </r>
       <r>   76.9842    0.0000 </r>
       <r>   77.3311    0.0000 </r>
       <r>   77.8791    0.0000 </r>
       <r>   79.3943    0.0000 </r>
       <r>   82.0377    0.0000 </r>
       <r>   82.7958    0.0000 </r>
       <r>   84.8959    0.0000 </r>
       <r>   86.0271    0.0000 </r>
       <r>   87.7124    0.0000 </r>
       <r>   90.0434    0.0000 </r>
       <r>   90.2239    0.0000 </r>
       <r>   91.9534    0.0000 </r>
       <r>   92.8108    0.0000 </r>
       <r>   93.7425    0.0000 </r>
       <r>   94.5552    0.0000 </r>
       <r>   98.0417    0.0000 </r>
       <r>   98.3271    0.0000 </r>
       <r>   98.9852    0.0000 </r>
      </set>
      <set comment="kpoint 19">
       <r>    0.0875    1.0000 </r>
       <r>   10.1652   -0.0486 </r>
       <r>   15.6122    0.0000 </r>
       <r>   15.6125    0.0000 </r>
       <r>   17.2691    0.0000 </r>
       <r>   22.6022    0.0000 </r>
       <r>   26.0787    0.0000 </r>
       <r>   28.1592    0.0000 </r>
       <r>   29.9177    0.0000 </r>
       <r>   31.9540    0.0000 </r>
       <r>   36.9945    0.0000 </r>
       <r>   39.4926    0.0000 </r>
       <r>   42.2213    0.0000 </r>
       <r>   42.8813    0.0000 </r>
       <r>   43.3834    0.0000 </r>
       <r>   46.0074    0.0000 </r>
       <r>   52.5190    0.0000 </r>
       <r>   53.6439    0.0000 </r>
       <r>   54.7805    0.0000 </r>
       <r>   55.0426    0.0000 </r>
       <r>   56.9844    0.0000 </r>
       <r>   57.8430    0.0000 </r>
       <r>   59.3074    0.0000 </r>
       <r>   61.1824    0.0000 </r>
       <r>   62.7784    0.0000 </r>
       <r>   65.5496    0.0000 </r>
       <r>   66.1965    0.0000 </r>
       <r>   68.4072    0.0000 </r>
       <r>   69.7230    0.0000 </r>
       <r>   72.8955    0.0000 </r>
       <r>   75.0010    0.0000 </r>
       <r>   75.5084    0.0000 </r>
       <r>   77.7293    0.0000 </r>
       <r>   78.3428    0.0000 </r>
       <r>   81.2305    0.0000 </r>
       <r>   81.5466    0.0000 </r>
       <r>   83.3940    0.0000 </r>
       <r>   87.2818    0.0000 </r>
       <r>   87.7117    0.0000 </r>
       <r>   90.3223    0.0000 </r>
       <r>   91.9277    0.0000 </r>
       <r>   93.2222    0.0000 </r>
       <r>   93.3503    0.0000 </r>
       <r>   94.6938    0.0000 </r>
       <r>   97.5015    0.0000 </r>
       <r>   98.3018    0.0000 </r>
       <r>   99.6553    0.0000 </r>
       <r>  101.8359    0.0000 </r>
      </set>
      <set comment="kpoint 20">
       <r>    1.7554    1.0000 </r>
       <r>    7.2171    0.8287 </r>
       <r>   14.2074    0.0000 </r>
       <r>   15.6819    0.0000 </r>
       <r>   17.4207    0.0000 </r>
       <r>   24.8464    0.0000 </r>
       <r>   25.1457    0.0000 </r>
       <r>   28.0050    0.0000 </r>
       <r>   29.1312    0.0000 </r>
       <r>   33.3402    0.0000 </r>
       <r>   39.6294    0.0000 </r>
       <r>   39.8737    0.0000 </r>
       <r>   41.4596    0.0000 </r>
       <r>   44.8173    0.0000 </r>
       <r>   46.5259    0.0000 </r>
       <r>   48.0670    0.0000 </r>
       <r>   51.3607    0.0000 </r>
       <r>   53.5198    0.0000 </r>
       <r>   54.5273    0.0000 </r>
       <r>   55.2433    0.0000 </r>
       <r>   56.8275    0.0000 </r>
       <r>   57.6733    0.0000 </r>
       <r>   58.3962    0.0000 </r>
       <r>   60.6287    0.0000 </r>
       <r>   61.2845    0.0000 </r>
       <r>   63.7755    0.0000 </r>
       <r>   63.9295    0.0000 </r>
       <r>   65.5838    0.0000 </r>
       <r>   67.1635    0.0000 </r>
       <r>   69.7565    0.0000 </r>
       <r>   72.5977    0.0000 </r>
       <r>   74.8316    0.0000 </r>
       <r>   76.5470    0.0000 </r>
       <r>   76.9698    0.0000 </r>
       <r>   80.3676    0.0000 </r>
       <r>   81.6684    0.0000 </r>
       <r>   85.0374    0.0000 </r>
       <r>   87.6280    0.0000 </r>
       <r>   87.8790    0.0000 </r>
       <r>   90.4829    0.0000 </r>
       <r>   93.0680    0.0000 </r>
       <r>   93.6933    0.0000 </r>
       <r>   96.4489    0.0000 </r>
       <r>   96.9542    0.0000 </r>
       <r>   98.8562    0.0000 </r>
       <r>  100.4329    0.0000 </r>
       <r>  100.6872    0.0000 </r>
       <r>  102.8379    0.0000 </r>
      </set>
      <set comment="kpoint 21">
       <r>    3.8168    1.0000 </r>
       <r>    4.6366    1.0000 </r>
       <r>   13.1994    0.0000 </r>
       <r>   16.1345    0.0000 </r>
       <r>   17.9471    0.0000 </r>
       <r>   23.9241    0.0000 </r>
       <r>   26.4025    0.0000 </r>
       <r>   28.7867    0.0000 </r>
       <r>   29.3946    0.0000 </r>
       <r>   31.8353    0.0000 </r>
       <r>   37.9378    0.0000 </r>
       <r>   40.7324    0.0000 </r>
       <r>   42.6055    0.0000 </r>
       <r>   47.2259    0.0000 </r>
       <r>   49.2095    0.0000 </r>
       <r>   49.8357    0.0000 </r>
       <r>   50.2268    0.0000 </r>
       <r>   54.4852    0.0000 </r>
       <r>   55.0110    0.0000 </r>
       <r>   55.0456    0.0000 </r>
       <r>   55.8379    0.0000 </r>
       <r>   57.1343    0.0000 </r>
       <r>   58.1855    0.0000 </r>
       <r>   59.7992    0.0000 </r>
       <r>   61.5767    0.0000 </r>
       <r>   61.6867    0.0000 </r>
       <r>   62.9165    0.0000 </r>
       <r>   63.6579    0.0000 </r>
       <r>   65.6949    0.0000 </r>
       <r>   67.3923    0.0000 </r>
       <r>   72.5832    0.0000 </r>
       <r>   75.1220    0.0000 </r>
       <r>   76.5330    0.0000 </r>
       <r>   76.6133    0.0000 </r>
       <r>   79.6923    0.0000 </r>
       <r>   80.7838    0.0000 </r>
       <r>   85.2275    0.0000 </r>
       <r>   87.6600    0.0000 </r>
       <r>   88.5139    0.0000 </r>
       <r>   89.3433    0.0000 </r>
       <r>   93.1879    0.0000 </r>
       <r>   94.9801    0.0000 </r>
       <r>   97.8583    0.0000 </r>
       <r>   98.7416    0.0000 </r>
       <r>   99.6893    0.0000 </r>
       <r>  100.1182    0.0000 </r>
       <r>  102.9980    0.0000 </r>
       <r>  106.2493    0.0000 </r>
      </set>
      <set comment="kpoint 22">
       <r>    2.4040    1.0000 </r>
       <r>    6.2979    1.0779 </r>
       <r>   12.6065    0.0000 </r>
       <r>   16.9696    0.0000 </r>
       <r>   18.8679    0.0000 </r>
       <r>   23.3537    0.0000 </r>
       <r>   25.9712    0.0000 </r>
       <r>   28.9215    0.0000 </r>
       <r>   29.7947    0.0000 </r>
       <r>   30.6524    0.0000 </r>
       <r>   36.4133    0.0000 </r>
       <r>   41.2920    0.0000 </r>
       <r>   43.8210    0.0000 </r>
       <r>   44.9653    0.0000 </r>
       <r>   48.4282    0.0000 </r>
       <r>   49.9694    0.0000 </r>
       <r>   51.5468    0.0000 </r>
       <r>   54.5872    0.0000 </r>
       <r>   55.5084    0.0000 </r>
       <r>   55.5301    0.0000 </r>
       <r>   56.0088    0.0000 </r>
       <r>   56.3429    0.0000 </r>
       <r>   59.0942    0.0000 </r>
       <r>   59.6698    0.0000 </r>
       <r>   60.5683    0.0000 </r>
       <r>   60.7872    0.0000 </r>
       <r>   63.9043    0.0000 </r>
       <r>   64.1517    0.0000 </r>
       <r>   66.0923    0.0000 </r>
       <r>   70.0846    0.0000 </r>
       <r>   73.4959    0.0000 </r>
       <r>   74.4655    0.0000 </r>
       <r>   76.6602    0.0000 </r>
       <r>   77.3119    0.0000 </r>
       <r>   79.1819    0.0000 </r>
       <r>   80.9593    0.0000 </r>
       <r>   84.6982    0.0000 </r>
       <r>   87.2304    0.0000 </r>
       <r>   87.9403    0.0000 </r>
       <r>   89.7435    0.0000 </r>
       <r>   90.3269    0.0000 </r>
       <r>   95.4750    0.0000 </r>
       <r>   95.8512    0.0000 </r>
       <r>  100.2201    0.0000 </r>
       <r>  100.6710    0.0000 </r>
       <r>  102.2609    0.0000 </r>
       <r>  104.3652    0.0000 </r>
       <r>  105.6532    0.0000 </r>
      </set>
      <set comment="kpoint 23">
       <r>    0.5979    1.0000 </r>
       <r>    9.0844    0.0194 </r>
       <r>   12.4689    0.0000 </r>
[...]
       <set comment="band 2">
        <r>  0.0789  0.0240  0.0004  0.1390  0.0000  0.0000  0.0000  0.0000  0.0000 </r>
       </set>
       <set comment="band 3">
        <r>  0.0570  0.0774  0.0036  0.0630  0.0000  0.0000  0.0000  0.0000  0.0000 </r>
       </set>
       <set comment="band 4">
        <r>  0.2146  0.0063  0.1190  0.0135  0.0000  0.0000  0.0000  0.0000  0.0000 </r>
       </set>
       <set comment="band 5">
        <r>  0.0127  0.1187  0.0101  0.0651  0.0000  0.0000  0.0000  0.0000  0.0000 </r>
       </set>
       <set comment="band 6">
        <r>  0.0340  0.0897  0.0329  0.0043  0.0000  0.0000  0.0000  0.0000  0.0000 </r>
       </set>
       <set comment="band 7">
        <r>  0.0402  0.1197  0.0002  0.0386  0.0000  0.0000  0.0000  0.0000  0.0000 </r>
       </set>
       <set comment="band 8">
        <r>  0.0196  0.0412  0.0776  0.0080  0.0000  0.0000  0.0000  0.0000  0.0000 </r>
       </set>
       <set comment="band 9">
        <r>  0.0100  0.0005  0.0107  0.0553  0.0000  0.0000  0.0000  0.0000  0.0000 </r>
       </set>
       <set comment="band 10">
        <r>  0.0004  0.0032  0.0105  0.0087  0.0000  0.0000  0.0000  0.0000  0.0000 </r>
       </set>
       <set comment="band 11">
        <r>  0.0699  0.0049  0.0477  0.0000  0.0000  0.0000  0.0000  0.0000  0.0000 </r>
       </set>
       <set comment="band 12">
        <r>  0.0455  0.0029  0.0013  0.0120  0.0000  0.0000  0.0000  0.0000  0.0000 </r>
       </set>
       <set comment="band 13">
        <r>  0.0001  0.0013  0.0456  0.1084  0.0000  0.0000  0.0000  0.0000  0.0000 </r>
       </set>
       <set comment="band 14">
        <r>  0.0097  0.0095  0.0132  0.0283  0.0000  0.0000  0.0000  0.0000  0.0000 </r>
       </set>
       <set comment="band 15">
        <r>  0.0912  0.0000  0.0883  0.0368  0.0000  0.0000  0.0000  0.0000  0.0000 </r>
       </set>
       <set comment="band 16">
        <r>  0.0297  0.0497  0.1088  0.0534  0.0000  0.0000  0.0000  0.0000  0.0000 </r>
       </set>
       <set comment="band 17">
        <r>  0.1868  0.0322  0.1753  0.0133  0.0000  0.0000  0.0000  0.0000  0.0000 </r>
       </set>
       <set comment="band 18">
        <r>  0.4146  0.0047  0.0911  0.0603  0.0000  0.0000  0.0000  0.0000  0.0000 </r>
       </set>
       <set comment="band 19">
        <r>  0.3327  0.2376  0.0015  0.7277  0.0000  0.0000  0.0000  0.0000  0.0000 </r>
       </set>
       <set comment="band 20">
        <r>  5.6267  0.0771  0.1735  0.0219  0.0000  0.0000  0.0000  0.0000  0.0000 </r>
       </set>
       <set comment="band 21">
        <r>  0.0181  2.1174  0.1477  0.2353  0.0000  0.0000  0.0000  0.0000  0.0000 </r>
       </set>
       <set comment="band 22">
        <r>  3.0589  0.0830  0.0089  0.2220  0.0000  0.0000  0.0000  0.0000  0.0000 </r>
       </set>
       <set comment="band 23">
        <r>  0.0114  0.2480  1.3633  0.2264  0.0000  0.0000  0.0000  0.0000  0.0000 </r>
       </set>
       <set comment="band 24">
        <r>  0.3381  0.0002  1.4734  1.9732  0.0000  0.0000  0.0000  0.0000  0.0000 </r>
       </set>
       <set comment="band 25">
        <r>  0.0237  0.1324  0.7968  0.3966  0.0000  0.0000  0.0000  0.0000  0.0000 </r>
       </set>
       <set comment="band 26">
        <r>  0.0387  0.2299  0.2394  0.7625  0.0000  0.0000  0.0000  0.0000  0.0000 </r>
       </set>
       <set comment="band 27">
        <r>  0.0003  0.0591  0.0051  0.0415  0.0000  0.0000  0.0000  0.0000  0.0000 </r>
       </set>
       <set comment="band 28">
        <r>  0.0463  0.7077  0.0032  0.0437  0.0000  0.0000  0.0000  0.0000  0.0000 </r>
       </set>
       <set comment="band 29">
        <r>  0.2191  1.1181  0.0212  0.0567  0.0000  0.0000  0.0000  0.0000  0.0000 </r>
       </set>
       <set comment="band 30">
        <r>  0.0214  0.0025  0.0135  0.0856  0.0000  0.0000  0.0000  0.0000  0.0000 </r>
       </set>
       <set comment="band 31">
        <r>  0.0807  0.1193  0.0679  0.1040  0.0000  0.0000  0.0000  0.0000  0.0000 </r>
       </set>
       <set comment="band 32">
        <r>  0.0504  0.0076  0.5103  0.0093  0.0000  0.0000  0.0000  0.0000  0.0000 </r>
       </set>
       <set comment="band 33">
        <r>  0.0874  0.0160  0.0335  0.1673  0.0000  0.0000  0.0000  0.0000  0.0000 </r>
       </set>
       <set comment="band 34">
        <r>  0.6552  0.0091  0.1267  0.0056  0.0000  0.0000  0.0000  0.0000  0.0000 </r>
       </set>
       <set comment="band 35">
        <r>  0.0167  0.0745  0.0125  0.0049  0.0000  0.0000  0.0000  0.0000  0.0000 </r>
       </set>
       <set comment="band 36">
        <r>  0.0156  0.0305  0.0181  0.1060  0.0000  0.0000  0.0000  0.0000  0.0000 </r>
       </set>
       <set comment="band 37">
        <r>  0.0739  0.0290  0.0055  0.0445  0.0000  0.0000  0.0000  0.0000  0.0000 </r>
       </set>
       <set comment="band 38">
        <r>  0.0407  0.0713  0.0680  0.0467  0.0000  0.0000  0.0000  0.0000  0.0000 </r>
       </set>
       <set comment="band 39">
        <r>  0.0310  0.0168  0.0149  0.0001  0.0000  0.0000  0.0000  0.0000  0.0000 </r>
       </set>
       <set comment="band 40">
        <r>  0.0013  0.0044  0.0297  0.0105  0.0000  0.0000  0.0000  0.0000  0.0000 </r>
       </set>
       <set comment="band 41">
        <r>  0.0395  0.0030  0.0045  0.0292  0.0000  0.0000  0.0000  0.0000  0.0000 </r>
       </set>
       <set comment="band 42">
        <r>  0.0078  0.0026  0.0337  0.0277  0.0000  0.0000  0.0000  0.0000  0.0000 </r>
       </set>
       <set comment="band 43">
        <r>  0.0187  0.0015  0.0050  0.0946  0.0000  0.0000  0.0000  0.0000  0.0000 </r>
       </set>
       <set comment="band 44">
        <r>  0.0174  0.1545  0.0000  0.0022  0.0000  0.0000  0.0000  0.0000  0.0000 </r>
       </set>
       <set comment="band 45">
        <r>  0.0319  0.0078  0.0010  0.0758  0.0000  0.0000  0.0000  0.0000  0.0000 </r>
       </set>
       <set comment="band 46">
        <r>  0.0001  0.0511  0.0427  0.0022  0.0000  0.0000  0.0000  0.0000  0.0000 </r>
       </set>
       <set comment="band 47">
        <r>  0.0189  0.0007  0.0765  0.0075  0.0000  0.0000  0.0000  0.0000  0.0000 </r>
       </set>
       <set comment="band 48">
        <r>  0.0000  0.0294  0.0140  0.0001  0.0000  0.0000  0.0000  0.0000  0.0000 </r>
       </set>
      </set>
      <set comment="kpoint 55">
       <set comment="band 1">
        <r>  0.0820  0.0144  0.1491  0.0000  0.0000  0.0000  0.0000  0.0000  0.0000 </r>
       </set>
       <set comment="band 2">
        <r>  0.0000  0.0000  0.0000  0.2074  0.0000  0.0000  0.0000  0.0000  0.0000 </r>
       </set>
       <set comment="band 3">
        <r>  0.0775  0.0532  0.0741  0.0000  0.0000  0.0000  0.0000  0.0000  0.0000 </r>
       </set>
       <set comment="band 4">
        <r>  0.2991  0.0804  0.0098  0.0000  0.0000  0.0000  0.0000  0.0000  0.0000 </r>
       </set>
       <set comment="band 5">
        <r>  0.0000  0.0000  0.0000  0.1255  0.0000  0.0000  0.0000  0.0000  0.0000 </r>
       </set>
       <set comment="band 6">
        <r>  0.0842  0.2420  0.0040  0.0000  0.0000  0.0000  0.0000  0.0000  0.0000 </r>
       </set>
       <set comment="band 7">
        <r>  0.0247  0.0391  0.0460  0.0000  0.0000  0.0000  0.0000  0.0000  0.0000 </r>
       </set>
       <set comment="band 8">
        <r>  0.0224  0.0714  0.0379  0.0000  0.0000  0.0000  0.0000  0.0000  0.0000 </r>
       </set>
       <set comment="band 9">
        <r>  0.0000  0.0000  0.0000  0.0231  0.0000  0.0000  0.0000  0.0000  0.0000 </r>
       </set>
       <set comment="band 10">
        <r>  0.0034  0.0000  0.0029  0.0000  0.0000  0.0000  0.0000  0.0000  0.0000 </r>
       </set>
       <set comment="band 11">
        <r>  0.0634  0.0197  0.0943  0.0000  0.0000  0.0000  0.0000  0.0000  0.0000 </r>
       </set>
       <set comment="band 12">
        <r>  0.0000  0.0000  0.0000  0.0725  0.0000  0.0000  0.0000  0.0000  0.0000 </r>
       </set>
       <set comment="band 13">
        <r>  0.0000  0.0000  0.0000  0.1788  0.0000  0.0000  0.0000  0.0000  0.0000 </r>
       </set>
       <set comment="band 14">
        <r>  0.0181  0.0100  0.0489  0.0000  0.0000  0.0000  0.0000  0.0000  0.0000 </r>
       </set>
       <set comment="band 15">
        <r>  0.1146  0.0117  0.0215  0.0000  0.0000  0.0000  0.0000  0.0000  0.0000 </r>
       </set>
       <set comment="band 16">
        <r>  0.0000  0.0000  0.0000  0.0190  0.0000  0.0000  0.0000  0.0000  0.0000 </r>
       </set>
       <set comment="band 17">
        <r>  0.1197  0.0244  0.4858  0.0000  0.0000  0.0000  0.0000  0.0000  0.0000 </r>
       </set>
       <set comment="band 18">
        <r>  0.0000  0.0000  0.0000  0.0174  0.0000  0.0000  0.0000  0.0000  0.0000 </r>
       </set>
       <set comment="band 19">
        <r>  1.1407  0.0041  0.0656  0.0000  0.0000  0.0000  0.0000  0.0000  0.0000 </r>
       </set>
       <set comment="band 20">
        <r>  3.3812  1.0120  0.0370  0.0000  0.0000  0.0000  0.0000  0.0000  0.0000 </r>
       </set>
       <set comment="band 21">
        <r>  0.0000  0.0000  0.0000  1.8502  0.0000  0.0000  0.0000  0.0000  0.0000 </r>
       </set>
       <set comment="band 22">
        <r>  4.9348  1.5032  0.0303  0.0000  0.0000  0.0000  0.0000  0.0000  0.0000 </r>
       </set>
       <set comment="band 23">
        <r>  0.0439  0.0493  2.0739  0.0000  0.0000  0.0000  0.0000  0.0000  0.0000 </r>
       </set>
       <set comment="band 24">
        <r>  0.0000  0.0000  0.0000  1.6133  0.0000  0.0000  0.0000  0.0000  0.0000 </r>
       </set>
       <set comment="band 25">
        <r>  0.1436  0.1027  1.7414  0.0000  0.0000  0.0000  0.0000  0.0000  0.0000 </r>
       </set>
       <set comment="band 26">
        <r>  0.2780  1.5458  0.2135  0.0000  0.0000  0.0000  0.0000  0.0000  0.0000 </r>
       </set>
       <set comment="band 27">
        <r>  0.0000  0.0000  0.0000  1.2445  0.0000  0.0000  0.0000  0.0000  0.0000 </r>
       </set>
       <set comment="band 28">
        <r>  0.0000  0.0000  0.0000  0.2739  0.0000  0.0000  0.0000  0.0000  0.0000 </r>
       </set>
       <set comment="band 29">
        <r>  0.3611  0.3591  0.3326  0.0000  0.0000  0.0000  0.0000  0.0000  0.0000 </r>
       </set>
       <set comment="band 30">
        <r>  0.0042  0.4846  0.0526  0.0000  0.0000  0.0000  0.0000  0.0000  0.0000 </r>
       </set>
       <set comment="band 31">
        <r>  0.0000  0.0000  0.0000  0.0508  0.0000  0.0000  0.0000  0.0000  0.0000 </r>
       </set>
       <set comment="band 32">
        <r>  0.1654  0.0012  0.3853  0.0000  0.0000  0.0000  0.0000  0.0000  0.0000 </r>
       </set>
       <set comment="band 33">
        <r>  0.3945  0.1633  0.0000  0.0000  0.0000  0.0000  0.0000  0.0000  0.0000 </r>
       </set>
       <set comment="band 34">
        <r>  0.0000  0.0000  0.0000  0.0030  0.0000  0.0000  0.0000  0.0000  0.0000 </r>
       </set>
       <set comment="band 35">
        <r>  0.2687  0.0112  0.0322  0.0000  0.0000  0.0000  0.0000  0.0000  0.0000 </r>
       </set>
       <set comment="band 36">
        <r>  0.1018  0.1170  0.1110  0.0000  0.0000  0.0000  0.0000  0.0000  0.0000 </r>
       </set>
       <set comment="band 37">
        <r>  0.0000  0.0000  0.0000  0.4636  0.0000  0.0000  0.0000  0.0000  0.0000 </r>
       </set>
       <set comment="band 38">
        <r>  0.0009  0.0406  0.0152  0.0000  0.0000  0.0000  0.0000  0.0000  0.0000 </r>
       </set>
       <set comment="band 39">
        <r>  0.0000  0.0000  0.0000  0.0098  0.0000  0.0000  0.0000  0.0000  0.0000 </r>
       </set>
       <set comment="band 40">
        <r>  0.0021  0.0198  0.0117  0.0000  0.0000  0.0000  0.0000  0.0000  0.0000 </r>
       </set>
       <set comment="band 41">
        <r>  0.0000  0.0000  0.0000  0.0222  0.0000  0.0000  0.0000  0.0000  0.0000 </r>
       </set>
       <set comment="band 42">
        <r>  0.1173  0.0070  0.0712  0.0000  0.0000  0.0000  0.0000  0.0000  0.0000 </r>
       </set>
       <set comment="band 43">
        <r>  0.0099  0.1118  0.0466  0.0000  0.0000  0.0000  0.0000  0.0000  0.0000 </r>
       </set>
       <set comment="band 44">
        <r>  0.0500  0.0549  0.0007  0.0000  0.0000  0.0000  0.0000  0.0000  0.0000 </r>
       </set>
       <set comment="band 45">
        <r>  0.0000  0.0000  0.0000  0.0724  0.0000  0.0000  0.0000  0.0000  0.0000 </r>
       </set>
       <set comment="band 46">
        <r>  0.0000  0.0000  0.0000  0.0091  0.0000  0.0000  0.0000  0.0000  0.0000 </r>
       </set>
       <set comment="band 47">
        <r>  0.0812  0.0142  0.0573  0.0000  0.0000  0.0000  0.0000  0.0000  0.0000 </r>
       </set>
       <set comment="band 48">
        <r>  0.0428  0.0461  0.0181  0.0000  0.0000  0.0000  0.0000  0.0000  0.0000 </r>
       </set>
      </set>
      <set comment="kpoint 56">
       <set comment="band 1">
        <r>  0.0478  0.0363  0.0000  0.1404  0.0000  0.0000  0.0000  0.0000  0.0000 </r>
       </set>
       <set comment="band 2">
        <r>  0.0000  0.0000  0.2244  0.0000  0.0000  0.0000  0.0000  0.0000  0.0000 </r>
       </set>
       <set comment="band 3">
        <r>  0.1915  0.0654  0.0000  0.0037  0.0000  0.0000  0.0000  0.0000  0.0000 </r>
       </set>
       <set comment="band 4">
        <r>  0.2300  0.0357  0.0000  0.0755  0.0000  0.0000  0.0000  0.0000  0.0000 </r>
       </set>
       <set comment="band 5">
        <r>  0.0233  0.0846  0.0000  0.0715  0.0000  0.0000  0.0000  0.0000  0.0000 </r>
       </set>
       <set comment="band 6">
        <r>  0.0057  0.2585  0.0000  0.0285  0.0000  0.0000  0.0000  0.0000  0.0000 </r>
       </set>
       <set comment="band 7">
        <r>  0.0000  0.0000  0.0969  0.0000  0.0000  0.0000  0.0000  0.0000  0.0000 </r>
       </set>
       <set comment="band 8">
        <r>  0.0906  0.0360  0.0000  0.0175  0.0000  0.0000  0.0000  0.0000  0.0000 </r>
       </set>
       <set comment="band 9">
        <r>  0.0000  0.0000  0.0236  0.0000  0.0000  0.0000  0.0000  0.0000  0.0000 </r>
       </set>
       <set comment="band 10">
        <r>  0.0091  0.0005  0.0000  0.0315  0.0000  0.0000  0.0000  0.0000  0.0000 </r>
       </set>
       <set comment="band 11">
        <r>  0.0000  0.0000  0.0006  0.0000  0.0000  0.0000  0.0000  0.0000  0.0000 </r>
       </set>
       <set comment="band 12">
        <r>  0.0732  0.0004  0.0000  0.1177  0.0000  0.0000  0.0000  0.0000  0.0000 </r>
       </set>
       <set comment="band 13">
        <r>  0.0000  0.0000  0.1879  0.0000  0.0000  0.0000  0.0000  0.0000  0.0000 </r>
       </set>
       <set comment="band 14">
        <r>  0.0010  0.0009  0.0000  0.0058  0.0000  0.0000  0.0000  0.0000  0.0000 </r>
       </set>
       <set comment="band 15">
        <r>  0.1352  0.0052  0.0000  0.1023  0.0000  0.0000  0.0000  0.0000  0.0000 </r>
       </set>
       <set comment="band 16">
        <r>  0.0000  0.0000  0.0128  0.0000  0.0000  0.0000  0.0000  0.0000  0.0000 </r>
       </set>
       <set comment="band 17">
        <r>  0.0000  0.0000  0.5553  0.0000  0.0000  0.0000  0.0000  0.0000  0.0000 </r>
       </set>
       <set comment="band 18">
        <r>  0.0974  0.2004  0.0000  0.4456  0.0000  0.0000  0.0000  0.0000  0.0000 </r>
       </set>
       <set comment="band 19">
        <r>  5.4625  0.9259  0.0000  0.0258  0.0000  0.0000  0.0000  0.0000  0.0000 </r>
       </set>
       <set comment="band 20">
        <r>  3.8479  1.2120  0.0000  0.2261  0.0000  0.0000  0.0000  0.0000  0.0000 </r>
       </set>
       <set comment="band 21">
        <r>  0.2545  0.2677  0.0000  0.9894  0.0000  0.0000  0.0000  0.0000  0.0000 </r>
       </set>
       <set comment="band 22">
        <r>  0.0000  0.0000  1.6232  0.0000  0.0000  0.0000  0.0000  0.0000  0.0000 </r>
       </set>
       <set comment="band 23">
        <r>  0.0598  0.1099  0.0000  1.6138  0.0000  0.0000  0.0000  0.0000  0.0000 </r>
       </set>
       <set comment="band 24">
        <r>  0.0000  0.0000  0.0956  0.0000  0.0000  0.0000  0.0000  0.0000  0.0000 </r>
       </set>
       <set comment="band 25">
        <r>  0.2122  0.3046  0.0000  0.0561  0.0000  0.0000  0.0000  0.0000  0.0000 </r>
       </set>
       <set comment="band 26">
        <r>  0.0000  0.0000  1.6633  0.0000  0.0000  0.0000  0.0000  0.0000  0.0000 </r>
       </set>
       <set comment="band 27">
        <r>  0.0000  0.0000  0.6718  0.0000  0.0000  0.0000  0.0000  0.0000  0.0000 </r>
       </set>
       <set comment="band 28">
        <r>  0.1331  0.0141  0.0000  1.4919  0.0000  0.0000  0.0000  0.0000  0.0000 </r>
       </set>
       <set comment="band 29">
        <r>  0.0926  1.7713  0.0000  0.0034  0.0000  0.0000  0.0000  0.0000  0.0000 </r>
       </set>
       <set comment="band 30">
        <r>  0.0000  0.0000  0.5955  0.0000  0.0000  0.0000  0.0000  0.0000  0.0000 </r>
       </set>
       <set comment="band 31">
        <r>  0.0251  0.4492  0.0000  0.1395  0.0000  0.0000  0.0000  0.0000  0.0000 </r>
       </set>
       <set comment="band 32">
        <r>  0.3932  0.0099  0.0000  0.1977  0.0000  0.0000  0.0000  0.0000  0.0000 </r>
       </set>
       <set comment="band 33">
        <r>  0.2656  0.0235  0.0000  0.0116  0.0000  0.0000  0.0000  0.0000  0.0000 </r>
       </set>
       <set comment="band 34">
        <r>  0.3928  0.0793  0.0000  0.0013  0.0000  0.0000  0.0000  0.0000  0.0000 </r>
       </set>
       <set comment="band 35">
        <r>  0.0000  0.0000  0.1776  0.0000  0.0000  0.0000  0.0000  0.0000  0.0000 </r>
       </set>
       <set comment="band 36">
        <r>  0.1251  0.0020  0.0000  0.0217  0.0000  0.0000  0.0000  0.0000  0.0000 </r>
       </set>
       <set comment="band 37">
        <r>  0.0000  0.0000  0.0915  0.0000  0.0000  0.0000  0.0000  0.0000  0.0000 </r>
       </set>
       <set comment="band 38">
        <r>  0.0405  0.0190  0.0000  0.3333  0.0000  0.0000  0.0000  0.0000  0.0000 </r>
       </set>
       <set comment="band 39">
        <r>  0.0018  0.0229  0.0000  0.0100  0.0000  0.0000  0.0000  0.0000  0.0000 </r>
       </set>
       <set comment="band 40">
        <r>  0.0000  0.0000  0.1496  0.0000  0.0000  0.0000  0.0000  0.0000  0.0000 </r>
       </set>
       <set comment="band 41">
        <r>  0.0095  0.1131  0.0000  0.0008  0.0000  0.0000  0.0000  0.0000  0.0000 </r>
       </set>
       <set comment="band 42">
        <r>  0.0000  0.0000  0.0055  0.0000  0.0000  0.0000  0.0000  0.0000  0.0000 </r>
       </set>
       <set comment="band 43">
        <r>  0.0000  0.0000  0.0081  0.0000  0.0000  0.0000  0.0000  0.0000  0.0000 </r>
       </set>
       <set comment="band 44">
        <r>  0.0309  0.0660  0.0000  0.0030  0.0000  0.0000  0.0000  0.0000  0.0000 </r>
       </set>
       <set comment="band 45">
        <r>  0.0065  0.0004  0.0000  0.0170  0.0000  0.0000  0.0000  0.0000  0.0000 </r>
       </set>
       <set comment="band 46">
        <r>  0.0000  0.0000  0.0144  0.0000  0.0000  0.0000  0.0000  0.0000  0.0000 </r>
       </set>
       <set comment="band 47">
        <r>  0.0775  0.1258  0.0000  0.0109  0.0000  0.0000  0.0000  0.0000  0.0000 </r>
       </set>
       <set comment="band 48">
        <r>  0.0000  0.0000  0.0686  0.0000  0.0000  0.0000  0.0000  0.0000  0.0000 </r>
       </set>
      </set>
     </set>
    </set>
   </array>
  </projected>
 </calculation>
 <structure name="finalpos" >
  <crystal>
   <varray name="basis" >
    <v>       0.00000000       2.02400000       2.02400000 </v>
    <v>       2.02400000       0.00000000       2.02400000 </v>
    <v>       2.02400000       2.02400000       0.00000000 </v>
   </varray>
   <i name="volume">     16.58293965 </i>
   <varray name="rec_basis" >
    <v>      -0.24703557       0.24703557       0.24703557 </v>
    <v>       0.24703557      -0.24703557       0.24703557 </v>
    <v>       0.24703557       0.24703557      -0.24703557 </v>
   </varray>
  </crystal>
  <varray name="positions" >
   <v>       0.00000000       0.00000000       0.00000000 </v>
  </varray>
 </structure>
</modeling>
