   4   4   1   0
  0.1144571E+02  0.3577475E-09  0.3577475E-09  0.3577431E-09  0.5000000E-15
   1.0000000000000000E-004
  CAR 
 unknown system                          
     24.54717274    -66.88788883  301      7.28940980      1.00000000
    -66.888  0.0000E+00  0.0000E+00
    -66.583  0.0000E+00  0.0000E+00
    -66.278  0.0000E+00  0.0000E+00
    -65.974  0.0000E+00  0.0000E+00
    -65.669  0.0000E+00  0.0000E+00
    -65.364  0.0000E+00  0.0000E+00
    -65.059  0.0000E+00  0.0000E+00
    -64.754  0.0000E+00  0.0000E+00
    -64.450 -0.7319E-31 -0.2231E-31
    -64.145 -0.1903E-20 -0.5799E-21
    -63.840 -0.4623E-12 -0.1409E-12
    -63.535 -0.1087E-05 -0.3315E-06
    -63.230 -0.2321E-01 -0.7073E-02
    -62.926 -0.2440E+01 -0.7507E+00
    -62.621  0.5436E+02  0.1582E+02
    -62.316  0.2828E+02  0.2443E+02
    -62.011 -0.1421E+01  0.2400E+02
    -61.707 -0.2462E-02  0.2400E+02
    -61.402 -0.2796E-07  0.2400E+02
    -61.097 -0.1466E-14  0.2400E+02
    -60.792  0.0000E+00  0.2400E+02
    -60.487  0.0000E+00  0.2400E+02
    -60.183  0.0000E+00  0.2400E+02
    -59.878  0.0000E+00  0.2400E+02
    -59.573  0.0000E+00  0.2400E+02
    -59.268  0.0000E+00  0.2400E+02
    -58.964  0.0000E+00  0.2400E+02
    -58.659  0.0000E+00  0.2400E+02
    -58.354  0.0000E+00  0.2400E+02
    -58.049  0.0000E+00  0.2400E+02
    -57.744  0.0000E+00  0.2400E+02
    -57.440  0.0000E+00  0.2400E+02
    -57.135  0.0000E+00  0.2400E+02
    -56.830  0.0000E+00  0.2400E+02
    -56.525  0.0000E+00  0.2400E+02
    -56.220  0.0000E+00  0.2400E+02
    -55.916  0.0000E+00  0.2400E+02
    -55.611  0.0000E+00  0.2400E+02
    -55.306  0.0000E+00  0.2400E+02
    -55.001  0.0000E+00  0.2400E+02
    -54.697  0.0000E+00  0.2400E+02
    -54.392  0.0000E+00  0.2400E+02
    -54.087  0.0000E+00  0.2400E+02
    -53.782  0.0000E+00  0.2400E+02
    -53.477  0.0000E+00  0.2400E+02
    -53.173  0.0000E+00  0.2400E+02
    -52.868  0.0000E+00  0.2400E+02
    -52.563  0.0000E+00  0.2400E+02
    -52.258  0.0000E+00  0.2400E+02
    -51.953  0.0000E+00  0.2400E+02
    -51.649  0.0000E+00  0.2400E+02
    -51.344  0.0000E+00  0.2400E+02
    -51.039  0.0000E+00  0.2400E+02
    -50.734  0.0000E+00  0.2400E+02
    -50.430  0.0000E+00  0.2400E+02
    -50.125  0.0000E+00  0.2400E+02
    -49.820  0.0000E+00  0.2400E+02
    -49.515  0.0000E+00  0.2400E+02
    -49.210  0.0000E+00  0.2400E+02
    -48.906  0.0000E+00  0.2400E+02
    -48.601  0.0000E+00  0.2400E+02
    -48.296  0.0000E+00  0.2400E+02
    -47.991  0.0000E+00  0.2400E+02
    -47.687  0.0000E+00  0.2400E+02
    -47.382  0.0000E+00  0.2400E+02
    -47.077  0.0000E+00  0.2400E+02
    -46.772  0.0000E+00  0.2400E+02
    -46.467  0.0000E+00  0.2400E+02
    -46.163  0.0000E+00  0.2400E+02
    -45.858  0.0000E+00  0.2400E+02
    -45.553  0.0000E+00  0.2400E+02
    -45.248  0.0000E+00  0.2400E+02
    -44.943  0.0000E+00  0.2400E+02
    -44.639  0.0000E+00  0.2400E+02
    -44.334  0.0000E+00  0.2400E+02
    -44.029  0.0000E+00  0.2400E+02
    -43.724  0.0000E+00  0.2400E+02
    -43.420  0.0000E+00  0.2400E+02
    -43.115  0.0000E+00  0.2400E+02
    -42.810  0.0000E+00  0.2400E+02
    -42.505  0.0000E+00  0.2400E+02
    -42.200  0.0000E+00  0.2400E+02
    -41.896  0.0000E+00  0.2400E+02
    -41.591  0.0000E+00  0.2400E+02
    -41.286  0.0000E+00  0.2400E+02
    -40.981  0.0000E+00  0.2400E+02
    -40.677  0.0000E+00  0.2400E+02
    -40.372  0.0000E+00  0.2400E+02
    -40.067  0.0000E+00  0.2400E+02
    -39.762  0.0000E+00  0.2400E+02
    -39.457  0.0000E+00  0.2400E+02
    -39.153  0.0000E+00  0.2400E+02
    -38.848  0.0000E+00  0.2400E+02
    -38.543  0.0000E+00  0.2400E+02
    -38.238  0.0000E+00  0.2400E+02
    -37.933  0.0000E+00  0.2400E+02
    -37.629  0.0000E+00  0.2400E+02
    -37.324  0.0000E+00  0.2400E+02
    -37.019  0.0000E+00  0.2400E+02
    -36.714  0.0000E+00  0.2400E+02
    -36.410  0.0000E+00  0.2400E+02
    -36.105  0.0000E+00  0.2400E+02
    -35.800  0.0000E+00  0.2400E+02
    -35.495  0.0000E+00  0.2400E+02
    -35.190  0.0000E+00  0.2400E+02
    -34.886  0.0000E+00  0.2400E+02
    -34.581  0.0000E+00  0.2400E+02
    -34.276  0.0000E+00  0.2400E+02
    -33.971  0.0000E+00  0.2400E+02
    -33.666  0.0000E+00  0.2400E+02
    -33.362  0.0000E+00  0.2400E+02
    -33.057  0.0000E+00  0.2400E+02
    -32.752  0.0000E+00  0.2400E+02
    -32.447  0.0000E+00  0.2400E+02
    -32.143  0.0000E+00  0.2400E+02
    -31.838  0.0000E+00  0.2400E+02
    -31.533  0.0000E+00  0.2400E+02
    -31.228  0.0000E+00  0.2400E+02
    -30.923  0.0000E+00  0.2400E+02
    -30.619  0.0000E+00  0.2400E+02
    -30.314  0.0000E+00  0.2400E+02
    -30.009  0.0000E+00  0.2400E+02
    -29.704  0.0000E+00  0.2400E+02
    -29.400  0.0000E+00  0.2400E+02
    -29.095  0.0000E+00  0.2400E+02
    -28.790  0.0000E+00  0.2400E+02
    -28.485  0.0000E+00  0.2400E+02
    -28.180  0.0000E+00  0.2400E+02
    -27.876  0.0000E+00  0.2400E+02
    -27.571  0.0000E+00  0.2400E+02
    -27.266  0.0000E+00  0.2400E+02
    -26.961  0.0000E+00  0.2400E+02
    -26.656  0.0000E+00  0.2400E+02
    -26.352  0.0000E+00  0.2400E+02
    -26.047  0.0000E+00  0.2400E+02
    -25.742  0.0000E+00  0.2400E+02
    -25.437  0.0000E+00  0.2400E+02
    -25.133  0.0000E+00  0.2400E+02
    -24.828  0.0000E+00  0.2400E+02
    -24.523  0.0000E+00  0.2400E+02
    -24.218  0.0000E+00  0.2400E+02
    -23.913  0.0000E+00  0.2400E+02
    -23.609  0.0000E+00  0.2400E+02
    -23.304  0.0000E+00  0.2400E+02
    -22.999  0.0000E+00  0.2400E+02
    -22.694  0.0000E+00  0.2400E+02
    -22.389  0.0000E+00  0.2400E+02
    -22.085  0.0000E+00  0.2400E+02
    -21.780  0.0000E+00  0.2400E+02
    -21.475  0.0000E+00  0.2400E+02
    -21.170  0.0000E+00  0.2400E+02
    -20.866  0.0000E+00  0.2400E+02
    -20.561  0.0000E+00  0.2400E+02
    -20.256  0.0000E+00  0.2400E+02
    -19.951  0.0000E+00  0.2400E+02
    -19.646  0.0000E+00  0.2400E+02
    -19.342  0.0000E+00  0.2400E+02
    -19.037  0.0000E+00  0.2400E+02
    -18.732  0.0000E+00  0.2400E+02
    -18.427  0.0000E+00  0.2400E+02
    -18.123  0.0000E+00  0.2400E+02
    -17.818  0.0000E+00  0.2400E+02
    -17.513  0.0000E+00  0.2400E+02
    -17.208  0.0000E+00  0.2400E+02
    -16.903  0.0000E+00  0.2400E+02
    -16.599  0.0000E+00  0.2400E+02
    -16.294  0.0000E+00  0.2400E+02
    -15.989  0.0000E+00  0.2400E+02
    -15.684  0.0000E+00  0.2400E+02
    -15.379  0.0000E+00  0.2400E+02
    -15.075  0.0000E+00  0.2400E+02
    -14.770  0.0000E+00  0.2400E+02
    -14.465  0.0000E+00  0.2400E+02
    -14.160  0.0000E+00  0.2400E+02
    -13.856  0.0000E+00  0.2400E+02
    -13.551  0.0000E+00  0.2400E+02
    -13.246  0.0000E+00  0.2400E+02
    -12.941  0.0000E+00  0.2400E+02
    -12.636  0.0000E+00  0.2400E+02
    -12.332  0.0000E+00  0.2400E+02
    -12.027  0.0000E+00  0.2400E+02
    -11.722  0.0000E+00  0.2400E+02
    -11.417  0.0000E+00  0.2400E+02
    -11.113  0.0000E+00  0.2400E+02
    -10.808  0.0000E+00  0.2400E+02
    -10.503  0.0000E+00  0.2400E+02
    -10.198  0.0000E+00  0.2400E+02
     -9.893  0.0000E+00  0.2400E+02
     -9.589  0.0000E+00  0.2400E+02
     -9.284  0.0000E+00  0.2400E+02
     -8.979  0.0000E+00  0.2400E+02
     -8.674  0.0000E+00  0.2400E+02
     -8.369  0.0000E+00  0.2400E+02
     -8.065  0.0000E+00  0.2400E+02
     -7.760  0.0000E+00  0.2400E+02
     -7.455  0.0000E+00  0.2400E+02
     -7.150  0.0000E+00  0.2400E+02
     -6.846  0.0000E+00  0.2400E+02
     -6.541  0.0000E+00  0.2400E+02
     -6.236  0.0000E+00  0.2400E+02
     -5.931  0.0000E+00  0.2400E+02
     -5.626  0.0000E+00  0.2400E+02
     -5.322  0.0000E+00  0.2400E+02
     -5.017  0.0000E+00  0.2400E+02
     -4.712  0.0000E+00  0.2400E+02
     -4.407  0.0000E+00  0.2400E+02
     -4.102 -0.2851E-35  0.2400E+02
     -3.798 -0.9898E-25  0.2400E+02
     -3.493 -0.3138E-16  0.2400E+02
     -3.188 -0.9549E-10  0.2400E+02
     -2.883 -0.3008E-05  0.2400E+02
     -2.579 -0.1036E-02  0.2400E+02
     -2.274  0.1679E-01  0.2400E+02
     -1.969  0.1283E+00  0.2404E+02
     -1.664  0.2056E+00  0.2411E+02
     -1.359  0.2921E+00  0.2420E+02
     -1.055  0.3097E+00  0.2429E+02
     -0.750  0.4089E+00  0.2441E+02
     -0.445  0.3998E+00  0.2454E+02
     -0.140  0.5152E+00  0.2469E+02
      0.164  0.5402E+00  0.2486E+02
      0.469  0.6138E+00  0.2505E+02
      0.774  0.6817E+00  0.2525E+02
      1.079  0.8404E+00  0.2551E+02
      1.384  0.8787E+00  0.2578E+02
      1.688  0.1297E+01  0.2617E+02
      1.993  0.1759E+01  0.2671E+02
      2.298  0.3458E+01  0.2776E+02
      2.603  0.4739E+01  0.2921E+02
      2.908  0.6689E+01  0.3125E+02
      3.212  0.8707E+01  0.3390E+02
      3.517  0.7929E+01  0.3632E+02
      3.822  0.9761E+01  0.3929E+02
      4.127  0.1295E+02  0.4324E+02
      4.431  0.1542E+02  0.4794E+02
      4.736  0.1083E+02  0.5124E+02
      5.041  0.1292E+02  0.5518E+02
      5.346  0.1248E+02  0.5898E+02
      5.651  0.1675E+02  0.6409E+02
      5.955  0.7039E+01  0.6623E+02
      6.260  0.1424E+01  0.6667E+02
      6.565  0.1395E+01  0.6709E+02
      6.870  0.1099E+01  0.6743E+02
      7.175  0.1563E+01  0.6790E+02
      7.479  0.8993E+00  0.6818E+02
      7.784  0.1257E+01  0.6856E+02
      8.089  0.1228E+01  0.6893E+02
      8.394  0.7563E+00  0.6916E+02
      8.698  0.1277E+01  0.6955E+02
      9.003  0.9465E+00  0.6984E+02
      9.308  0.9405E+00  0.7013E+02
      9.613  0.8749E+00  0.7040E+02
      9.918  0.1005E+01  0.7070E+02
     10.222  0.5846E+00  0.7088E+02
     10.527  0.8026E+00  0.7112E+02
     10.832  0.6630E+00  0.7133E+02
     11.137  0.5574E+00  0.7150E+02
     11.441  0.7986E+00  0.7174E+02
     11.746  0.1204E+01  0.7211E+02
     12.051  0.1141E+01  0.7245E+02
     12.356  0.1050E+01  0.7277E+02
     12.661  0.1308E+01  0.7317E+02
     12.965  0.1002E+01  0.7348E+02
     13.270  0.1003E+01  0.7378E+02
     13.575  0.9824E+00  0.7408E+02
     13.880  0.1057E+01  0.7441E+02
     14.185  0.8579E+00  0.7467E+02
     14.489  0.8687E+00  0.7493E+02
     14.794  0.9716E+00  0.7523E+02
     15.099  0.1183E+01  0.7559E+02
     15.404  0.1365E+01  0.7600E+02
     15.708  0.1437E+01  0.7644E+02
     16.013  0.1001E+01  0.7675E+02
     16.318  0.1633E+01  0.7725E+02
     16.623  0.1526E+01  0.7771E+02
     16.928  0.8921E+00  0.7798E+02
     17.232  0.1523E+01  0.7845E+02
     17.537  0.1170E+01  0.7880E+02
     17.842  0.1412E+01  0.7923E+02
     18.147  0.9138E+00  0.7951E+02
     18.452  0.6112E+00  0.7970E+02
     18.756  0.4654E+00  0.7984E+02
     19.061  0.3103E+00  0.7994E+02
     19.366  0.1535E+00  0.7998E+02
     19.671  0.1585E-02  0.7998E+02
     19.975  0.1921E-01  0.7999E+02
     20.280  0.3430E-01  0.8000E+02
     20.585  0.4175E-02  0.8000E+02
     20.890 -0.1760E-03  0.8000E+02
     21.195 -0.4554E-05  0.8000E+02
     21.499 -0.3953E-09  0.8000E+02
     21.804 -0.2648E-15  0.8000E+02
     22.109  0.0000E+00  0.8000E+02
     22.414  0.0000E+00  0.8000E+02
     22.718  0.0000E+00  0.8000E+02
     23.023  0.0000E+00  0.8000E+02
     23.328  0.0000E+00  0.8000E+02
     23.633  0.0000E+00  0.8000E+02
     23.938  0.0000E+00  0.8000E+02
     24.242  0.0000E+00  0.8000E+02
     24.547  0.0000E+00  0.8000E+02
     24.54717274    -66.88788883  301      7.28940980      1.00000000
    -66.888  0.0000E+00  0.0000E+00  0.0000E+00  0.0000E+00  0.0000E+00  0.0000E+00  0.0000E+00  0.0000E+00  0.0000E+00
    -66.583  0.0000E+00  0.0000E+00  0.0000E+00  0.0000E+00  0.0000E+00  0.0000E+00  0.0000E+00  0.0000E+00  0.0000E+00
    -66.278  0.0000E+00  0.0000E+00  0.0000E+00  0.0000E+00  0.0000E+00  0.0000E+00  0.0000E+00  0.0000E+00  0.0000E+00
    -65.974  0.0000E+00  0.0000E+00  0.0000E+00  0.0000E+00  0.0000E+00  0.0000E+00  0.0000E+00  0.0000E+00  0.0000E+00
    -65.669  0.0000E+00  0.0000E+00  0.0000E+00  0.0000E+00  0.0000E+00  0.0000E+00  0.0000E+00  0.0000E+00  0.0000E+00
    -65.364  0.0000E+00  0.0000E+00  0.0000E+00  0.0000E+00  0.0000E+00  0.0000E+00  0.0000E+00  0.0000E+00  0.0000E+00
    -65.059  0.0000E+00  0.0000E+00  0.0000E+00  0.0000E+00  0.0000E+00  0.0000E+00  0.0000E+00  0.0000E+00  0.0000E+00
    -64.754  0.0000E+00  0.0000E+00  0.0000E+00  0.0000E+00  0.0000E+00  0.0000E+00  0.0000E+00  0.0000E+00  0.0000E+00
    -64.450 -0.3107E-37 -0.6120E-32 -0.5972E-32 -0.6120E-32 -0.1097E-37 -0.1069E-37 -0.4834E-38 -0.1069E-37 -0.4642E-38
    -64.145 -0.8853E-27 -0.1589E-21 -0.1557E-21 -0.1589E-21 -0.3053E-27 -0.2978E-27 -0.1326E-27 -0.2978E-27 -0.1280E-27
    -63.840 -0.2330E-18 -0.3854E-13 -0.3797E-13 -0.3854E-13 -0.7968E-19 -0.7784E-19 -0.3435E-19 -0.7784E-19 -0.3333E-19
    -63.535 -0.5755E-12 -0.9053E-07 -0.8964E-07 -0.9053E-07 -0.2016E-12 -0.1974E-12 -0.8731E-13 -0.1974E-12 -0.8531E-13
    -63.230 -0.1196E-07 -0.1929E-02 -0.1920E-02 -0.1929E-02 -0.4552E-08 -0.4473E-08 -0.2053E-08 -0.4473E-08 -0.2022E-08
    -62.926 -0.9595E-06 -0.2026E+00 -0.2027E+00 -0.2026E+00 -0.4758E-06 -0.4707E-06 -0.2451E-06 -0.4707E-06 -0.2437E-06
    -62.621  0.2239E-04  0.4515E+01  0.4513E+01  0.4515E+01  0.1056E-04  0.1043E-04  0.5330E-05  0.1043E-04  0.5291E-05
    -62.316  0.8121E-05  0.2348E+01  0.2351E+01  0.2348E+01  0.4990E-05  0.4957E-05  0.2837E-05  0.4957E-05  0.2827E-05
    -62.011 -0.4077E-06 -0.1180E+00 -0.1181E+00 -0.1180E+00 -0.2501E-06 -0.2484E-06 -0.1423E-06 -0.2484E-06 -0.1417E-06
    -61.707 -0.4652E-09 -0.2045E-03 -0.2047E-03 -0.2045E-03 -0.3734E-09 -0.3725E-09 -0.2327E-09 -0.3725E-09 -0.2321E-09
    -61.402 -0.3885E-14 -0.2323E-08 -0.2325E-08 -0.2323E-08 -0.3752E-14 -0.3752E-14 -0.2435E-14 -0.3752E-14 -0.2431E-14
    -61.097 -0.6803E-22 -0.1217E-15 -0.1223E-15 -0.1217E-15 -0.1127E-21 -0.1164E-21 -0.5324E-22 -0.1164E-21 -0.5316E-22
    -60.792  0.0000E+00  0.0000E+00  0.0000E+00  0.0000E+00  0.0000E+00  0.0000E+00  0.0000E+00  0.0000E+00  0.0000E+00
    -60.487  0.0000E+00  0.0000E+00  0.0000E+00  0.0000E+00  0.0000E+00  0.0000E+00  0.0000E+00  0.0000E+00  0.0000E+00
    -60.183  0.0000E+00  0.0000E+00  0.0000E+00  0.0000E+00  0.0000E+00  0.0000E+00  0.0000E+00  0.0000E+00  0.0000E+00
    -59.878  0.0000E+00  0.0000E+00  0.0000E+00  0.0000E+00  0.0000E+00  0.0000E+00  0.0000E+00  0.0000E+00  0.0000E+00
    -59.573  0.0000E+00  0.0000E+00  0.0000E+00  0.0000E+00  0.0000E+00  0.0000E+00  0.0000E+00  0.0000E+00  0.0000E+00
    -59.268  0.0000E+00  0.0000E+00  0.0000E+00  0.0000E+00  0.0000E+00  0.0000E+00  0.0000E+00  0.0000E+00  0.0000E+00
    -58.964  0.0000E+00  0.0000E+00  0.0000E+00  0.0000E+00  0.0000E+00  0.0000E+00  0.0000E+00  0.0000E+00  0.0000E+00
    -58.659  0.0000E+00  0.0000E+00  0.0000E+00  0.0000E+00  0.0000E+00  0.0000E+00  0.0000E+00  0.0000E+00  0.0000E+00
    -58.354  0.0000E+00  0.0000E+00  0.0000E+00  0.0000E+00  0.0000E+00  0.0000E+00  0.0000E+00  0.0000E+00  0.0000E+00
    -58.049  0.0000E+00  0.0000E+00  0.0000E+00  0.0000E+00  0.0000E+00  0.0000E+00  0.0000E+00  0.0000E+00  0.0000E+00
    -57.744  0.0000E+00  0.0000E+00  0.0000E+00  0.0000E+00  0.0000E+00  0.0000E+00  0.0000E+00  0.0000E+00  0.0000E+00
    -57.440  0.0000E+00  0.0000E+00  0.0000E+00  0.0000E+00  0.0000E+00  0.0000E+00  0.0000E+00  0.0000E+00  0.0000E+00
    -57.135  0.0000E+00  0.0000E+00  0.0000E+00  0.0000E+00  0.0000E+00  0.0000E+00  0.0000E+00  0.0000E+00  0.0000E+00
    -56.830  0.0000E+00  0.0000E+00  0.0000E+00  0.0000E+00  0.0000E+00  0.0000E+00  0.0000E+00  0.0000E+00  0.0000E+00
    -56.525  0.0000E+00  0.0000E+00  0.0000E+00  0.0000E+00  0.0000E+00  0.0000E+00  0.0000E+00  0.0000E+00  0.0000E+00
    -56.220  0.0000E+00  0.0000E+00  0.0000E+00  0.0000E+00  0.0000E+00  0.0000E+00  0.0000E+00  0.0000E+00  0.0000E+00
    -55.916  0.0000E+00  0.0000E+00  0.0000E+00  0.0000E+00  0.0000E+00  0.0000E+00  0.0000E+00  0.0000E+00  0.0000E+00
    -55.611  0.0000E+00  0.0000E+00  0.0000E+00  0.0000E+00  0.0000E+00  0.0000E+00  0.0000E+00  0.0000E+00  0.0000E+00
    -55.306  0.0000E+00  0.0000E+00  0.0000E+00  0.0000E+00  0.0000E+00  0.0000E+00  0.0000E+00  0.0000E+00  0.0000E+00
    -55.001  0.0000E+00  0.0000E+00  0.0000E+00  0.0000E+00  0.0000E+00  0.0000E+00  0.0000E+00  0.0000E+00  0.0000E+00
    -54.697  0.0000E+00  0.0000E+00  0.0000E+00  0.0000E+00  0.0000E+00  0.0000E+00  0.0000E+00  0.0000E+00  0.0000E+00
    -54.392  0.0000E+00  0.0000E+00  0.0000E+00  0.0000E+00  0.0000E+00  0.0000E+00  0.0000E+00  0.0000E+00  0.0000E+00
    -54.087  0.0000E+00  0.0000E+00  0.0000E+00  0.0000E+00  0.0000E+00  0.0000E+00  0.0000E+00  0.0000E+00  0.0000E+00
    -53.782  0.0000E+00  0.0000E+00  0.0000E+00  0.0000E+00  0.0000E+00  0.0000E+00  0.0000E+00  0.0000E+00  0.0000E+00
    -53.477  0.0000E+00  0.0000E+00  0.0000E+00  0.0000E+00  0.0000E+00  0.0000E+00  0.0000E+00  0.0000E+00  0.0000E+00
    -53.173  0.0000E+00  0.0000E+00  0.0000E+00  0.0000E+00  0.0000E+00  0.0000E+00  0.0000E+00  0.0000E+00  0.0000E+00
    -52.868  0.0000E+00  0.0000E+00  0.0000E+00  0.0000E+00  0.0000E+00  0.0000E+00  0.0000E+00  0.0000E+00  0.0000E+00
    -52.563  0.0000E+00  0.0000E+00  0.0000E+00  0.0000E+00  0.0000E+00  0.0000E+00  0.0000E+00  0.0000E+00  0.0000E+00
    -52.258  0.0000E+00  0.0000E+00  0.0000E+00  0.0000E+00  0.0000E+00  0.0000E+00  0.0000E+00  0.0000E+00  0.0000E+00
    -51.953  0.0000E+00  0.0000E+00  0.0000E+00  0.0000E+00  0.0000E+00  0.0000E+00  0.0000E+00  0.0000E+00  0.0000E+00
    -51.649  0.0000E+00  0.0000E+00  0.0000E+00  0.0000E+00  0.0000E+00  0.0000E+00  0.0000E+00  0.0000E+00  0.0000E+00
    -51.344  0.0000E+00  0.0000E+00  0.0000E+00  0.0000E+00  0.0000E+00  0.0000E+00  0.0000E+00  0.0000E+00  0.0000E+00
    -51.039  0.0000E+00  0.0000E+00  0.0000E+00  0.0000E+00  0.0000E+00  0.0000E+00  0.0000E+00  0.0000E+00  0.0000E+00
    -50.734  0.0000E+00  0.0000E+00  0.0000E+00  0.0000E+00  0.0000E+00  0.0000E+00  0.0000E+00  0.0000E+00  0.0000E+00
    -50.430  0.0000E+00  0.0000E+00  0.0000E+00  0.0000E+00  0.0000E+00  0.0000E+00  0.0000E+00  0.0000E+00  0.0000E+00
    -50.125  0.0000E+00  0.0000E+00  0.0000E+00  0.0000E+00  0.0000E+00  0.0000E+00  0.0000E+00  0.0000E+00  0.0000E+00
    -49.820  0.0000E+00  0.0000E+00  0.0000E+00  0.0000E+00  0.0000E+00  0.0000E+00  0.0000E+00  0.0000E+00  0.0000E+00
    -49.515  0.0000E+00  0.0000E+00  0.0000E+00  0.0000E+00  0.0000E+00  0.0000E+00  0.0000E+00  0.0000E+00  0.0000E+00
    -49.210  0.0000E+00  0.0000E+00  0.0000E+00  0.0000E+00  0.0000E+00  0.0000E+00  0.0000E+00  0.0000E+00  0.0000E+00
    -48.906  0.0000E+00  0.0000E+00  0.0000E+00  0.0000E+00  0.0000E+00  0.0000E+00  0.0000E+00  0.0000E+00  0.0000E+00
    -48.601  0.0000E+00  0.0000E+00  0.0000E+00  0.0000E+00  0.0000E+00  0.0000E+00  0.0000E+00  0.0000E+00  0.0000E+00
    -48.296  0.0000E+00  0.0000E+00  0.0000E+00  0.0000E+00  0.0000E+00  0.0000E+00  0.0000E+00  0.0000E+00  0.0000E+00
    -47.991  0.0000E+00  0.0000E+00  0.0000E+00  0.0000E+00  0.0000E+00  0.0000E+00  0.0000E+00  0.0000E+00  0.0000E+00
    -47.687  0.0000E+00  0.0000E+00  0.0000E+00  0.0000E+00  0.0000E+00  0.0000E+00  0.0000E+00  0.0000E+00  0.0000E+00
    -47.382  0.0000E+00  0.0000E+00  0.0000E+00  0.0000E+00  0.0000E+00  0.0000E+00  0.0000E+00  0.0000E+00  0.0000E+00
    -47.077  0.0000E+00  0.0000E+00  0.0000E+00  0.0000E+00  0.0000E+00  0.0000E+00  0.0000E+00  0.0000E+00  0.0000E+00
    -46.772  0.0000E+00  0.0000E+00  0.0000E+00  0.0000E+00  0.0000E+00  0.0000E+00  0.0000E+00  0.0000E+00  0.0000E+00
    -46.467  0.0000E+00  0.0000E+00  0.0000E+00  0.0000E+00  0.0000E+00  0.0000E+00  0.0000E+00  0.0000E+00  0.0000E+00
    -46.163  0.0000E+00  0.0000E+00  0.0000E+00  0.0000E+00  0.0000E+00  0.0000E+00  0.0000E+00  0.0000E+00  0.0000E+00
    -45.858  0.0000E+00  0.0000E+00  0.0000E+00  0.0000E+00  0.0000E+00  0.0000E+00  0.0000E+00  0.0000E+00  0.0000E+00
    -45.553  0.0000E+00  0.0000E+00  0.0000E+00  0.0000E+00  0.0000E+00  0.0000E+00  0.0000E+00  0.0000E+00  0.0000E+00
    -45.248  0.0000E+00  0.0000E+00  0.0000E+00  0.0000E+00  0.0000E+00  0.0000E+00  0.0000E+00  0.0000E+00  0.0000E+00
    -44.943  0.0000E+00  0.0000E+00  0.0000E+00  0.0000E+00  0.0000E+00  0.0000E+00  0.0000E+00  0.0000E+00  0.0000E+00
    -44.639  0.0000E+00  0.0000E+00  0.0000E+00  0.0000E+00  0.0000E+00  0.0000E+00  0.0000E+00  0.0000E+00  0.0000E+00
    -44.334  0.0000E+00  0.0000E+00  0.0000E+00  0.0000E+00  0.0000E+00  0.0000E+00  0.0000E+00  0.0000E+00  0.0000E+00
    -44.029  0.0000E+00  0.0000E+00  0.0000E+00  0.0000E+00  0.0000E+00  0.0000E+00  0.0000E+00  0.0000E+00  0.0000E+00
    -43.724  0.0000E+00  0.0000E+00  0.0000E+00  0.0000E+00  0.0000E+00  0.0000E+00  0.0000E+00  0.0000E+00  0.0000E+00
    -43.420  0.0000E+00  0.0000E+00  0.0000E+00  0.0000E+00  0.0000E+00  0.0000E+00  0.0000E+00  0.0000E+00  0.0000E+00
    -43.115  0.0000E+00  0.0000E+00  0.0000E+00  0.0000E+00  0.0000E+00  0.0000E+00  0.0000E+00  0.0000E+00  0.0000E+00
    -42.810  0.0000E+00  0.0000E+00  0.0000E+00  0.0000E+00  0.0000E+00  0.0000E+00  0.0000E+00  0.0000E+00  0.0000E+00
    -42.505  0.0000E+00  0.0000E+00  0.0000E+00  0.0000E+00  0.0000E+00  0.0000E+00  0.0000E+00  0.0000E+00  0.0000E+00
    -42.200  0.0000E+00  0.0000E+00  0.0000E+00  0.0000E+00  0.0000E+00  0.0000E+00  0.0000E+00  0.0000E+00  0.0000E+00
    -41.896  0.0000E+00  0.0000E+00  0.0000E+00  0.0000E+00  0.0000E+00  0.0000E+00  0.0000E+00  0.0000E+00  0.0000E+00
    -41.591  0.0000E+00  0.0000E+00  0.0000E+00  0.0000E+00  0.0000E+00  0.0000E+00  0.0000E+00  0.0000E+00  0.0000E+00
    -41.286  0.0000E+00  0.0000E+00  0.0000E+00  0.0000E+00  0.0000E+00  0.0000E+00  0.0000E+00  0.0000E+00  0.0000E+00
    -40.981  0.0000E+00  0.0000E+00  0.0000E+00  0.0000E+00  0.0000E+00  0.0000E+00  0.0000E+00  0.0000E+00  0.0000E+00
    -40.677  0.0000E+00  0.0000E+00  0.0000E+00  0.0000E+00  0.0000E+00  0.0000E+00  0.0000E+00  0.0000E+00  0.0000E+00
    -40.372  0.0000E+00  0.0000E+00  0.0000E+00  0.0000E+00  0.0000E+00  0.0000E+00  0.0000E+00  0.0000E+00  0.0000E+00
    -40.067  0.0000E+00  0.0000E+00  0.0000E+00  0.0000E+00  0.0000E+00  0.0000E+00  0.0000E+00  0.0000E+00  0.0000E+00
    -39.762  0.0000E+00  0.0000E+00  0.0000E+00  0.0000E+00  0.0000E+00  0.0000E+00  0.0000E+00  0.0000E+00  0.0000E+00
    -39.457  0.0000E+00  0.0000E+00  0.0000E+00  0.0000E+00  0.0000E+00  0.0000E+00  0.0000E+00  0.0000E+00  0.0000E+00
    -39.153  0.0000E+00  0.0000E+00  0.0000E+00  0.0000E+00  0.0000E+00  0.0000E+00  0.0000E+00  0.0000E+00  0.0000E+00
    -38.848  0.0000E+00  0.0000E+00  0.0000E+00  0.0000E+00  0.0000E+00  0.0000E+00  0.0000E+00  0.0000E+00  0.0000E+00
    -38.543  0.0000E+00  0.0000E+00  0.0000E+00  0.0000E+00  0.0000E+00  0.0000E+00  0.0000E+00  0.0000E+00  0.0000E+00
    -38.238  0.0000E+00  0.0000E+00  0.0000E+00  0.0000E+00  0.0000E+00  0.0000E+00  0.0000E+00  0.0000E+00  0.0000E+00
    -37.933  0.0000E+00  0.0000E+00  0.0000E+00  0.0000E+00  0.0000E+00  0.0000E+00  0.0000E+00  0.0000E+00  0.0000E+00
    -37.629  0.0000E+00  0.0000E+00  0.0000E+00  0.0000E+00  0.0000E+00  0.0000E+00  0.0000E+00  0.0000E+00  0.0000E+00
    -37.324  0.0000E+00  0.0000E+00  0.0000E+00  0.0000E+00  0.0000E+00  0.0000E+00  0.0000E+00  0.0000E+00  0.0000E+00
    -37.019  0.0000E+00  0.0000E+00  0.0000E+00  0.0000E+00  0.0000E+00  0.0000E+00  0.0000E+00  0.0000E+00  0.0000E+00
    -36.714  0.0000E+00  0.0000E+00  0.0000E+00  0.0000E+00  0.0000E+00  0.0000E+00  0.0000E+00  0.0000E+00  0.0000E+00
    -36.410  0.0000E+00  0.0000E+00  0.0000E+00  0.0000E+00  0.0000E+00  0.0000E+00  0.0000E+00  0.0000E+00  0.0000E+00
    -36.105  0.0000E+00  0.0000E+00  0.0000E+00  0.0000E+00  0.0000E+00  0.0000E+00  0.0000E+00  0.0000E+00  0.0000E+00
    -35.800  0.0000E+00  0.0000E+00  0.0000E+00  0.0000E+00  0.0000E+00  0.0000E+00  0.0000E+00  0.0000E+00  0.0000E+00
    -35.495  0.0000E+00  0.0000E+00  0.0000E+00  0.0000E+00  0.0000E+00  0.0000E+00  0.0000E+00  0.0000E+00  0.0000E+00
    -35.190  0.0000E+00  0.0000E+00  0.0000E+00  0.0000E+00  0.0000E+00  0.0000E+00  0.0000E+00  0.0000E+00  0.0000E+00
    -34.886  0.0000E+00  0.0000E+00  0.0000E+00  0.0000E+00  0.0000E+00  0.0000E+00  0.0000E+00  0.0000E+00  0.0000E+00
    -34.581  0.0000E+00  0.0000E+00  0.0000E+00  0.0000E+00  0.0000E+00  0.0000E+00  0.0000E+00  0.0000E+00  0.0000E+00
    -34.276  0.0000E+00  0.0000E+00  0.0000E+00  0.0000E+00  0.0000E+00  0.0000E+00  0.0000E+00  0.0000E+00  0.0000E+00
    -33.971  0.0000E+00  0.0000E+00  0.0000E+00  0.0000E+00  0.0000E+00  0.0000E+00  0.0000E+00  0.0000E+00  0.0000E+00
    -33.666  0.0000E+00  0.0000E+00  0.0000E+00  0.0000E+00  0.0000E+00  0.0000E+00  0.0000E+00  0.0000E+00  0.0000E+00
    -33.362  0.0000E+00  0.0000E+00  0.0000E+00  0.0000E+00  0.0000E+00  0.0000E+00  0.0000E+00  0.0000E+00  0.0000E+00
    -33.057  0.0000E+00  0.0000E+00  0.0000E+00  0.0000E+00  0.0000E+00  0.0000E+00  0.0000E+00  0.0000E+00  0.0000E+00
    -32.752  0.0000E+00  0.0000E+00  0.0000E+00  0.0000E+00  0.0000E+00  0.0000E+00  0.0000E+00  0.0000E+00  0.0000E+00
    -32.447  0.0000E+00  0.0000E+00  0.0000E+00  0.0000E+00  0.0000E+00  0.0000E+00  0.0000E+00  0.0000E+00  0.0000E+00
    -32.143  0.0000E+00  0.0000E+00  0.0000E+00  0.0000E+00  0.0000E+00  0.0000E+00  0.0000E+00  0.0000E+00  0.0000E+00
    -31.838  0.0000E+00  0.0000E+00  0.0000E+00  0.0000E+00  0.0000E+00  0.0000E+00  0.0000E+00  0.0000E+00  0.0000E+00
    -31.533  0.0000E+00  0.0000E+00  0.0000E+00  0.0000E+00  0.0000E+00  0.0000E+00  0.0000E+00  0.0000E+00  0.0000E+00
    -31.228  0.0000E+00  0.0000E+00  0.0000E+00  0.0000E+00  0.0000E+00  0.0000E+00  0.0000E+00  0.0000E+00  0.0000E+00
    -30.923  0.0000E+00  0.0000E+00  0.0000E+00  0.0000E+00  0.0000E+00  0.0000E+00  0.0000E+00  0.0000E+00  0.0000E+00
    -30.619  0.0000E+00  0.0000E+00  0.0000E+00  0.0000E+00  0.0000E+00  0.0000E+00  0.0000E+00  0.0000E+00  0.0000E+00
    -30.314  0.0000E+00  0.0000E+00  0.0000E+00  0.0000E+00  0.0000E+00  0.0000E+00  0.0000E+00  0.0000E+00  0.0000E+00
    -30.009  0.0000E+00  0.0000E+00  0.0000E+00  0.0000E+00  0.0000E+00  0.0000E+00  0.0000E+00  0.0000E+00  0.0000E+00
    -29.704  0.0000E+00  0.0000E+00  0.0000E+00  0.0000E+00  0.0000E+00  0.0000E+00  0.0000E+00  0.0000E+00  0.0000E+00
    -29.400  0.0000E+00  0.0000E+00  0.0000E+00  0.0000E+00  0.0000E+00  0.0000E+00  0.0000E+00  0.0000E+00  0.0000E+00
    -29.095  0.0000E+00  0.0000E+00  0.0000E+00  0.0000E+00  0.0000E+00  0.0000E+00  0.0000E+00  0.0000E+00  0.0000E+00
    -28.790  0.0000E+00  0.0000E+00  0.0000E+00  0.0000E+00  0.0000E+00  0.0000E+00  0.0000E+00  0.0000E+00  0.0000E+00
    -28.485  0.0000E+00  0.0000E+00  0.0000E+00  0.0000E+00  0.0000E+00  0.0000E+00  0.0000E+00  0.0000E+00  0.0000E+00
    -28.180  0.0000E+00  0.0000E+00  0.0000E+00  0.0000E+00  0.0000E+00  0.0000E+00  0.0000E+00  0.0000E+00  0.0000E+00
    -27.876  0.0000E+00  0.0000E+00  0.0000E+00  0.0000E+00  0.0000E+00  0.0000E+00  0.0000E+00  0.0000E+00  0.0000E+00
    -27.571  0.0000E+00  0.0000E+00  0.0000E+00  0.0000E+00  0.0000E+00  0.0000E+00  0.0000E+00  0.0000E+00  0.0000E+00
    -27.266  0.0000E+00  0.0000E+00  0.0000E+00  0.0000E+00  0.0000E+00  0.0000E+00  0.0000E+00  0.0000E+00  0.0000E+00
    -26.961  0.0000E+00  0.0000E+00  0.0000E+00  0.0000E+00  0.0000E+00  0.0000E+00  0.0000E+00  0.0000E+00  0.0000E+00
    -26.656  0.0000E+00  0.0000E+00  0.0000E+00  0.0000E+00  0.0000E+00  0.0000E+00  0.0000E+00  0.0000E+00  0.0000E+00
    -26.352  0.0000E+00  0.0000E+00  0.0000E+00  0.0000E+00  0.0000E+00  0.0000E+00  0.0000E+00  0.0000E+00  0.0000E+00
    -26.047  0.0000E+00  0.0000E+00  0.0000E+00  0.0000E+00  0.0000E+00  0.0000E+00  0.0000E+00  0.0000E+00  0.0000E+00
    -25.742  0.0000E+00  0.0000E+00  0.0000E+00  0.0000E+00  0.0000E+00  0.0000E+00  0.0000E+00  0.0000E+00  0.0000E+00
    -25.437  0.0000E+00  0.0000E+00  0.0000E+00  0.0000E+00  0.0000E+00  0.0000E+00  0.0000E+00  0.0000E+00  0.0000E+00
    -25.133  0.0000E+00  0.0000E+00  0.0000E+00  0.0000E+00  0.0000E+00  0.0000E+00  0.0000E+00  0.0000E+00  0.0000E+00
    -24.828  0.0000E+00  0.0000E+00  0.0000E+00  0.0000E+00  0.0000E+00  0.0000E+00  0.0000E+00  0.0000E+00  0.0000E+00
    -24.523  0.0000E+00  0.0000E+00  0.0000E+00  0.0000E+00  0.0000E+00  0.0000E+00  0.0000E+00  0.0000E+00  0.0000E+00
    -24.218  0.0000E+00  0.0000E+00  0.0000E+00  0.0000E+00  0.0000E+00  0.0000E+00  0.0000E+00  0.0000E+00  0.0000E+00
    -23.913  0.0000E+00  0.0000E+00  0.0000E+00  0.0000E+00  0.0000E+00  0.0000E+00  0.0000E+00  0.0000E+00  0.0000E+00
    -23.609  0.0000E+00  0.0000E+00  0.0000E+00  0.0000E+00  0.0000E+00  0.0000E+00  0.0000E+00  0.0000E+00  0.0000E+00
    -23.304  0.0000E+00  0.0000E+00  0.0000E+00  0.0000E+00  0.0000E+00  0.0000E+00  0.0000E+00  0.0000E+00  0.0000E+00
    -22.999  0.0000E+00  0.0000E+00  0.0000E+00  0.0000E+00  0.0000E+00  0.0000E+00  0.0000E+00  0.0000E+00  0.0000E+00
    -22.694  0.0000E+00  0.0000E+00  0.0000E+00  0.0000E+00  0.0000E+00  0.0000E+00  0.0000E+00  0.0000E+00  0.0000E+00
    -22.389  0.0000E+00  0.0000E+00  0.0000E+00  0.0000E+00  0.0000E+00  0.0000E+00  0.0000E+00  0.0000E+00  0.0000E+00
    -22.085  0.0000E+00  0.0000E+00  0.0000E+00  0.0000E+00  0.0000E+00  0.0000E+00  0.0000E+00  0.0000E+00  0.0000E+00
    -21.780  0.0000E+00  0.0000E+00  0.0000E+00  0.0000E+00  0.0000E+00  0.0000E+00  0.0000E+00  0.0000E+00  0.0000E+00
    -21.475  0.0000E+00  0.0000E+00  0.0000E+00  0.0000E+00  0.0000E+00  0.0000E+00  0.0000E+00  0.0000E+00  0.0000E+00
    -21.170  0.0000E+00  0.0000E+00  0.0000E+00  0.0000E+00  0.0000E+00  0.0000E+00  0.0000E+00  0.0000E+00  0.0000E+00
    -20.866  0.0000E+00  0.0000E+00  0.0000E+00  0.0000E+00  0.0000E+00  0.0000E+00  0.0000E+00  0.0000E+00  0.0000E+00
    -20.561  0.0000E+00  0.0000E+00  0.0000E+00  0.0000E+00  0.0000E+00  0.0000E+00  0.0000E+00  0.0000E+00  0.0000E+00
    -20.256  0.0000E+00  0.0000E+00  0.0000E+00  0.0000E+00  0.0000E+00  0.0000E+00  0.0000E+00  0.0000E+00  0.0000E+00
    -19.951  0.0000E+00  0.0000E+00  0.0000E+00  0.0000E+00  0.0000E+00  0.0000E+00  0.0000E+00  0.0000E+00  0.0000E+00
    -19.646  0.0000E+00  0.0000E+00  0.0000E+00  0.0000E+00  0.0000E+00  0.0000E+00  0.0000E+00  0.0000E+00  0.0000E+00
    -19.342  0.0000E+00  0.0000E+00  0.0000E+00  0.0000E+00  0.0000E+00  0.0000E+00  0.0000E+00  0.0000E+00  0.0000E+00