 running on    4 total cores
 distrk:  each k-point on    4 cores,    1 groups
 distr:  one band on    1 cores,    4 groups
 vasp.6.2.1 16May21 (build Aug 15 2022 14:47:30) complex                         
 POSCAR found type information on POSCAR Cu
 POSCAR found :  1 types and       4 ions
 scaLAPACK will be used
 LDA part: xc-table for Pade appr. of Perdew
 POSCAR found type information on POSCAR Cu
 POSCAR found :  1 types and       4 ions
 POSCAR, INCAR and KPOINTS ok, starting setup
 FFT: planning ...
 WAVECAR not read
 entering main loop
       N       E                     dE             d eps       ncg     rms          rms(c)
DAV:   1     0.908809152109E+03    0.90881E+03   -0.46641E+04 27720   0.273E+03
DAV:   2     0.387201756217E+02   -0.87009E+03   -0.85019E+03 24656   0.760E+02
DAV:   3    -0.184043758071E+02   -0.57125E+02   -0.55148E+02 26480   0.216E+02
DAV:   4    -0.197689152456E+02   -0.13645E+01   -0.13547E+01 26304   0.331E+01
DAV:   5    -0.198141853195E+02   -0.45270E-01   -0.45271E-01 29472   0.558E+00    0.161E+01
RMM:   6    -0.178302270506E+02    0.19840E+01   -0.36343E+01 24576   0.608E+01    0.104E+01
RMM:   7    -0.163831717642E+02    0.14471E+01   -0.66239E+00 24115   0.282E+01    0.120E+00
RMM:   8    -0.163471659166E+02    0.36006E-01   -0.67910E-02 25339   0.308E+00    0.336E-01
RMM:   9    -0.163463815994E+02    0.78432E-03   -0.14268E-02 25908   0.982E-01    0.938E-02
RMM:  10    -0.163466453983E+02   -0.26380E-03   -0.30304E-03 26245   0.653E-01    0.659E-02
RMM:  11    -0.163466670258E+02   -0.21627E-04   -0.10297E-03 27879   0.261E-01    0.207E-02
RMM:  12    -0.163466871363E+02   -0.20110E-04   -0.25620E-04 30561   0.149E-01    0.786E-03
RMM:  13    -0.163466953221E+02   -0.81858E-05   -0.69031E-05 32931   0.537E-02    0.272E-03
RMM:  14    -0.163466969677E+02   -0.16456E-05   -0.10160E-05 34006   0.231E-02    0.895E-04
RMM:  15    -0.163466971257E+02   -0.15802E-06   -0.14443E-06 34851   0.800E-03    0.134E-04
RMM:  16    -0.163466971798E+02   -0.54068E-07   -0.16183E-07 26470   0.307E-03    0.430E-04
RMM:  17    -0.163466971313E+02    0.48494E-07   -0.25920E-08 15062   0.159E-03    0.309E-05
RMM:  18    -0.163466971350E+02   -0.36671E-08   -0.70779E-09 13331   0.748E-04
   1 F= -.16346697E+02 E0= -.16347725E+02  d E =0.308428E-02
