       N       E                     dE             d eps       ncg     rms          rms(c)
DAV:   1    -0.363304435451E+01   -0.36330E+01   -0.83092E+02 45024   0.335E+01
DAV:   2    -0.368296016348E+01   -0.49916E-01   -0.49992E-01 40608   0.108E+00
DAV:   3    -0.368296242867E+01   -0.22652E-05   -0.22897E-05 47520   0.664E-03
DAV:   4    -0.368296242962E+01   -0.94703E-09   -0.11109E-10 45744   0.972E-06
DAV:   5    -0.368296242836E+01    0.12588E-08    0.40406E-13 46176   0.432E-09    0.175E+00
RMM:   6    -0.375580077401E+01   -0.72838E-01   -0.23760E-03 31686   0.762E-02    0.824E-01
RMM:   7    -0.374739899607E+01    0.84018E-02   -0.86733E-04 32934   0.438E-02    0.663E-01
RMM:   8    -0.374706181420E+01    0.33718E-03   -0.18595E-04 32876   0.230E-02    0.211E-01
RMM:   9    -0.374705014359E+01    0.11671E-04   -0.25076E-05 34402   0.771E-03
   1 F= -.37470501E+01 E0= -.37470501E+01  d E =0.000000E+00  mag=     0.0012
