 vasp.6.2.1 16May21 (build Aug 15 2022 14:47:30) complex                         
 executed on             LinuxGNU date 2025.12.11  13:49:45
 running on   48 total cores
 distrk:  each k-point on   48 cores,    1 groups
 distr:  one band on NCORE=   1 cores,   48 groups


--------------------------------------------------------------------------------------------------------


 INCAR:
   ALGO = Fast
   EDIFF = 5e-05
   ENCUT = 520.0
   ISMEAR = -5
   ISPIN = 2
   LASPH = True
   LCHARG = True
   LORBIT = 11
   LREAL = False
   LWAVE = False
   MAGMOM = 1*0.6
   NELM = 100
   NSW = 0
   PREC = Accurate
   SIGMA = 0.05

 POTCAR:    PAW_PBE Al 04Jan2001                  
 -----------------------------------------------------------------------------
|                                                                             |
|           W    W    AA    RRRRR   N    N  II  N    N   GGGG   !!!           |
|           W    W   A  A   R    R  NN   N  II  NN   N  G    G  !!!           |
|           W    W  A    A  R    R  N N  N  II  N N  N  G       !!!           |
|           W WW W  AAAAAA  RRRRR   N  N N  II  N  N N  G  GGG   !            |
|           WW  WW  A    A  R   R   N   NN  II  N   NN  G    G                |
|           W    W  A    A  R    R  N    N  II  N    N   GGGG   !!!           |
|                                                                             |
|     For optimal performance we recommend to set                             |
|       NCORE = 2 up to number-of-cores-per-socket                            |
|     NCORE specifies how many cores store one orbital (NPAR=cpu/NCORE).      |
|     This setting can greatly improve the performance of VASP for DFT.       |
|     The default, NCORE=1 might be grossly inefficient on modern             |
|     multi-core architectures or massively parallel machines. Do your        |
|     own testing! More info at https://www.vasp.at/wiki/index.php/NCORE      |
|     Unfortunately you need to use the default for GW and RPA                |
|     calculations (for HF NCORE is supported but not extensively tested      |
|     yet).                                                                   |
|                                                                             |
 -----------------------------------------------------------------------------

 POTCAR:    PAW_PBE Al 04Jan2001                  
   VRHFIN =Al: s2p1                                                                                 
   LEXCH  = PE                                                                                      
   EATOM  =    53.5387 eV,    3.9350 Ry                                                             
                                                                                                    
   TITEL  = PAW_PBE Al 04Jan2001                                                                    
   LULTRA =        F    use ultrasoft PP ?                                                          
   IUNSCR =        1    unscreen: 0-lin 1-nonlin 2-no                                               
   RPACOR =    1.500    partial core radius                                                         
   POMASS =   26.981; ZVAL   =    3.000    mass and valenz                                          
   RCORE  =    1.900    outmost cutoff radius                                                       
   RWIGS  =    2.650; RWIGS  =    1.402    wigner-seitz radius (au A)                               
   ENMAX  =  240.300; ENMIN  =  180.225 eV                                                          
   ICORE  =        2    local potential                                                             
   LCOR   =        T    correct aug charges                                                         
   LPAW   =        T    paw PP                                                                      
   EAUG   =  291.052                                                                                
   DEXC   =    0.000                                                                                
   RMAX   =    1.939    core radius for proj-oper                                                   
   RAUG   =    1.300    factor for augmentation sphere                                              
   RDEP   =    1.966    radius for radial grids                                                     
   RDEPT  =    1.856    core radius for aug-charge                                                  
                                                                                                    
   Atomic configuration                                                                             
    6 entries                                                                                       
     n  l   j            E        occ.                                                              
     1  0  0.50     -1511.1048   2.0000                                                             
     2  0  0.50      -108.1629   2.0000                                                             
     2  1  1.50       -69.6402   6.0000                                                             
     3  0  0.50        -7.7528   2.0000                                                             
     3  1  1.50        -2.7121   1.0000                                                             
     3  2  2.50        -2.7212   0.0000                                                             
   Description                                                                                      
     l       E           TYP  RCUT    TYP  RCUT                                                     
     0     -7.7528455     23  1.900                                                                 
     0     -3.3096929     23  1.900                                                                 
     1     -2.7120682     23  1.900                                                                 
     1     13.6058260     23  1.900                                                                 
     2     -2.7211652      7  1.900                                                                 
  local pseudopotential read in
  partial core-charges read in
  partial kinetic energy density read in
  atomic valenz-charges read in
  non local Contribution for L=           0  read in
    real space projection operators read in
  non local Contribution for L=           0  read in
    real space projection operators read in
  non local Contribution for L=           1  read in
    real space projection operators read in
  non local Contribution for L=           1  read in
    real space projection operators read in
    PAW grid and wavefunctions read in

   number of l-projection  operators is LMAX  =           4
   number of lm-projection operators is LMMAX =           8

  PAW_PBE Al 04Jan2001                  :
 energy of atom  1       EATOM=  -53.5387
 kinetic energy error for atom=    0.0002 (will be added to EATOM!!)


 POSCAR: # Generated by Masgent for k-point conve
  positions in direct lattice
  No initial velocities read in
 exchange correlation table for  LEXCH =        8
   RHO(1)=    0.500       N(1)  =     2000
   RHO(2)=  100.500       N(2)  =     4000

 VTST: version 4.2, (08/11/21)

 CHAIN: initializing optimizer
 
 OPT: Using VASP Dynamics algorithm
 CHAIN: Read ICHAIN            0

 POSCAR: # Generated by Masgent for k-point conve
  positions in direct lattice
  No initial velocities read in



--------------------------------------------------------------------------------------------------------


 ion  position               nearest neighbor table
   1  0.000  0.000  0.000-

  LATTYP: Found a face centered cubic cell.
 ALAT       =     4.0480000000
  
  Lattice vectors:
  
 A1 = (   0.0000000000,   2.0240000000,   2.0240000000)
 A2 = (   2.0240000000,   0.0000000000,   2.0240000000)
 A3 = (   2.0240000000,   2.0240000000,   0.0000000000)


Analysis of symmetry for initial positions (statically):
=====================================================================
 Subroutine PRICEL returns:
 Original cell was already a primitive cell.
 

 Routine SETGRP: Setting up the symmetry group for a 
 face centered cubic supercell.


 Subroutine GETGRP returns: Found 48 space group operations
 (whereof 48 operations were pure point group operations)
 out of a pool of 48 trial point group operations.


The static configuration has the point symmetry O_h .


Analysis of symmetry for dynamics (positions and initial velocities):
=====================================================================
 Subroutine PRICEL returns:
 Original cell was already a primitive cell.
 

 Routine SETGRP: Setting up the symmetry group for a 
 face centered cubic supercell.


 Subroutine GETGRP returns: Found 48 space group operations
 (whereof 48 operations were pure point group operations)
 out of a pool of 48 trial point group operations.


The dynamic configuration has the point symmetry O_h .


Analysis of structural, dynamic, and magnetic symmetry:
=====================================================================
 Subroutine PRICEL returns:
 Original cell was already a primitive cell.
 

 Routine SETGRP: Setting up the symmetry group for a 
 face centered cubic supercell.


 Subroutine GETGRP returns: Found 48 space group operations
 (whereof 48 operations were pure point group operations)
 out of a pool of 48 trial point group operations.


The overall configuration has the point symmetry O_h .


 Subroutine INISYM returns: Found 48 space group operations
 (whereof 48 operations are pure point group operations),
 and found     1 'primitive' translations


----------------------------------------------------------------------------------------

                                     Primitive cell                                     

  volume of cell :      16.5829

  direct lattice vectors                    reciprocal lattice vectors
     0.000000000  2.024000000  2.024000000    -0.247035573  0.247035573  0.247035573
     2.024000000  0.000000000  2.024000000     0.247035573 -0.247035573  0.247035573
     2.024000000  2.024000000  0.000000000     0.247035573  0.247035573 -0.247035573

  length of vectors
     2.862368250  2.862368250  2.862368250     0.427878164  0.427878164  0.427878164

  position of ions in fractional coordinates (direct lattice)
     0.000000000  0.000000000  0.000000000

  ion indices of the primitive-cell ions
   primitive index   ion index
                 1           1

----------------------------------------------------------------------------------------



 KPOINTS: # Generated by Masgent for k-point conve

Automatic generation of k-mesh.
 Grid dimensions read from file:
 generate k-points for:   17   17   17

 Generating k-lattice:

  Cartesian coordinates                     Fractional coordinates (reciprocal lattice)
    -0.014531504  0.014531504  0.014531504     0.058823529  0.000000000  0.000000000
     0.014531504 -0.014531504  0.014531504     0.000000000  0.058823529  0.000000000
     0.014531504  0.014531504 -0.014531504     0.000000000  0.000000000  0.058823529

  Length of vectors
     0.025169304  0.025169304  0.025169304

  Shift w.r.t. Gamma in fractional coordinates (k-lattice)
     0.000000000  0.000000000  0.000000000

 TETIRR: Found    693 inequivalent tetrahedra from    29478
 
 Subroutine IBZKPT returns following result:
 ===========================================
 
 Found    165 irreducible k-points:
 
 Following reciprocal coordinates:
            Coordinates               Weight
  0.000000  0.000000  0.000000      1.000000
  0.058824  0.000000  0.000000      8.000000
  0.117647  0.000000  0.000000      8.000000
  0.176471  0.000000  0.000000      8.000000
  0.235294  0.000000  0.000000      8.000000
  0.294118  0.000000  0.000000      8.000000
  0.352941  0.000000  0.000000      8.000000
  0.411765  0.000000  0.000000      8.000000
  0.470588  0.000000  0.000000      8.000000
  0.058824  0.058824  0.000000      6.000000
  0.117647  0.058824  0.000000     24.000000
  0.176471  0.058824  0.000000     24.000000
  0.235294  0.058824  0.000000     24.000000
  0.294118  0.058824  0.000000     24.000000
  0.352941  0.058824  0.000000     24.000000
  0.411765  0.058824  0.000000     24.000000
  0.470588  0.058824  0.000000     24.000000
 -0.470588  0.058824  0.000000     24.000000
 -0.411765  0.058824  0.000000     24.000000
 -0.352941  0.058824  0.000000     24.000000
 -0.294118  0.058824  0.000000     24.000000
 -0.235294  0.058824  0.000000     24.000000
 -0.176471  0.058824  0.000000     24.000000
 -0.117647  0.058824  0.000000     24.000000
 -0.058824  0.058824  0.000000     12.000000
  0.117647  0.117647  0.000000      6.000000
  0.176471  0.117647  0.000000     24.000000
  0.235294  0.117647  0.000000     24.000000
  0.294118  0.117647  0.000000     24.000000
  0.352941  0.117647  0.000000     24.000000
  0.411765  0.117647  0.000000     24.000000
  0.470588  0.117647  0.000000     24.000000
 -0.470588  0.117647  0.000000     24.000000
 -0.411765  0.117647  0.000000     24.000000
 -0.352941  0.117647  0.000000     24.000000
 -0.294118  0.117647  0.000000     24.000000
 -0.235294  0.117647  0.000000     24.000000
 -0.176471  0.117647  0.000000     24.000000
 -0.117647  0.117647  0.000000     12.000000
  0.176471  0.176471  0.000000      6.000000
  0.235294  0.176471  0.000000     24.000000
  0.294118  0.176471  0.000000     24.000000
  0.352941  0.176471  0.000000     24.000000
  0.411765  0.176471  0.000000     24.000000
  0.470588  0.176471  0.000000     24.000000
 -0.470588  0.176471  0.000000     24.000000
 -0.411765  0.176471  0.000000     24.000000
 -0.352941  0.176471  0.000000     24.000000
 -0.294118  0.176471  0.000000     24.000000
 -0.235294  0.176471  0.000000     24.000000
 -0.176471  0.176471  0.000000     12.000000
  0.235294  0.235294  0.000000      6.000000
  0.294118  0.235294  0.000000     24.000000
  0.352941  0.235294  0.000000     24.000000
  0.411765  0.235294  0.000000     24.000000
  0.470588  0.235294  0.000000     24.000000
 -0.470588  0.235294  0.000000     24.000000
 -0.411765  0.235294  0.000000     24.000000
 -0.352941  0.235294  0.000000     24.000000
 -0.294118  0.235294  0.000000     24.000000
 -0.235294  0.235294  0.000000     12.000000
  0.294118  0.294118  0.000000      6.000000
  0.352941  0.294118  0.000000     24.000000
  0.411765  0.294118  0.000000     24.000000
  0.470588  0.294118  0.000000     24.000000
 -0.470588  0.294118  0.000000     24.000000
 -0.411765  0.294118  0.000000     24.000000
 -0.352941  0.294118  0.000000     24.000000
 -0.294118  0.294118  0.000000     12.000000
  0.352941  0.352941  0.000000      6.000000
  0.411765  0.352941  0.000000     24.000000
  0.470588  0.352941  0.000000     24.000000
 -0.470588  0.352941  0.000000     24.000000
 -0.411765  0.352941  0.000000     24.000000
 -0.352941  0.352941  0.000000     12.000000
  0.411765  0.411765  0.000000      6.000000
  0.470588  0.411765  0.000000     24.000000
 -0.470588  0.411765  0.000000     24.000000
 -0.411765  0.411765  0.000000     12.000000
  0.470588  0.470588  0.000000      6.000000
 -0.470588  0.470588  0.000000     12.000000
  0.176471  0.117647  0.058824     24.000000
  0.235294  0.117647  0.058824     48.000000
  0.294118  0.117647  0.058824     48.000000
  0.352941  0.117647  0.058824     48.000000
  0.411765  0.117647  0.058824     48.000000
  0.470588  0.117647  0.058824     48.000000
 -0.470588  0.117647  0.058824     48.000000
  0.235294  0.176471  0.058824     24.000000
  0.294118  0.176471  0.058824     48.000000
  0.352941  0.176471  0.058824     48.000000
  0.411765  0.176471  0.058824     48.000000
  0.470588  0.176471  0.058824     48.000000
 -0.470588  0.176471  0.058824     48.000000
 -0.411765  0.176471  0.058824     48.000000
 -0.352941  0.176471  0.058824     48.000000
 -0.294118  0.176471  0.058824     48.000000
 -0.235294  0.176471  0.058824     48.000000
 -0.176471  0.176471  0.058824     48.000000
 -0.117647  0.176471  0.058824     24.000000
  0.294118  0.235294  0.058824     24.000000
  0.352941  0.235294  0.058824     48.000000
  0.411765  0.235294  0.058824     48.000000
  0.470588  0.235294  0.058824     48.000000
 -0.470588  0.235294  0.058824     48.000000
 -0.411765  0.235294  0.058824     48.000000
 -0.352941  0.235294  0.058824     48.000000
 -0.294118  0.235294  0.058824     48.000000
 -0.235294  0.235294  0.058824     48.000000
 -0.176471  0.235294  0.058824     24.000000
  0.352941  0.294118  0.058824     24.000000
  0.411765  0.294118  0.058824     48.000000
  0.470588  0.294118  0.058824     48.000000
 -0.470588  0.294118  0.058824     48.000000
 -0.411765  0.294118  0.058824     48.000000
 -0.352941  0.294118  0.058824     48.000000
 -0.294118  0.294118  0.058824     48.000000
 -0.235294  0.294118  0.058824     24.000000
  0.411765  0.352941  0.058824     24.000000
  0.470588  0.352941  0.058824     48.000000
 -0.470588  0.352941  0.058824     48.000000
 -0.411765  0.352941  0.058824     48.000000
 -0.352941  0.352941  0.058824     48.000000
 -0.294118  0.352941  0.058824     24.000000
  0.470588  0.411765  0.058824     24.000000
 -0.470588  0.411765  0.058824     48.000000
 -0.411765  0.411765  0.058824     48.000000
 -0.352941  0.411765  0.058824     24.000000
 -0.470588  0.470588  0.058824     24.000000
 -0.411765  0.470588  0.058824     24.000000
  0.352941  0.235294  0.117647     24.000000
  0.411765  0.235294  0.117647     48.000000
  0.470588  0.235294  0.117647     48.000000
 -0.470588  0.235294  0.117647     48.000000
 -0.411765  0.235294  0.117647     48.000000
  0.411765  0.294118  0.117647     24.000000
  0.470588  0.294118  0.117647     48.000000
 -0.470588  0.294118  0.117647     48.000000
 -0.411765  0.294118  0.117647     48.000000
 -0.352941  0.294118  0.117647     48.000000
 -0.294118  0.294118  0.117647     48.000000
 -0.235294  0.294118  0.117647     48.000000
 -0.176471  0.294118  0.117647     24.000000
  0.470588  0.352941  0.117647     24.000000
 -0.470588  0.352941  0.117647     48.000000
 -0.411765  0.352941  0.117647     48.000000
 -0.352941  0.352941  0.117647     48.000000
 -0.294118  0.352941  0.117647     48.000000
 -0.235294  0.352941  0.117647     24.000000
 -0.470588  0.411765  0.117647     24.000000
 -0.411765  0.411765  0.117647     48.000000
 -0.352941  0.411765  0.117647     48.000000
 -0.294118  0.411765  0.117647     24.000000
 -0.411765  0.470588  0.117647     24.000000
 -0.352941  0.470588  0.117647     24.000000
 -0.470588  0.352941  0.176471     24.000000
 -0.411765  0.352941  0.176471     48.000000
 -0.352941  0.352941  0.176471     48.000000
 -0.411765  0.411765  0.176471     24.000000
 -0.352941  0.411765  0.176471     48.000000
 -0.294118  0.411765  0.176471     48.000000
 -0.235294  0.411765  0.176471     24.000000
 -0.352941  0.470588  0.176471     24.000000
 -0.294118  0.470588  0.176471     24.000000
 -0.294118  0.470588  0.235294     24.000000
 
 Following cartesian coordinates:
            Coordinates               Weight
  0.000000  0.000000  0.000000      1.000000
 -0.014532  0.014532  0.014532      8.000000
 -0.029063  0.029063  0.029063      8.000000
 -0.043595  0.043595  0.043595      8.000000
 -0.058126  0.058126  0.058126      8.000000
 -0.072658  0.072658  0.072658      8.000000
 -0.087189  0.087189  0.087189      8.000000
 -0.101721  0.101721  0.101721      8.000000
 -0.116252  0.116252  0.116252      8.000000
  0.000000  0.000000  0.029063      6.000000
 -0.014532  0.014532  0.043595     24.000000
 -0.029063  0.029063  0.058126     24.000000
 -0.043595  0.043595  0.072658     24.000000
 -0.058126  0.058126  0.087189     24.000000
 -0.072658  0.072658  0.101721     24.000000
 -0.087189  0.087189  0.116252     24.000000
 -0.101721  0.101721  0.130784     24.000000
  0.130784 -0.130784 -0.101721     24.000000
  0.116252 -0.116252 -0.087189     24.000000
  0.101721 -0.101721 -0.072658     24.000000
  0.087189 -0.087189 -0.058126     24.000000
  0.072658 -0.072658 -0.043595     24.000000
  0.058126 -0.058126 -0.029063     24.000000
  0.043595 -0.043595 -0.014532     24.000000
  0.029063 -0.029063  0.000000     12.000000
  0.000000  0.000000  0.058126      6.000000
 -0.014532  0.014532  0.072658     24.000000
 -0.029063  0.029063  0.087189     24.000000
 -0.043595  0.043595  0.101721     24.000000
 -0.058126  0.058126  0.116252     24.000000
 -0.072658  0.072658  0.130784     24.000000
 -0.087189  0.087189  0.145315     24.000000
  0.145315 -0.145315 -0.087189     24.000000
  0.130784 -0.130784 -0.072658     24.000000
  0.116252 -0.116252 -0.058126     24.000000
  0.101721 -0.101721 -0.043595     24.000000
  0.087189 -0.087189 -0.029063     24.000000
  0.072658 -0.072658 -0.014532     24.000000
  0.058126 -0.058126  0.000000     12.000000
  0.000000  0.000000  0.087189      6.000000
 -0.014532  0.014532  0.101721     24.000000
 -0.029063  0.029063  0.116252     24.000000
 -0.043595  0.043595  0.130784     24.000000
 -0.058126  0.058126  0.145315     24.000000
 -0.072658  0.072658  0.159847     24.000000
  0.159847 -0.159847 -0.072658     24.000000
  0.145315 -0.145315 -0.058126     24.000000
  0.130784 -0.130784 -0.043595     24.000000
  0.116252 -0.116252 -0.029063     24.000000
  0.101721 -0.101721 -0.014532     24.000000
  0.087189 -0.087189  0.000000     12.000000
  0.000000  0.000000  0.116252      6.000000
 -0.014532  0.014532  0.130784     24.000000
 -0.029063  0.029063  0.145315     24.000000
 -0.043595  0.043595  0.159847     24.000000
 -0.058126  0.058126  0.174378     24.000000
  0.174378 -0.174378 -0.058126     24.000000
  0.159847 -0.159847 -0.043595     24.000000
  0.145315 -0.145315 -0.029063     24.000000
  0.130784 -0.130784 -0.014532     24.000000
  0.116252 -0.116252  0.000000     12.000000
  0.000000  0.000000  0.145315      6.000000
 -0.014532  0.014532  0.159847     24.000000
 -0.029063  0.029063  0.174378     24.000000
 -0.043595  0.043595  0.188910     24.000000
  0.188910 -0.188910 -0.043595     24.000000
  0.174378 -0.174378 -0.029063     24.000000
  0.159847 -0.159847 -0.014532     24.000000
  0.145315 -0.145315  0.000000     12.000000
  0.000000  0.000000  0.174378      6.000000
 -0.014532  0.014532  0.188910     24.000000
 -0.029063  0.029063  0.203441     24.000000
  0.203441 -0.203441 -0.029063     24.000000
  0.188910 -0.188910 -0.014532     24.000000
  0.174378 -0.174378  0.000000     12.000000
  0.000000  0.000000  0.203441      6.000000
 -0.014532  0.014532  0.217973     24.000000
  0.217973 -0.217973 -0.014532     24.000000
  0.203441 -0.203441  0.000000     12.000000
  0.000000  0.000000  0.232504      6.000000
  0.232504 -0.232504  0.000000     12.000000
  0.000000  0.029063  0.058126     24.000000
 -0.014532  0.043595  0.072658     48.000000
 -0.029063  0.058126  0.087189     48.000000
 -0.043595  0.072658  0.101721     48.000000
 -0.058126  0.087189  0.116252     48.000000
 -0.072658  0.101721  0.130784     48.000000
  0.159847 -0.130784 -0.101721     48.000000
  0.000000  0.029063  0.087189     24.000000
 -0.014532  0.043595  0.101721     48.000000
 -0.029063  0.058126  0.116252     48.000000
 -0.043595  0.072658  0.130784     48.000000
 -0.058126  0.087189  0.145315     48.000000
  0.174378 -0.145315 -0.087189     48.000000
  0.159847 -0.130784 -0.072658     48.000000
  0.145315 -0.116252 -0.058126     48.000000
  0.130784 -0.101721 -0.043595     48.000000
  0.116252 -0.087189 -0.029063     48.000000
  0.101721 -0.072658 -0.014532     48.000000
  0.087189 -0.058126  0.000000     24.000000
  0.000000  0.029063  0.116252     24.000000
 -0.014532  0.043595  0.130784     48.000000
 -0.029063  0.058126  0.145315     48.000000
 -0.043595  0.072658  0.159847     48.000000
  0.188910 -0.159847 -0.072658     48.000000
  0.174378 -0.145315 -0.058126     48.000000
  0.159847 -0.130784 -0.043595     48.000000
  0.145315 -0.116252 -0.029063     48.000000
  0.130784 -0.101721 -0.014532     48.000000
  0.116252 -0.087189 -0.000000     24.000000
  0.000000  0.029063  0.145315     24.000000
 -0.014532  0.043595  0.159847     48.000000
 -0.029063  0.058126  0.174378     48.000000
  0.203441 -0.174378 -0.058126     48.000000
  0.188910 -0.159847 -0.043595     48.000000
  0.174378 -0.145315 -0.029063     48.000000
  0.159847 -0.130784 -0.014532     48.000000
  0.145315 -0.116252  0.000000     24.000000
  0.000000  0.029063  0.174378     24.000000
 -0.014532  0.043595  0.188910     48.000000
  0.217973 -0.188910 -0.043595     48.000000
  0.203441 -0.174378 -0.029063     48.000000
  0.188910 -0.159847 -0.014532     48.000000
  0.174378 -0.145315 -0.000000     24.000000
  0.000000  0.029063  0.203441     24.000000
  0.232504 -0.203441 -0.029063     48.000000
  0.217973 -0.188910 -0.014532     48.000000
  0.203441 -0.174378  0.000000     24.000000
  0.247036 -0.217973 -0.014532     24.000000
  0.232504 -0.203441 -0.000000     24.000000
  0.000000  0.058126  0.116252     24.000000
 -0.014532  0.072658  0.130784     48.000000
 -0.029063  0.087189  0.145315     48.000000
  0.203441 -0.145315 -0.087189     48.000000
  0.188910 -0.130784 -0.072658     48.000000
  0.000000  0.058126  0.145315     24.000000
 -0.014532  0.072658  0.159847     48.000000
  0.217973 -0.159847 -0.072658     48.000000
  0.203441 -0.145315 -0.058126     48.000000
  0.188910 -0.130784 -0.043595     48.000000
  0.174378 -0.116252 -0.029063     48.000000
  0.159847 -0.101721 -0.014532     48.000000
  0.145315 -0.087189  0.000000     24.000000
  0.000000  0.058126  0.174378     24.000000
  0.232504 -0.174378 -0.058126     48.000000
  0.217973 -0.159847 -0.043595     48.000000
  0.203441 -0.145315 -0.029063     48.000000
  0.188910 -0.130784 -0.014532     48.000000
  0.174378 -0.116252  0.000000     24.000000
  0.247036 -0.188910 -0.043595     24.000000
  0.232504 -0.174378 -0.029063     48.000000
  0.217973 -0.159847 -0.014532     48.000000
  0.203441 -0.145315  0.000000     24.000000
  0.247036 -0.188910 -0.014532     24.000000
  0.232504 -0.174378  0.000000     24.000000
  0.247036 -0.159847 -0.072658     24.000000
  0.232504 -0.145315 -0.058126     48.000000
  0.217973 -0.130784 -0.043595     48.000000
  0.247036 -0.159847 -0.043595     24.000000
  0.232504 -0.145315 -0.029063     48.000000
  0.217973 -0.130784 -0.014532     48.000000
  0.203441 -0.116252  0.000000     24.000000
  0.247036 -0.159847 -0.014532     24.000000
  0.232504 -0.145315 -0.000000     24.000000
  0.247036 -0.130784 -0.014532     24.000000
 


--------------------------------------------------------------------------------------------------------




 Dimension of arrays:
   k-points           NKPTS =    165   k-points in BZ     NKDIM =    165   number of bands    NBANDS=     48
   number of dos      NEDOS =    301   number of ions     NIONS =      1
   non local maximal  LDIM  =      4   non local SUM 2l+1 LMDIM =      8
   total plane-waves  NPLWV =  13824
   max r-space proj   IRMAX =      1   max aug-charges    IRDMAX=  32640
   dimension x,y,z NGX =    24 NGY =   24 NGZ =   24
   dimension x,y,z NGXF=    48 NGYF=   48 NGZF=   48
   support grid    NGXF=    48 NGYF=   48 NGZF=   48
   ions per type =               1
   NGX,Y,Z   is equivalent  to a cutoff of  13.94, 13.94, 13.94 a.u.
   NGXF,Y,Z  is equivalent  to a cutoff of  27.88, 27.88, 27.88 a.u.

 SYSTEM =  unknown system                          
 POSCAR =  # Generated by Masgent for k-point conve

 Startparameter for this run:
   NWRITE =      2    write-flag & timer
   PREC   = accura    normal or accurate (medium, high low for compatibility)
   ISTART =      0    job   : 0-new  1-cont  2-samecut
   ICHARG =      2    charge: 1-file 2-atom 10-const
   ISPIN  =      2    spin polarized calculation?
   LNONCOLLINEAR =      F non collinear calculations
   LSORBIT =      F    spin-orbit coupling
   INIWAV =      1    electr: 0-lowe 1-rand  2-diag
   LASPH  =      T    aspherical Exc in radial PAW
 Electronic Relaxation 1
   ENCUT  =  520.0 eV  38.22 Ry    6.18 a.u.   5.32  5.32  5.32*2*pi/ulx,y,z
   ENINI  =  520.0     initial cutoff
   ENAUG  =  291.1 eV  augmentation charge cutoff
   NELM   =    100;   NELMIN=  2; NELMDL= -5     # of ELM steps 
   EDIFF  = 0.5E-04   stopping-criterion for ELM
   LREAL  =      F    real-space projection
   NLSPLINE    = F    spline interpolate recip. space projectors
   LCOMPAT=      F    compatible to vasp.4.4
   GGA_COMPAT  = T    GGA compatible to vasp.4.4-vasp.4.6
   LMAXPAW     = -100 max onsite density
   LMAXMIX     =    2 max onsite mixed and CHGCAR
   VOSKOWN=      0    Vosko Wilk Nusair interpolation
   ROPT   =    0.00000
 Ionic relaxation
   EDIFFG = 0.5E-03   stopping-criterion for IOM
   NSW    =      0    number of steps for IOM
   NBLOCK =      1;   KBLOCK =      1    inner block; outer block 
   IBRION =     -1    ionic relax: 0-MD 1-quasi-New 2-CG
   NFREE  =      0    steps in history (QN), initial steepest desc. (CG)
   ISIF   =      2    stress and relaxation
   IWAVPR =     10    prediction:  0-non 1-charg 2-wave 3-comb
   ISYM   =      2    0-nonsym 1-usesym 2-fastsym
   LCORR  =      T    Harris-Foulkes like correction to forces

   POTIM  = 0.5000    time-step for ionic-motion
   TEIN   =    0.0    initial temperature
   TEBEG  =    0.0;   TEEND  =   0.0 temperature during run
   SMASS  =  -3.00    Nose mass-parameter (am)
   estimated Nose-frequenzy (Omega)   =  0.10E-29 period in steps = 0.13E+47 mass=  -0.187E-27a.u.
   SCALEE = 1.0000    scale energy and forces
   NPACO  =    256;   APACO  = 16.0  distance and # of slots for P.C.
   PSTRESS=    0.0 pullay stress

  Mass of Ions in am
   POMASS =  26.98
  Ionic Valenz
   ZVAL   =   3.00
  Atomic Wigner-Seitz radii
   RWIGS  =  -1.00
  virtual crystal weights 
   VCA    =   1.00
   NELECT =       3.0000    total number of electrons
   NUPDOWN=      -1.0000    fix difference up-down

 DOS related values:
   EMIN   =  10.00;   EMAX   =-10.00  energy-range for DOS
   EFERMI =   0.00
   ISMEAR =    -5;   SIGMA  =   0.05  broadening in eV -4-tet -1-fermi 0-gaus

 Electronic relaxation 2 (details)
   IALGO  =     68    algorithm
   LDIAG  =      T    sub-space diagonalisation (order eigenvalues)
   LSUBROT=      F    optimize rotation matrix (better conditioning)
   TURBO    =      0    0=normal 1=particle mesh
   IRESTART =      0    0=no restart 2=restart with 2 vectors
   NREBOOT  =      0    no. of reboots
   NMIN     =      0    reboot dimension
   EREF     =   0.00    reference energy to select bands
   IMIX   =      4    mixing-type and parameters
     AMIX     =   0.40;   BMIX     =  1.00
     AMIX_MAG =   1.60;   BMIX_MAG =  1.00
     AMIN     =   0.10
     WC   =   100.;   INIMIX=   1;  MIXPRE=   1;  MAXMIX= -45

 Intra band minimization:
   WEIMIN = 0.0000     energy-eigenvalue tresh-hold
   EBREAK =  0.26E-06  absolut break condition
   DEPER  =   0.30     relativ break condition  

   TIME   =   0.40     timestep for ELM

  volume/ion in A,a.u.               =      16.58       111.91
  Fermi-wavevector in a.u.,A,eV,Ry     =   0.925894  1.749687 11.664006  0.857280
  Thomas-Fermi vector in A             =   2.051798

 Write flags
   LWAVE        =      F    write WAVECAR
   LDOWNSAMPLE  =      F    k-point downsampling of WAVECAR
   LCHARG       =      T    write CHGCAR
   LVTOT        =      F    write LOCPOT, total local potential
   LVHAR        =      F    write LOCPOT, Hartree potential only
   LELF         =      F    write electronic localiz. function (ELF)
   LORBIT       =     11    0 simple, 1 ext, 2 COOP (PROOUT), +10 PAW based schemes


 Dipole corrections
   LMONO  =      F    monopole corrections only (constant potential shift)
   LDIPOL =      F    correct potential (dipole corrections)
   IDIPOL =      0    1-x, 2-y, 3-z, 4-all directions 
   EPSILON=  1.0000000 bulk dielectric constant

 Exchange correlation treatment:
   GGA     =    --    GGA type
   LEXCH   =     8    internal setting for exchange type
   VOSKOWN=      0    Vosko Wilk Nusair interpolation
   LHFCALC =     F    Hartree Fock is set to
   LHFONE  =     F    Hartree Fock one center treatment
   AEXX    =    0.0000 exact exchange contribution

 Linear response parameters
   LEPSILON=     F    determine dielectric tensor
   LRPA    =     F    only Hartree local field effects (RPA)
   LNABLA  =     F    use nabla operator in PAW spheres
   LVEL    =     F    velocity operator in full k-point grid
   LINTERFAST=   F  fast interpolation
   KINTER  =     0    interpolate to denser k-point grid
   CSHIFT  =0.1000    complex shift for real part using Kramers Kronig
   OMEGAMAX=  -1.0    maximum frequency
   DEG_THRESHOLD= 0.2000000E-02 threshold for treating states as degnerate
   RTIME   =   -0.100 relaxation time in fs
  (WPLASMAI=    0.000 imaginary part of plasma frequency in eV, 0.658/RTIME)
   DFIELD  = 0.0000000 0.0000000 0.0000000 field for delta impulse in time

 Orbital magnetization related:
   ORBITALMAG=     F  switch on orbital magnetization
   LCHIMAG   =     F  perturbation theory with respect to B field
   DQ        =  0.001000  dq finite difference perturbation B field
   LLRAUG    =     F  two centre corrections for induced B field



--------------------------------------------------------------------------------------------------------


 Static calculation
 charge density and potential will be updated during run
 spin polarized calculation
 RMM-DIIS sequential band-by-band and
  variant of blocked Davidson during initial phase
 perform sub-space diagonalisation
    before iterative eigenvector-optimisation
 modified Broyden-mixing scheme, WC =      100.0
 initial mixing is a Kerker type mixing with AMIX =  0.4000 and BMIX =      1.0000
 Hartree-type preconditioning will be used
 using additional bands           46
 reciprocal scheme for non local part
 use partial core corrections
 calculate Harris-corrections to forces   (improved forces if not selfconsistent)
 use gradient corrections 
 use of overlap-Matrix (Vanderbilt PP)
 Fermi weights with tetrahedron method with Bloechl corrections


--------------------------------------------------------------------------------------------------------


  energy-cutoff  :      520.00
  volume of cell :       16.58
      direct lattice vectors                 reciprocal lattice vectors
     0.000000000  2.024000000  2.024000000    -0.247035573  0.247035573  0.247035573
     2.024000000  0.000000000  2.024000000     0.247035573 -0.247035573  0.247035573
     2.024000000  2.024000000  0.000000000     0.247035573  0.247035573 -0.247035573

  length of vectors
     2.862368250  2.862368250  2.862368250     0.427878164  0.427878164  0.427878164



 k-points in units of 2pi/SCALE and weight: # Generated by Masgent for k-point conve
   0.00000000  0.00000000  0.00000000       0.000
  -0.01453150  0.01453150  0.01453150       0.002
  -0.02906301  0.02906301  0.02906301       0.002
  -0.04359451  0.04359451  0.04359451       0.002
  -0.05812602  0.05812602  0.05812602       0.002
  -0.07265752  0.07265752  0.07265752       0.002
  -0.08718903  0.08718903  0.08718903       0.002
  -0.10172053  0.10172053  0.10172053       0.002
  -0.11625203  0.11625203  0.11625203       0.002
   0.00000000  0.00000000  0.02906301       0.001
  -0.01453150  0.01453150  0.04359451       0.005
  -0.02906301  0.02906301  0.05812602       0.005
  -0.04359451  0.04359451  0.07265752       0.005
  -0.05812602  0.05812602  0.08718903       0.005
  -0.07265752  0.07265752  0.10172053       0.005
  -0.08718903  0.08718903  0.11625203       0.005
  -0.10172053  0.10172053  0.13078354       0.005
   0.13078354 -0.13078354 -0.10172053       0.005
   0.11625203 -0.11625203 -0.08718903       0.005
   0.10172053 -0.10172053 -0.07265752       0.005
   0.08718903 -0.08718903 -0.05812602       0.005
   0.07265752 -0.07265752 -0.04359451       0.005
   0.05812602 -0.05812602 -0.02906301       0.005
   0.04359451 -0.04359451 -0.01453150       0.005
   0.02906301 -0.02906301  0.00000000       0.002
   0.00000000  0.00000000  0.05812602       0.001
  -0.01453150  0.01453150  0.07265752       0.005
  -0.02906301  0.02906301  0.08718903       0.005
  -0.04359451  0.04359451  0.10172053       0.005
  -0.05812602  0.05812602  0.11625203       0.005
  -0.07265752  0.07265752  0.13078354       0.005
  -0.08718903  0.08718903  0.14531504       0.005
   0.14531504 -0.14531504 -0.08718903       0.005
   0.13078354 -0.13078354 -0.07265752       0.005
   0.11625203 -0.11625203 -0.05812602       0.005
   0.10172053 -0.10172053 -0.04359451       0.005
   0.08718903 -0.08718903 -0.02906301       0.005
   0.07265752 -0.07265752 -0.01453150       0.005
   0.05812602 -0.05812602  0.00000000       0.002
   0.00000000  0.00000000  0.08718903       0.001
  -0.01453150  0.01453150  0.10172053       0.005
  -0.02906301  0.02906301  0.11625203       0.005
  -0.04359451  0.04359451  0.13078354       0.005
  -0.05812602  0.05812602  0.14531504       0.005
  -0.07265752  0.07265752  0.15984655       0.005
   0.15984655 -0.15984655 -0.07265752       0.005
   0.14531504 -0.14531504 -0.05812602       0.005
   0.13078354 -0.13078354 -0.04359451       0.005
   0.11625203 -0.11625203 -0.02906301       0.005
   0.10172053 -0.10172053 -0.01453150       0.005
   0.08718903 -0.08718903  0.00000000       0.002
   0.00000000  0.00000000  0.11625203       0.001
  -0.01453150  0.01453150  0.13078354       0.005
  -0.02906301  0.02906301  0.14531504       0.005
  -0.04359451  0.04359451  0.15984655       0.005
  -0.05812602  0.05812602  0.17437805       0.005
   0.17437805 -0.17437805 -0.05812602       0.005
   0.15984655 -0.15984655 -0.04359451       0.005
   0.14531504 -0.14531504 -0.02906301       0.005
   0.13078354 -0.13078354 -0.01453150       0.005
   0.11625203 -0.11625203  0.00000000       0.002
   0.00000000  0.00000000  0.14531504       0.001
  -0.01453150  0.01453150  0.15984655       0.005
  -0.02906301  0.02906301  0.17437805       0.005
  -0.04359451  0.04359451  0.18890956       0.005
   0.18890956 -0.18890956 -0.04359451       0.005
   0.17437805 -0.17437805 -0.02906301       0.005
   0.15984655 -0.15984655 -0.01453150       0.005
   0.14531504 -0.14531504  0.00000000       0.002
   0.00000000  0.00000000  0.17437805       0.001
  -0.01453150  0.01453150  0.18890956       0.005
  -0.02906301  0.02906301  0.20344106       0.005
   0.20344106 -0.20344106 -0.02906301       0.005
   0.18890956 -0.18890956 -0.01453150       0.005
   0.17437805 -0.17437805  0.00000000       0.002
   0.00000000  0.00000000  0.20344106       0.001
  -0.01453150  0.01453150  0.21797256       0.005
   0.21797256 -0.21797256 -0.01453150       0.005
   0.20344106 -0.20344106  0.00000000       0.002
   0.00000000  0.00000000  0.23250407       0.001
   0.23250407 -0.23250407  0.00000000       0.002
   0.00000000  0.02906301  0.05812602       0.005
  -0.01453150  0.04359451  0.07265752       0.010
  -0.02906301  0.05812602  0.08718903       0.010
  -0.04359451  0.07265752  0.10172053       0.010
  -0.05812602  0.08718903  0.11625203       0.010
  -0.07265752  0.10172053  0.13078354       0.010
   0.15984655 -0.13078354 -0.10172053       0.010
   0.00000000  0.02906301  0.08718903       0.005
  -0.01453150  0.04359451  0.10172053       0.010
  -0.02906301  0.05812602  0.11625203       0.010
  -0.04359451  0.07265752  0.13078354       0.010
  -0.05812602  0.08718903  0.14531504       0.010
   0.17437805 -0.14531504 -0.08718903       0.010
   0.15984655 -0.13078354 -0.07265752       0.010
   0.14531504 -0.11625203 -0.05812602       0.010
   0.13078354 -0.10172053 -0.04359451       0.010
   0.11625203 -0.08718903 -0.02906301       0.010
   0.10172053 -0.07265752 -0.01453150       0.010
   0.08718903 -0.05812602  0.00000000       0.005
   0.00000000  0.02906301  0.11625203       0.005
  -0.01453150  0.04359451  0.13078354       0.010
  -0.02906301  0.05812602  0.14531504       0.010
  -0.04359451  0.07265752  0.15984655       0.010
   0.18890956 -0.15984655 -0.07265752       0.010
   0.17437805 -0.14531504 -0.05812602       0.010
   0.15984655 -0.13078354 -0.04359451       0.010
   0.14531504 -0.11625203 -0.02906301       0.010
   0.13078354 -0.10172053 -0.01453150       0.010
   0.11625203 -0.08718903 -0.00000000       0.005
   0.00000000  0.02906301  0.14531504       0.005
  -0.01453150  0.04359451  0.15984655       0.010
  -0.02906301  0.05812602  0.17437805       0.010
   0.20344106 -0.17437805 -0.05812602       0.010
   0.18890956 -0.15984655 -0.04359451       0.010
   0.17437805 -0.14531504 -0.02906301       0.010
   0.15984655 -0.13078354 -0.01453150       0.010
   0.14531504 -0.11625203  0.00000000       0.005
   0.00000000  0.02906301  0.17437805       0.005
  -0.01453150  0.04359451  0.18890956       0.010
   0.21797256 -0.18890956 -0.04359451       0.010
   0.20344106 -0.17437805 -0.02906301       0.010
   0.18890956 -0.15984655 -0.01453150       0.010
   0.17437805 -0.14531504 -0.00000000       0.005
   0.00000000  0.02906301  0.20344106       0.005
   0.23250407 -0.20344106 -0.02906301       0.010
   0.21797256 -0.18890956 -0.01453150       0.010
   0.20344106 -0.17437805  0.00000000       0.005
   0.24703557 -0.21797256 -0.01453150       0.005
   0.23250407 -0.20344106 -0.00000000       0.005
   0.00000000  0.05812602  0.11625203       0.005
  -0.01453150  0.07265752  0.13078354       0.010
  -0.02906301  0.08718903  0.14531504       0.010
   0.20344106 -0.14531504 -0.08718903       0.010
   0.18890956 -0.13078354 -0.07265752       0.010
   0.00000000  0.05812602  0.14531504       0.005
  -0.01453150  0.07265752  0.15984655       0.010
   0.21797256 -0.15984655 -0.07265752       0.010
   0.20344106 -0.14531504 -0.05812602       0.010
   0.18890956 -0.13078354 -0.04359451       0.010
   0.17437805 -0.11625203 -0.02906301       0.010
   0.15984655 -0.10172053 -0.01453150       0.010
   0.14531504 -0.08718903  0.00000000       0.005
   0.00000000  0.05812602  0.17437805       0.005
   0.23250407 -0.17437805 -0.05812602       0.010
   0.21797256 -0.15984655 -0.04359451       0.010
   0.20344106 -0.14531504 -0.02906301       0.010
   0.18890956 -0.13078354 -0.01453150       0.010
   0.17437805 -0.11625203  0.00000000       0.005
   0.24703557 -0.18890956 -0.04359451       0.005
   0.23250407 -0.17437805 -0.02906301       0.010
   0.21797256 -0.15984655 -0.01453150       0.010
   0.20344106 -0.14531504  0.00000000       0.005
   0.24703557 -0.18890956 -0.01453150       0.005
   0.23250407 -0.17437805  0.00000000       0.005
   0.24703557 -0.15984655 -0.07265752       0.005
   0.23250407 -0.14531504 -0.05812602       0.010
   0.21797256 -0.13078354 -0.04359451       0.010
   0.24703557 -0.15984655 -0.04359451       0.005
   0.23250407 -0.14531504 -0.02906301       0.010
   0.21797256 -0.13078354 -0.01453150       0.010
   0.20344106 -0.11625203  0.00000000       0.005
   0.24703557 -0.15984655 -0.01453150       0.005
   0.23250407 -0.14531504 -0.00000000       0.005
   0.24703557 -0.13078354 -0.01453150       0.005

 k-points in reciprocal lattice and weights: # Generated by Masgent for k-point conve
   0.00000000  0.00000000  0.00000000       0.000
   0.05882353  0.00000000  0.00000000       0.002
   0.11764706  0.00000000  0.00000000       0.002
   0.17647059  0.00000000  0.00000000       0.002
   0.23529412  0.00000000  0.00000000       0.002
   0.29411765  0.00000000  0.00000000       0.002
   0.35294118  0.00000000  0.00000000       0.002
   0.41176471  0.00000000  0.00000000       0.002
   0.47058824  0.00000000  0.00000000       0.002
   0.05882353  0.05882353  0.00000000       0.001
   0.11764706  0.05882353  0.00000000       0.005
   0.17647059  0.05882353  0.00000000       0.005
   0.23529412  0.05882353  0.00000000       0.005
   0.29411765  0.05882353  0.00000000       0.005
   0.35294118  0.05882353  0.00000000       0.005
   0.41176471  0.05882353  0.00000000       0.005
   0.47058824  0.05882353  0.00000000       0.005
  -0.47058824  0.05882353  0.00000000       0.005
  -0.41176471  0.05882353  0.00000000       0.005
  -0.35294118  0.05882353  0.00000000       0.005
  -0.29411765  0.05882353  0.00000000       0.005
  -0.23529412  0.05882353  0.00000000       0.005
  -0.17647059  0.05882353  0.00000000       0.005
  -0.11764706  0.05882353  0.00000000       0.005
  -0.05882353  0.05882353  0.00000000       0.002
   0.11764706  0.11764706  0.00000000       0.001
   0.17647059  0.11764706  0.00000000       0.005
   0.23529412  0.11764706  0.00000000       0.005
   0.29411765  0.11764706  0.00000000       0.005
   0.35294118  0.11764706  0.00000000       0.005
   0.41176471  0.11764706  0.00000000       0.005
   0.47058824  0.11764706  0.00000000       0.005
  -0.47058824  0.11764706  0.00000000       0.005
  -0.41176471  0.11764706  0.00000000       0.005
  -0.35294118  0.11764706  0.00000000       0.005
  -0.29411765  0.11764706  0.00000000       0.005
  -0.23529412  0.11764706  0.00000000       0.005
  -0.17647059  0.11764706  0.00000000       0.005
  -0.11764706  0.11764706  0.00000000       0.002
   0.17647059  0.17647059  0.00000000       0.001
   0.23529412  0.17647059  0.00000000       0.005
   0.29411765  0.17647059  0.00000000       0.005
   0.35294118  0.17647059  0.00000000       0.005
   0.41176471  0.17647059  0.00000000       0.005
   0.47058824  0.17647059  0.00000000       0.005
  -0.47058824  0.17647059  0.00000000       0.005
  -0.41176471  0.17647059  0.00000000       0.005
  -0.35294118  0.17647059  0.00000000       0.005
  -0.29411765  0.17647059  0.00000000       0.005
  -0.23529412  0.17647059  0.00000000       0.005
  -0.17647059  0.17647059  0.00000000       0.002
   0.23529412  0.23529412  0.00000000       0.001
   0.29411765  0.23529412  0.00000000       0.005
   0.35294118  0.23529412  0.00000000       0.005
   0.41176471  0.23529412  0.00000000       0.005
   0.47058824  0.23529412  0.00000000       0.005
  -0.47058824  0.23529412  0.00000000       0.005
  -0.41176471  0.23529412  0.00000000       0.005
  -0.35294118  0.23529412  0.00000000       0.005
  -0.29411765  0.23529412  0.00000000       0.005
  -0.23529412  0.23529412  0.00000000       0.002
   0.29411765  0.29411765  0.00000000       0.001
   0.35294118  0.29411765  0.00000000       0.005
   0.41176471  0.29411765  0.00000000       0.005
   0.47058824  0.29411765  0.00000000       0.005
  -0.47058824  0.29411765  0.00000000       0.005
  -0.41176471  0.29411765  0.00000000       0.005
  -0.35294118  0.29411765  0.00000000       0.005
  -0.29411765  0.29411765  0.00000000       0.002
   0.35294118  0.35294118  0.00000000       0.001
   0.41176471  0.35294118  0.00000000       0.005
   0.47058824  0.35294118  0.00000000       0.005
  -0.47058824  0.35294118  0.00000000       0.005
  -0.41176471  0.35294118  0.00000000       0.005
  -0.35294118  0.35294118  0.00000000       0.002
   0.41176471  0.41176471  0.00000000       0.001
   0.47058824  0.41176471  0.00000000       0.005
  -0.47058824  0.41176471  0.00000000       0.005
  -0.41176471  0.41176471  0.00000000       0.002
   0.47058824  0.47058824  0.00000000       0.001
  -0.47058824  0.47058824  0.00000000       0.002
   0.17647059  0.11764706  0.05882353       0.005
   0.23529412  0.11764706  0.05882353       0.010
   0.29411765  0.11764706  0.05882353       0.010
   0.35294118  0.11764706  0.05882353       0.010
   0.41176471  0.11764706  0.05882353       0.010
   0.47058824  0.11764706  0.05882353       0.010
  -0.47058824  0.11764706  0.05882353       0.010
   0.23529412  0.17647059  0.05882353       0.005
   0.29411765  0.17647059  0.05882353       0.010
   0.35294118  0.17647059  0.05882353       0.010
   0.41176471  0.17647059  0.05882353       0.010
   0.47058824  0.17647059  0.05882353       0.010
  -0.47058824  0.17647059  0.05882353       0.010
  -0.41176471  0.17647059  0.05882353       0.010
  -0.35294118  0.17647059  0.05882353       0.010
  -0.29411765  0.17647059  0.05882353       0.010
  -0.23529412  0.17647059  0.05882353       0.010
  -0.17647059  0.17647059  0.05882353       0.010
  -0.11764706  0.17647059  0.05882353       0.005
   0.29411765  0.23529412  0.05882353       0.005
   0.35294118  0.23529412  0.05882353       0.010
   0.41176471  0.23529412  0.05882353       0.010
   0.47058824  0.23529412  0.05882353       0.010
  -0.47058824  0.23529412  0.05882353       0.010
  -0.41176471  0.23529412  0.05882353       0.010
  -0.35294118  0.23529412  0.05882353       0.010
  -0.29411765  0.23529412  0.05882353       0.010
  -0.23529412  0.23529412  0.05882353       0.010
  -0.17647059  0.23529412  0.05882353       0.005
   0.35294118  0.29411765  0.05882353       0.005
   0.41176471  0.29411765  0.05882353       0.010
   0.47058824  0.29411765  0.05882353       0.010
  -0.47058824  0.29411765  0.05882353       0.010
  -0.41176471  0.29411765  0.05882353       0.010
  -0.35294118  0.29411765  0.05882353       0.010
  -0.29411765  0.29411765  0.05882353       0.010
  -0.23529412  0.29411765  0.05882353       0.005
   0.41176471  0.35294118  0.05882353       0.005
   0.47058824  0.35294118  0.05882353       0.010
  -0.47058824  0.35294118  0.05882353       0.010
  -0.41176471  0.35294118  0.05882353       0.010
  -0.35294118  0.35294118  0.05882353       0.010
  -0.29411765  0.35294118  0.05882353       0.005
   0.47058824  0.41176471  0.05882353       0.005
  -0.47058824  0.41176471  0.05882353       0.010
  -0.41176471  0.41176471  0.05882353       0.010
  -0.35294118  0.41176471  0.05882353       0.005
  -0.47058824  0.47058824  0.05882353       0.005
  -0.41176471  0.47058824  0.05882353       0.005
   0.35294118  0.23529412  0.11764706       0.005
   0.41176471  0.23529412  0.11764706       0.010
   0.47058824  0.23529412  0.11764706       0.010
  -0.47058824  0.23529412  0.11764706       0.010
  -0.41176471  0.23529412  0.11764706       0.010
   0.41176471  0.29411765  0.11764706       0.005
   0.47058824  0.29411765  0.11764706       0.010
  -0.47058824  0.29411765  0.11764706       0.010
  -0.41176471  0.29411765  0.11764706       0.010
  -0.35294118  0.29411765  0.11764706       0.010
  -0.29411765  0.29411765  0.11764706       0.010
  -0.23529412  0.29411765  0.11764706       0.010
  -0.17647059  0.29411765  0.11764706       0.005
   0.47058824  0.35294118  0.11764706       0.005
  -0.47058824  0.35294118  0.11764706       0.010
  -0.41176471  0.35294118  0.11764706       0.010
  -0.35294118  0.35294118  0.11764706       0.010
  -0.29411765  0.35294118  0.11764706       0.010
  -0.23529412  0.35294118  0.11764706       0.005
  -0.47058824  0.41176471  0.11764706       0.005
  -0.41176471  0.41176471  0.11764706       0.010
  -0.35294118  0.41176471  0.11764706       0.010
  -0.29411765  0.41176471  0.11764706       0.005
  -0.41176471  0.47058824  0.11764706       0.005
  -0.35294118  0.47058824  0.11764706       0.005
  -0.47058824  0.35294118  0.17647059       0.005
  -0.41176471  0.35294118  0.17647059       0.010
  -0.35294118  0.35294118  0.17647059       0.010
  -0.41176471  0.41176471  0.17647059       0.005
  -0.35294118  0.41176471  0.17647059       0.010
  -0.29411765  0.41176471  0.17647059       0.010
  -0.23529412  0.41176471  0.17647059       0.005
  -0.35294118  0.47058824  0.17647059       0.005
  -0.29411765  0.47058824  0.17647059       0.005
  -0.29411765  0.47058824  0.23529412       0.005

 position of ions in fractional coordinates (direct lattice) 
   0.00000000  0.00000000  0.00000000

 position of ions in cartesian coordinates  (Angst):
   0.00000000  0.00000000  0.00000000



--------------------------------------------------------------------------------------------------------


 k-point   1 :   0.0000 0.0000 0.0000  plane waves:     459
 k-point   2 :   0.0588 0.0000 0.0000  plane waves:     447
 k-point   3 :   0.1176 0.0000 0.0000  plane waves:     450
 k-point   4 :   0.1765 0.0000 0.0000  plane waves:     459
 k-point   5 :   0.2353 0.0000 0.0000  plane waves:     453
 k-point   6 :   0.2941 0.0000 0.0000  plane waves:     456
 k-point   7 :   0.3529 0.0000 0.0000  plane waves:     449
 k-point   8 :   0.4118 0.0000 0.0000  plane waves:     443
 k-point   9 :   0.4706 0.0000 0.0000  plane waves:     437
 k-point  10 :   0.0588 0.0588 0.0000  plane waves:     443
 k-point  11 :   0.1176 0.0588 0.0000  plane waves:     447
 k-point  12 :   0.1765 0.0588 0.0000  plane waves:     456
 k-point  13 :   0.2353 0.0588 0.0000  plane waves:     458
 k-point  14 :   0.2941 0.0588 0.0000  plane waves:     452
 k-point  15 :   0.3529 0.0588 0.0000  plane waves:     445
 k-point  16 :   0.4118 0.0588 0.0000  plane waves:     448
 k-point  17 :   0.4706 0.0588 0.0000  plane waves:     449
 k-point  18 :  -0.4706 0.0588 0.0000  plane waves:     449
 k-point  19 :  -0.4118 0.0588 0.0000  plane waves:     449
 k-point  20 :  -0.3529 0.0588 0.0000  plane waves:     441
 k-point  21 :  -0.2941 0.0588 0.0000  plane waves:     449
 k-point  22 :  -0.2353 0.0588 0.0000  plane waves:     451
 k-point  23 :  -0.1765 0.0588 0.0000  plane waves:     457
 k-point  24 :  -0.1176 0.0588 0.0000  plane waves:     453
 k-point  25 :  -0.0588 0.0588 0.0000  plane waves:     443
 k-point  26 :   0.1176 0.1176 0.0000  plane waves:     443
 k-point  27 :   0.1765 0.1176 0.0000  plane waves:     456
 k-point  28 :   0.2353 0.1176 0.0000  plane waves:     454
 k-point  29 :   0.2941 0.1176 0.0000  plane waves:     447
 k-point  30 :   0.3529 0.1176 0.0000  plane waves:     449
 k-point  31 :   0.4118 0.1176 0.0000  plane waves:     446
 k-point  32 :   0.4706 0.1176 0.0000  plane waves:     443
 k-point  33 :  -0.4706 0.1176 0.0000  plane waves:     445
 k-point  34 :  -0.4118 0.1176 0.0000  plane waves:     448
 k-point  35 :  -0.3529 0.1176 0.0000  plane waves:     441
 k-point  36 :  -0.2941 0.1176 0.0000  plane waves:     447
 k-point  37 :  -0.2353 0.1176 0.0000  plane waves:     449
 k-point  38 :  -0.1765 0.1176 0.0000  plane waves:     453
 k-point  39 :  -0.1176 0.1176 0.0000  plane waves:     451
 k-point  40 :   0.1765 0.1765 0.0000  plane waves:     451
 k-point  41 :   0.2353 0.1765 0.0000  plane waves:     452
 k-point  42 :   0.2941 0.1765 0.0000  plane waves:     446
 k-point  43 :   0.3529 0.1765 0.0000  plane waves:     445
 k-point  44 :   0.4118 0.1765 0.0000  plane waves:     446
 k-point  45 :   0.4706 0.1765 0.0000  plane waves:     445
 k-point  46 :  -0.4706 0.1765 0.0000  plane waves:     446
 k-point  47 :  -0.4118 0.1765 0.0000  plane waves:     446
 k-point  48 :  -0.3529 0.1765 0.0000  plane waves:     448
 k-point  49 :  -0.2941 0.1765 0.0000  plane waves:     442
 k-point  50 :  -0.2353 0.1765 0.0000  plane waves:     445
 k-point  51 :  -0.1765 0.1765 0.0000  plane waves:     453
 k-point  52 :   0.2353 0.2353 0.0000  plane waves:     455
 k-point  53 :   0.2941 0.2353 0.0000  plane waves:     445
 k-point  54 :   0.3529 0.2353 0.0000  plane waves:     449
 k-point  55 :   0.4118 0.2353 0.0000  plane waves:     448
 k-point  56 :   0.4706 0.2353 0.0000  plane waves:     447
 k-point  57 :  -0.4706 0.2353 0.0000  plane waves:     443
 k-point  58 :  -0.4118 0.2353 0.0000  plane waves:     447
 k-point  59 :  -0.3529 0.2353 0.0000  plane waves:     447
 k-point  60 :  -0.2941 0.2353 0.0000  plane waves:     444
 k-point  61 :  -0.2353 0.2353 0.0000  plane waves:     441
 k-point  62 :   0.2941 0.2941 0.0000  plane waves:     444
 k-point  63 :   0.3529 0.2941 0.0000  plane waves:     443
 k-point  64 :   0.4118 0.2941 0.0000  plane waves:     442
 k-point  65 :   0.4706 0.2941 0.0000  plane waves:     445
 k-point  66 :  -0.4706 0.2941 0.0000  plane waves:     447
 k-point  67 :  -0.4118 0.2941 0.0000  plane waves:     449
 k-point  68 :  -0.3529 0.2941 0.0000  plane waves:     447
 k-point  69 :  -0.2941 0.2941 0.0000  plane waves:     441
 k-point  70 :   0.3529 0.3529 0.0000  plane waves:     444
 k-point  71 :   0.4118 0.3529 0.0000  plane waves:     449
 k-point  72 :   0.4706 0.3529 0.0000  plane waves:     451
 k-point  73 :  -0.4706 0.3529 0.0000  plane waves:     444
 k-point  74 :  -0.4118 0.3529 0.0000  plane waves:     443
 k-point  75 :  -0.3529 0.3529 0.0000  plane waves:     444
 k-point  76 :   0.4118 0.4118 0.0000  plane waves:     452
 k-point  77 :   0.4706 0.4118 0.0000  plane waves:     451
 k-point  78 :  -0.4706 0.4118 0.0000  plane waves:     453
 k-point  79 :  -0.4118 0.4118 0.0000  plane waves:     444
 k-point  80 :   0.4706 0.4706 0.0000  plane waves:     452
 k-point  81 :  -0.4706 0.4706 0.0000  plane waves:     448
 k-point  82 :   0.1765 0.1176 0.0588  plane waves:     457
 k-point  83 :   0.2353 0.1176 0.0588  plane waves:     457
 k-point  84 :   0.2941 0.1176 0.0588  plane waves:     452
 k-point  85 :   0.3529 0.1176 0.0588  plane waves:     447
 k-point  86 :   0.4118 0.1176 0.0588  plane waves:     442
 k-point  87 :   0.4706 0.1176 0.0588  plane waves:     445
 k-point  88 :  -0.4706 0.1176 0.0588  plane waves:     448
 k-point  89 :   0.2353 0.1765 0.0588  plane waves:     456
 k-point  90 :   0.2941 0.1765 0.0588  plane waves:     450
 k-point  91 :   0.3529 0.1765 0.0588  plane waves:     447
 k-point  92 :   0.4118 0.1765 0.0588  plane waves:     446
 k-point  93 :   0.4706 0.1765 0.0588  plane waves:     442
 k-point  94 :  -0.4706 0.1765 0.0588  plane waves:     441
 k-point  95 :  -0.4118 0.1765 0.0588  plane waves:     446
 k-point  96 :  -0.3529 0.1765 0.0588  plane waves:     447
 k-point  97 :  -0.2941 0.1765 0.0588  plane waves:     445
 k-point  98 :  -0.2353 0.1765 0.0588  plane waves:     445
 k-point  99 :  -0.1765 0.1765 0.0588  plane waves:     453
 k-point 100 :  -0.1176 0.1765 0.0588  plane waves:     455
 k-point 101 :   0.2941 0.2353 0.0588  plane waves:     450
 k-point 102 :   0.3529 0.2353 0.0588  plane waves:     449
 k-point 103 :   0.4118 0.2353 0.0588  plane waves:     448
 k-point 104 :   0.4706 0.2353 0.0588  plane waves:     443
 k-point 105 :  -0.4706 0.2353 0.0588  plane waves:     444
 k-point 106 :  -0.4118 0.2353 0.0588  plane waves:     443
 k-point 107 :  -0.3529 0.2353 0.0588  plane waves:     446
 k-point 108 :  -0.2941 0.2353 0.0588  plane waves:     441
 k-point 109 :  -0.2353 0.2353 0.0588  plane waves:     443
 k-point 110 :  -0.1765 0.2353 0.0588  plane waves:     445
 k-point 111 :   0.3529 0.2941 0.0588  plane waves:     445
 k-point 112 :   0.4118 0.2941 0.0588  plane waves:     446
 k-point 113 :   0.4706 0.2941 0.0588  plane waves:     447
 k-point 114 :  -0.4706 0.2941 0.0588  plane waves:     444
 k-point 115 :  -0.4118 0.2941 0.0588  plane waves:     448
 k-point 116 :  -0.3529 0.2941 0.0588  plane waves:     448
 k-point 117 :  -0.2941 0.2941 0.0588  plane waves:     444
 k-point 118 :  -0.2353 0.2941 0.0588  plane waves:     442
 k-point 119 :   0.4118 0.3529 0.0588  plane waves:     444
 k-point 120 :   0.4706 0.3529 0.0588  plane waves:     450
 k-point 121 :  -0.4706 0.3529 0.0588  plane waves:     447
 k-point 122 :  -0.4118 0.3529 0.0588  plane waves:     444
 k-point 123 :  -0.3529 0.3529 0.0588  plane waves:     446
 k-point 124 :  -0.2941 0.3529 0.0588  plane waves:     447
 k-point 125 :   0.4706 0.4118 0.0588  plane waves:     452
 k-point 126 :  -0.4706 0.4118 0.0588  plane waves:     450
 k-point 127 :  -0.4118 0.4118 0.0588  plane waves:     444
 k-point 128 :  -0.3529 0.4118 0.0588  plane waves:     445
 k-point 129 :  -0.4706 0.4706 0.0588  plane waves:     450
 k-point 130 :  -0.4118 0.4706 0.0588  plane waves:     455
 k-point 131 :   0.3529 0.2353 0.1176  plane waves:     449
 k-point 132 :   0.4118 0.2353 0.1176  plane waves:     446
 k-point 133 :   0.4706 0.2353 0.1176  plane waves:     442
 k-point 134 :  -0.4706 0.2353 0.1176  plane waves:     444
 k-point 135 :  -0.4118 0.2353 0.1176  plane waves:     446
 k-point 136 :   0.4118 0.2941 0.1176  plane waves:     445
 k-point 137 :   0.4706 0.2941 0.1176  plane waves:     445
 k-point 138 :  -0.4706 0.2941 0.1176  plane waves:     443
 k-point 139 :  -0.4118 0.2941 0.1176  plane waves:     446
 k-point 140 :  -0.3529 0.2941 0.1176  plane waves:     440
 k-point 141 :  -0.2941 0.2941 0.1176  plane waves:     439
 k-point 142 :  -0.2353 0.2941 0.1176  plane waves:     444
 k-point 143 :  -0.1765 0.2941 0.1176  plane waves:     445
 k-point 144 :   0.4706 0.3529 0.1176  plane waves:     450
 k-point 145 :  -0.4706 0.3529 0.1176  plane waves:     442
 k-point 146 :  -0.4118 0.3529 0.1176  plane waves:     443
 k-point 147 :  -0.3529 0.3529 0.1176  plane waves:     447
 k-point 148 :  -0.2941 0.3529 0.1176  plane waves:     444
 k-point 149 :  -0.2353 0.3529 0.1176  plane waves:     440
 k-point 150 :  -0.4706 0.4118 0.1176  plane waves:     445
 k-point 151 :  -0.4118 0.4118 0.1176  plane waves:     445
 k-point 152 :  -0.3529 0.4118 0.1176  plane waves:     446
 k-point 153 :  -0.2941 0.4118 0.1176  plane waves:     447
 k-point 154 :  -0.4118 0.4706 0.1176  plane waves:     450
 k-point 155 :  -0.3529 0.4706 0.1176  plane waves:     447
 k-point 156 :  -0.4706 0.3529 0.1765  plane waves:     448
 k-point 157 :  -0.4118 0.3529 0.1765  plane waves:     444
 k-point 158 :  -0.3529 0.3529 0.1765  plane waves:     444
 k-point 159 :  -0.4118 0.4118 0.1765  plane waves:     448
 k-point 160 :  -0.3529 0.4118 0.1765  plane waves:     447
 k-point 161 :  -0.2941 0.4118 0.1765  plane waves:     447
 k-point 162 :  -0.2353 0.4118 0.1765  plane waves:     444
 k-point 163 :  -0.3529 0.4706 0.1765  plane waves:     445
 k-point 164 :  -0.2941 0.4706 0.1765  plane waves:     446
 k-point 165 :  -0.2941 0.4706 0.2353  plane waves:     446

 maximum and minimum number of plane-waves per node :       459      437

 maximum number of plane-waves:       459
 maximum index in each direction: 
   IXMAX=    5   IYMAX=    5   IZMAX=    5
   IXMIN=   -5   IYMIN=   -5   IZMIN=   -5


 serial   3D FFT for wavefunctions
 parallel 3D FFT for charge:
    minimum data exchange during FFTs selected (reduces bandwidth)


 total amount of memory used by VASP MPI-rank0    39314. kBytes
=======================================================================

   base      :      30000. kBytes
   nonl-proj :       5076. kBytes
   fftplans  :        150. kBytes
   grid      :       1295. kBytes
   one-center:          6. kBytes
   wavefun   :       2787. kBytes

     INWAV:  cpu time    0.0000: real time    0.0002
 Broyden mixing: mesh for mixing (old mesh)
   NGX = 11   NGY = 11   NGZ = 11
  (NGX  = 48   NGY  = 48   NGZ  = 48)
  gives a total of   1331 points

 initial charge density was supplied:
 charge density of overlapping atoms calculated
 number of electron       3.0000000 magnetization       0.6000000
 keeping initial charge density in first step


--------------------------------------------------------------------------------------------------------


 Maximum index for augmentation-charges         1111 (set IRDMAX)


--------------------------------------------------------------------------------------------------------


 First call to EWALD:  gamma=   0.695
 Maximum number of real-space cells 3x 3x 3
 Maximum number of reciprocal cells 3x 3x 3

    FEWALD:  cpu time    0.0006: real time    0.0007


--------------------------------------- Iteration      1(   1)  ---------------------------------------


    POTLOK:  cpu time    0.0160: real time    0.0167
    SETDIJ:  cpu time    0.1705: real time    0.1707
     EDDAV:  cpu time   26.8434: real time   26.8436
 BZINTS: Fermi energy:    8.036282;    3.000000 electrons
         Band energy: 0.107690E+02;  BLOECHL correction:   -0.055477
       DOS:  cpu time    0.1696: real time    0.1698
    --------------------------------------------
      LOOP:  cpu time   27.1995: real time   27.2009

 eigenvalue-minimisations  : 45024
 total energy-change (2. order) :-0.3633044E+01  (-0.8309211E+02)
 number of electron       3.0000000 magnetization       0.6000000
 augmentation part        3.0000000 magnetization       0.6000000

 Free energy of the ion-electron system (eV)
  ---------------------------------------------------
  alpha Z        PSCENC =        -0.20254611
  Ewald energy   TEWEN  =       -73.39295237
  -Hartree energ DENC   =        -0.10329695
  -exchange      EXHF   =         0.00000000
  -V(xc)+E(xc)   XCENC  =       -26.19545267
  PAW double counting   =        66.16230985      -34.20858819
  entropy T*S    EENTRO =         0.00000000
  eigenvalues    EBANDS =        10.76902503
  atomic energy  EATOM  =        53.53845706
  Solvation  Ediel_sol  =         0.00000000
  ---------------------------------------------------
  free energy    TOTEN  =        -3.63304435 eV

  energy without entropy =       -3.63304435  energy(sigma->0) =       -3.63304435


--------------------------------------------------------------------------------------------------------




--------------------------------------- Iteration      1(   2)  ---------------------------------------


     EDDAV:  cpu time   23.0732: real time   23.0734
 BZINTS: Fermi energy:    8.008475;    3.000000 electrons
         Band energy: 0.107191E+02;  BLOECHL correction:   -0.054893
       DOS:  cpu time    0.1724: real time    0.1725
    --------------------------------------------
      LOOP:  cpu time   23.2456: real time   23.2459

 eigenvalue-minimisations  : 40608
 total energy-change (2. order) :-0.4991581E-01  (-0.4999213E-01)
 number of electron       3.0000000 magnetization       0.6000000
 augmentation part        3.0000000 magnetization       0.6000000

 Free energy of the ion-electron system (eV)
  ---------------------------------------------------
  alpha Z        PSCENC =        -0.20254611
  Ewald energy   TEWEN  =       -73.39295237
  -Hartree energ DENC   =        -0.10329695
  -exchange      EXHF   =         0.00000000
  -V(xc)+E(xc)   XCENC  =       -26.19545267
  PAW double counting   =        66.16230985      -34.20858819
  entropy T*S    EENTRO =         0.00000000
  eigenvalues    EBANDS =        10.71910922
  atomic energy  EATOM  =        53.53845706
  Solvation  Ediel_sol  =         0.00000000
  ---------------------------------------------------
  free energy    TOTEN  =        -3.68296016 eV

  energy without entropy =       -3.68296016  energy(sigma->0) =       -3.68296016


--------------------------------------------------------------------------------------------------------




--------------------------------------- Iteration      1(   3)  ---------------------------------------


     EDDAV:  cpu time   35.2104: real time   35.2105
 BZINTS: Fermi energy:    8.008474;    3.000000 electrons
         Band energy: 0.107191E+02;  BLOECHL correction:   -0.054893
       DOS:  cpu time    0.1617: real time    0.1619
    --------------------------------------------
      LOOP:  cpu time   35.3721: real time   35.3723

 eigenvalue-minimisations  : 47520
 total energy-change (2. order) :-0.2265194E-05  (-0.2289718E-05)
 number of electron       3.0000000 magnetization       0.6000000
 augmentation part        3.0000000 magnetization       0.6000000

 Free energy of the ion-electron system (eV)
  ---------------------------------------------------
  alpha Z        PSCENC =        -0.20254611
  Ewald energy   TEWEN  =       -73.39295237
  -Hartree energ DENC   =        -0.10329695
  -exchange      EXHF   =         0.00000000
  -V(xc)+E(xc)   XCENC  =       -26.19545267
  PAW double counting   =        66.16230985      -34.20858819
  entropy T*S    EENTRO =         0.00000000
  eigenvalues    EBANDS =        10.71910695
  atomic energy  EATOM  =        53.53845706
  Solvation  Ediel_sol  =         0.00000000
  ---------------------------------------------------
  free energy    TOTEN  =        -3.68296243 eV

  energy without entropy =       -3.68296243  energy(sigma->0) =       -3.68296243


--------------------------------------------------------------------------------------------------------




--------------------------------------- Iteration      1(   4)  ---------------------------------------


     EDDAV:  cpu time   33.2799: real time   33.2808
 BZINTS: Fermi energy:    8.008474;    3.000000 electrons
         Band energy: 0.107191E+02;  BLOECHL correction:   -0.054893
       DOS:  cpu time    0.1523: real time    0.1524
    --------------------------------------------
      LOOP:  cpu time   33.4321: real time   33.4332

 eigenvalue-minimisations  : 45744
 total energy-change (2. order) :-0.9470256E-09  (-0.1110888E-10)
 number of electron       3.0000000 magnetization       0.6000000
 augmentation part        3.0000000 magnetization       0.6000000

 Free energy of the ion-electron system (eV)
  ---------------------------------------------------
  alpha Z        PSCENC =        -0.20254611
  Ewald energy   TEWEN  =       -73.39295237
  -Hartree energ DENC   =        -0.10329695
  -exchange      EXHF   =         0.00000000
  -V(xc)+E(xc)   XCENC  =       -26.19545267
  PAW double counting   =        66.16230985      -34.20858819
  entropy T*S    EENTRO =         0.00000000
  eigenvalues    EBANDS =        10.71910695
  atomic energy  EATOM  =        53.53845706
  Solvation  Ediel_sol  =         0.00000000
  ---------------------------------------------------
  free energy    TOTEN  =        -3.68296243 eV

  energy without entropy =       -3.68296243  energy(sigma->0) =       -3.68296243


--------------------------------------------------------------------------------------------------------




--------------------------------------- Iteration      1(   5)  ---------------------------------------


     EDDAV:  cpu time   32.3952: real time   32.3952
 BZINTS: Fermi energy:    8.008474;    3.000000 electrons
         Band energy: 0.107191E+02;  BLOECHL correction:   -0.054893
       DOS:  cpu time    0.1659: real time    0.1660
    CHARGE:  cpu time    0.1070: real time    0.1072
    MIXING:  cpu time    0.0009: real time    0.0010
    --------------------------------------------
      LOOP:  cpu time   32.6690: real time   32.6694

 eigenvalue-minimisations  : 46176
 total energy-change (2. order) : 0.1258783E-08  ( 0.4040558E-13)
 number of electron       3.0000000 magnetization      -0.0510328
 augmentation part       -0.0370924 magnetization      -0.1879613

 Broyden mixing:
  rms(total) = 0.17452E+00    rms(broyden)= 0.17452E+00
  rms(prec ) = 0.38063E+00
  weight for this iteration     100.00

 Free energy of the ion-electron system (eV)
  ---------------------------------------------------
  alpha Z        PSCENC =        -0.20254611
  Ewald energy   TEWEN  =       -73.39295237
  -Hartree energ DENC   =        -0.10329695
  -exchange      EXHF   =         0.00000000
  -V(xc)+E(xc)   XCENC  =       -26.19545267
  PAW double counting   =        66.16230985      -34.20858819
  entropy T*S    EENTRO =         0.00000000
  eigenvalues    EBANDS =        10.71910695
  atomic energy  EATOM  =        53.53845706
  Solvation  Ediel_sol  =         0.00000000
  ---------------------------------------------------
  free energy    TOTEN  =        -3.68296243 eV

  energy without entropy =       -3.68296243  energy(sigma->0) =       -3.68296243


--------------------------------------------------------------------------------------------------------




--------------------------------------- Iteration      1(   6)  ---------------------------------------


    POTLOK:  cpu time    0.0069: real time    0.0071
    SETDIJ:  cpu time    0.1596: real time    0.1611
    EDDIAG:  cpu time    1.0202: real time    1.0212
  RMM-DIIS:  cpu time    0.5862: real time    0.5862
    ORTHCH:  cpu time    0.1292: real time    0.1292
 BZINTS: Fermi energy:    7.995328;    3.000000 electrons
         Band energy: 0.106489E+02;  BLOECHL correction:   -0.053061
       DOS:  cpu time    0.1363: real time    0.1364
    CHARGE:  cpu time    0.0949: real time    0.0949
    MIXING:  cpu time    0.0004: real time    0.0004
    --------------------------------------------
      LOOP:  cpu time    2.1337: real time    2.1365

 eigenvalue-minimisations  : 31686
 total energy-change (2. order) :-0.7283835E-01  (-0.2376033E-03)
 number of electron       3.0000000 magnetization       0.0548808
 augmentation part       -0.0374166 magnetization       0.0632114

 Broyden mixing:
  rms(total) = 0.82428E-01    rms(broyden)= 0.82428E-01
  rms(prec ) = 0.23021E+00
  weight for this iteration     100.00

 eigenvalues of (default mixing * dielectric matrix)
  average eigenvalue GAMMA=   0.9029
  0.9029

 Free energy of the ion-electron system (eV)
  ---------------------------------------------------
  alpha Z        PSCENC =        -0.20254611
  Ewald energy   TEWEN  =       -73.39295237
  -Hartree energ DENC   =        -0.08620686
  -exchange      EXHF   =         0.00000000
  -V(xc)+E(xc)   XCENC  =       -26.21305537
  PAW double counting   =        94.45043852      -62.49885832
  entropy T*S    EENTRO =         0.00000000
  eigenvalues    EBANDS =        10.64892267
  atomic energy  EATOM  =        53.53845706
  Solvation  Ediel_sol  =         0.00000000
  ---------------------------------------------------
  free energy    TOTEN  =        -3.75580077 eV

  energy without entropy =       -3.75580077  energy(sigma->0) =       -3.75580077


--------------------------------------------------------------------------------------------------------




--------------------------------------- Iteration      1(   7)  ---------------------------------------


    POTLOK:  cpu time    0.0062: real time    0.0064
    SETDIJ:  cpu time    0.1498: real time    0.1498
    EDDIAG:  cpu time    0.9967: real time    0.9967
  RMM-DIIS:  cpu time    0.6772: real time    0.6772
    ORTHCH:  cpu time    0.1296: real time    0.1296
 BZINTS: Fermi energy:    7.983974;    3.000000 electrons
         Band energy: 0.106195E+02;  BLOECHL correction:   -0.053210
       DOS:  cpu time    0.1645: real time    0.1647
    CHARGE:  cpu time    0.0967: real time    0.0967
    MIXING:  cpu time    0.0002: real time    0.0002
    --------------------------------------------
      LOOP:  cpu time    2.2210: real time    2.2214

 eigenvalue-minimisations  : 32934
 total energy-change (2. order) : 0.8401778E-02  (-0.8673250E-04)
 number of electron       3.0000000 magnetization       0.0122924
 augmentation part       -0.0381101 magnetization       0.0039747

 Broyden mixing:
  rms(total) = 0.66272E-01    rms(broyden)= 0.66272E-01
  rms(prec ) = 0.98272E-01
  weight for this iteration     100.00

 eigenvalues of (default mixing * dielectric matrix)
  average eigenvalue GAMMA=   0.9314
  1.1882  0.6746

 Free energy of the ion-electron system (eV)
  ---------------------------------------------------
  alpha Z        PSCENC =        -0.20254611
  Ewald energy   TEWEN  =       -73.39295237
  -Hartree energ DENC   =        -0.09097832
  -exchange      EXHF   =         0.00000000
  -V(xc)+E(xc)   XCENC  =       -26.16651248
  PAW double counting   =       130.63267444      -98.68501085
  entropy T*S    EENTRO =         0.00000000
  eigenvalues    EBANDS =        10.61946962
  atomic energy  EATOM  =        53.53845706
  Solvation  Ediel_sol  =         0.00000000
  ---------------------------------------------------
  free energy    TOTEN  =        -3.74739900 eV

  energy without entropy =       -3.74739900  energy(sigma->0) =       -3.74739900


--------------------------------------------------------------------------------------------------------




--------------------------------------- Iteration      1(   8)  ---------------------------------------


    POTLOK:  cpu time    0.0067: real time    0.0069
    SETDIJ:  cpu time    0.1609: real time    0.1609
    EDDIAG:  cpu time    1.0152: real time    1.0152
  RMM-DIIS:  cpu time    0.7578: real time    0.7578
    ORTHCH:  cpu time    0.1301: real time    0.1319
 BZINTS: Fermi energy:    7.980620;    3.000000 electrons
         Band energy: 0.106112E+02;  BLOECHL correction:   -0.053254
       DOS:  cpu time    0.1503: real time    0.1505
    CHARGE:  cpu time    0.1023: real time    0.1023
    MIXING:  cpu time    0.0002: real time    0.0002
    --------------------------------------------
      LOOP:  cpu time    2.3235: real time    2.3257

 eigenvalue-minimisations  : 32876
 total energy-change (2. order) : 0.3371819E-03  (-0.1859477E-04)
 number of electron       3.0000000 magnetization      -0.0017024
 augmentation part       -0.0384050 magnetization      -0.0046802

 Broyden mixing:
  rms(total) = 0.21132E-01    rms(broyden)= 0.21132E-01
  rms(prec ) = 0.25463E-01
  weight for this iteration     100.00

 eigenvalues of (default mixing * dielectric matrix)
  average eigenvalue GAMMA=   1.2736
  2.2800  0.9172  0.6236

 Free energy of the ion-electron system (eV)
  ---------------------------------------------------
  alpha Z        PSCENC =        -0.20254611
  Ewald energy   TEWEN  =       -73.39295237
  -Hartree energ DENC   =        -0.10059771
  -exchange      EXHF   =         0.00000000
  -V(xc)+E(xc)   XCENC  =       -26.14623155
  PAW double counting   =       144.84472765     -112.89908541
  entropy T*S    EENTRO =         0.00000000
  eigenvalues    EBANDS =        10.61116662
  atomic energy  EATOM  =        53.53845706
  Solvation  Ediel_sol  =         0.00000000
  ---------------------------------------------------
  free energy    TOTEN  =        -3.74706181 eV

  energy without entropy =       -3.74706181  energy(sigma->0) =       -3.74706181


--------------------------------------------------------------------------------------------------------




--------------------------------------- Iteration      1(   9)  ---------------------------------------


    POTLOK:  cpu time    0.0066: real time    0.0068
    SETDIJ:  cpu time    0.1593: real time    0.1593
    EDDIAG:  cpu time    1.0070: real time    1.0071
  RMM-DIIS:  cpu time    0.8807: real time    0.8807
    ORTHCH:  cpu time    0.1295: real time    0.1295
 BZINTS: Fermi energy:    7.980120;    3.000000 electrons
         Band energy: 0.106101E+02;  BLOECHL correction:   -0.053269
       DOS:  cpu time    0.1488: real time    0.1489
    --------------------------------------------
      LOOP:  cpu time    2.3319: real time    2.3323

 eigenvalue-minimisations  : 34402
 total energy-change (2. order) : 0.1167060E-04  (-0.2507555E-05)
 number of electron       3.0000000 magnetization      -0.0017024
 augmentation part       -0.0384050 magnetization      -0.0046802

 Free energy of the ion-electron system (eV)
  ---------------------------------------------------
  alpha Z        PSCENC =        -0.20254611
  Ewald energy   TEWEN  =       -73.39295237
  -Hartree energ DENC   =        -0.10355883
  -exchange      EXHF   =         0.00000000
  -V(xc)+E(xc)   XCENC  =       -26.14118220
  PAW double counting   =       145.23050709     -113.28586091
  entropy T*S    EENTRO =         0.00000000
  eigenvalues    EBANDS =        10.61008613
  atomic energy  EATOM  =        53.53845706
  Solvation  Ediel_sol  =         0.00000000
  ---------------------------------------------------
  free energy    TOTEN  =        -3.74705014 eV

  energy without entropy =       -3.74705014  energy(sigma->0) =       -3.74705014


--------------------------------------------------------------------------------------------------------




 average (electrostatic) potential at core
  the test charge radii are     1.0406
  (the norm of the test charge is              1.0000)
       1 -72.6887



 E-fermi :   7.9801     XC(G=0): -10.1784     alpha+bet :-14.8020

 Fermi energy:         7.9801198708

 spin component 1

 k-point     1 :       0.0000    0.0000    0.0000
  band No.  band energies     occupation 
      1      -3.1517      1.00000
      2      20.5399      0.00000
      3      20.5399      0.00000
      4      20.5399      0.00000
      5      21.9948      0.00000
      6      21.9948      0.00000
      7      21.9948      0.00000
[...]
     15      46.1044      0.00000
     16      48.4699      0.00000
     17      50.8596      0.00000
     18      52.5380      0.00000
     19      54.1944      0.00000
     20      54.7107      0.00000
     21      54.7996      0.00000
     22      55.7724      0.00000
     23      58.0208      0.00000
     24      59.3528      0.00000
     25      60.6028      0.00000
     26      61.4759      0.00000
     27      62.6685      0.00000
     28      64.0049      0.00000
     29      65.0299      0.00000
     30      65.5171      0.00000
     31      68.0332      0.00000
     32      71.5950      0.00000
     33      74.2617      0.00000
     34      77.9286      0.00000
     35      81.1475      0.00000
     36      84.2534      0.00000
     37      87.4815      0.00000
     38      88.3094      0.00000
     39      90.9795      0.00000
     40      92.7202      0.00000
     41      94.2086      0.00000
     42      95.1070      0.00000
     43      97.1006      0.00000
     44      97.7968      0.00000
     45     100.0713      0.00000
     46     100.7156      0.00000
     47     102.8419      0.00000
     48     106.1773      0.00000

 k-point   161 :      -0.2941    0.4118    0.1765
  band No.  band energies     occupation 
      1       6.0589      1.00000
      2       6.5176      1.00000
      3       8.9250     -0.00423
      4      10.4489      0.00000
      5      21.8908      0.00000
      6      24.0851      0.00000
      7      25.4133      0.00000
      8      27.0117      0.00000
      9      33.9062      0.00000
     10      37.4702      0.00000
     11      40.5231      0.00000
     12      41.9677      0.00000
     13      42.8309      0.00000
     14      44.4316      0.00000
     15      45.9529      0.00000
     16      48.0681      0.00000
     17      51.6019      0.00000
     18      52.3701      0.00000
     19      54.4832      0.00000
     20      55.0803      0.00000
     21      56.2713      0.00000
     22      56.5138      0.00000
     23      58.3544      0.00000
     24      59.2269      0.00000
     25      59.3767      0.00000
     26      60.0763      0.00000
     27      62.6483      0.00000
     28      63.8646      0.00000
     29      64.3653      0.00000
     30      66.1727      0.00000
     31      66.7851      0.00000
     32      72.2009      0.00000
     33      73.2446      0.00000
     34      77.7802      0.00000
     35      80.9983      0.00000
     36      84.5474      0.00000
     37      87.9790      0.00000
     38      88.2522      0.00000
     39      90.7025      0.00000
     40      92.9697      0.00000
     41      94.5380      0.00000
     42      96.1399      0.00000
     43      97.5980      0.00000
     44      99.2870      0.00000
     45      99.8057      0.00000
     46     101.1353      0.00000
     47     103.3665      0.00000
     48     104.2503      0.00000

 k-point   162 :      -0.2353    0.4118    0.1765
  band No.  band energies     occupation 
      1       4.7285      1.00000
      2       7.6175      0.99635
      3       9.0476      0.00000
      4      11.0033      0.00000
      5      22.4715      0.00000
      6      23.2549      0.00000
      7      24.7353      0.00000
      8      28.2252      0.00000
      9      33.2836      0.00000
     10      36.7696      0.00000
     11      39.6599      0.00000
     12      40.2986      0.00000
     13      43.6836      0.00000
     14      45.0220      0.00000
     15      47.1387      0.00000
     16      49.5967      0.00000
     17      51.2451      0.00000
     18      51.8578      0.00000
     19      54.3713      0.00000
     20      54.6631      0.00000
     21      54.8388      0.00000
     22      56.5475      0.00000
     23      57.6106      0.00000
     24      59.6393      0.00000
     25      59.8252      0.00000
     26      61.4037      0.00000
     27      63.4500      0.00000
     28      64.4446      0.00000
     29      65.2672      0.00000
     30      65.6272      0.00000
     31      67.2109      0.00000
     32      70.1917      0.00000
     33      74.5230      0.00000
     34      79.0557      0.00000
     35      79.5072      0.00000
     36      86.3580      0.00000
     37      87.1849      0.00000
     38      88.2361      0.00000
     39      90.6860      0.00000
     40      92.7104      0.00000
     41      94.0390      0.00000
     42      94.1315      0.00000
     43      96.5147      0.00000
     44      98.4576      0.00000
     45     100.1328      0.00000
     46     101.4454      0.00000
     47     103.5334      0.00000
     48     106.1328      0.00000

 k-point   163 :      -0.3529    0.4706    0.1765
  band No.  band energies     occupation 
      1       5.5598      1.00000
      2       7.9587      0.78569
      3       8.5382     -0.01185
      4      10.1150      0.00000
      5      20.3071      0.00000
      6      22.0668      0.00000
      7      27.0037      0.00000
      8      29.0278      0.00000
      9      34.7906      0.00000
     10      39.3226      0.00000
     11      41.7541      0.00000
     12      41.8329      0.00000
     13      42.7903      0.00000
     14      43.3721      0.00000
     15      44.9469      0.00000
     16      46.7509      0.00000
     17      50.2364      0.00000
     18      53.3041      0.00000
     19      53.6499      0.00000
     20      54.0013      0.00000
     21      55.3971      0.00000
     22      55.5864      0.00000
     23      57.4981      0.00000
     24      57.6530      0.00000
     25      59.5046      0.00000
     26      61.9347      0.00000
     27      62.7603      0.00000
     28      64.3157      0.00000
     29      65.6956      0.00000
     30      66.4864      0.00000
     31      69.5913      0.00000
     32      72.3444      0.00000
     33      75.6041      0.00000
     34      79.2564      0.00000
     35      79.3327      0.00000
     36      82.3666      0.00000
     37      87.5642      0.00000
     38      88.3428      0.00000
     39      89.3416      0.00000
     40      91.6518      0.00000
     41      94.1319      0.00000
     42      95.5595      0.00000
     43      96.7669      0.00000
     44      99.7603      0.00000
     45      99.9119      0.00000
     46     102.2006      0.00000
     47     102.2614      0.00000
     48     105.4989      0.00000

 k-point   164 :      -0.2941    0.4706    0.1765
  band No.  band energies     occupation 
      1       6.4684      1.00000
      2       7.3549      1.00000
      3       7.9051      0.06127
      4       9.9986      0.00000
      5      21.2333      0.00000
      6      23.5746      0.00000
      7      25.9522      0.00000
      8      27.4406      0.00000
      9      34.7054      0.00000
     10      39.0969      0.00000
     11      42.0630      0.00000
     12      42.0925      0.00000
     13      42.6920      0.00000
     14      43.8975      0.00000
     15      44.6189      0.00000
     16      45.8774      0.00000
     17      51.1586      0.00000
     18      53.2378      0.00000
     19      54.1123      0.00000
     20      55.0813      0.00000
     21      56.1783      0.00000
     22      57.1963      0.00000
     23      57.6777      0.00000
     24      57.9438      0.00000
     25      59.7799      0.00000
     26      61.2199      0.00000
     27      62.1907      0.00000
     28      62.5773      0.00000
     29      64.9260      0.00000
     30      65.9200      0.00000
     31      67.6071      0.00000
     32      72.9599      0.00000
     33      74.4108      0.00000
     34      79.0899      0.00000
     35      79.2560      0.00000
     36      82.4606      0.00000
     37      88.2258      0.00000
     38      88.4907      0.00000
     39      91.5070      0.00000
     40      92.1806      0.00000
     41      96.0347      0.00000
     42      96.4089      0.00000
     43      97.6339      0.00000
     44      98.5387      0.00000
     45     100.8240      0.00000
     46     101.5490      0.00000
     47     101.9215      0.00000
     48     103.3121      0.00000

 k-point   165 :      -0.2941    0.4706    0.2353
  band No.  band energies     occupation 
      1       6.3692      1.00000
      2       7.3876      1.00000
      3       8.4719     -0.01037
      4       9.2763      0.00000
      5      23.0403      0.00000
      6      23.7590      0.00000
      7      24.5268      0.00000
      8      26.7642      0.00000
      9      34.7838      0.00000
     10      39.2419      0.00000
     11      41.9078      0.00000
     12      42.0160      0.00000
     13      42.7998      0.00000
     14      43.3546      0.00000
     15      44.6043      0.00000
     16      46.0598      0.00000
     17      51.9366      0.00000
     18      52.8107      0.00000
     19      54.2638      0.00000
     20      54.8344      0.00000
     21      56.6764      0.00000
     22      57.7431      0.00000
     23      58.0170      0.00000
     24      59.5316      0.00000
     25      59.9962      0.00000
     26      60.9221      0.00000
     27      61.8883      0.00000
     28      62.9665      0.00000
     29      64.4410      0.00000
     30      65.0067      0.00000
     31      65.3382      0.00000
     32      72.8540      0.00000
     33      74.4254      0.00000
     34      79.0293      0.00000
     35      79.3693      0.00000
     36      82.1694      0.00000
     37      88.7658      0.00000
     38      89.2895      0.00000
     39      93.6991      0.00000
     40      94.0981      0.00000
     41      95.0830      0.00000
     42      96.2344      0.00000
     43      97.3538      0.00000
     44      97.4262      0.00000
     45      99.5165      0.00000
     46      99.8044      0.00000
     47     102.5963      0.00000
     48     103.5439      0.00000


--------------------------------------------------------------------------------------------------------


 soft charge-density along one line, spin component           1
         0         1         2         3         4         5         6         7         8         9
 total charge-density along one line

 soft charge-density along one line, spin component           2
         0         1         2         3         4         5         6         7         8         9
 total charge-density along one line

 pseudopotential strength for first ion, spin component:           1
  8.445  14.393   0.000   0.000   0.000   0.000  -0.000   0.000
 14.393  24.530   0.000  -0.000   0.000   0.000  -0.000   0.000
  0.000   0.000   1.987  -0.000  -0.000   5.730  -0.000  -0.000
  0.000  -0.000  -0.000   1.987  -0.000  -0.000   5.730  -0.000
  0.000   0.000  -0.000  -0.000   1.987  -0.000  -0.000   5.730
  0.000   0.000   5.730  -0.000  -0.000  16.434  -0.000  -0.000
 -0.000  -0.000  -0.000   5.730  -0.000  -0.000  16.434  -0.000
  0.000   0.000  -0.000  -0.000   5.730  -0.000  -0.000  16.434
 pseudopotential strength for first ion, spin component:           2
  8.445  14.393   0.000   0.000   0.000   0.000  -0.000   0.000
 14.393  24.530   0.000  -0.000   0.000   0.000  -0.000   0.000
  0.000   0.000   1.987  -0.000  -0.000   5.730  -0.000  -0.000
  0.000  -0.000  -0.000   1.987  -0.000  -0.000   5.730  -0.000
  0.000   0.000  -0.000  -0.000   1.987  -0.000  -0.000   5.730
  0.000   0.000   5.730  -0.000  -0.000  16.434  -0.000  -0.000
 -0.000  -0.000  -0.000   5.730  -0.000  -0.000  16.434  -0.000
  0.000   0.000  -0.000  -0.000   5.730  -0.000  -0.000  16.434
 total augmentation occupancy for first ion, spin component:           1
  3.358  -0.828   0.000   0.000   0.000   0.000   0.000   0.000
 -0.828   0.270   0.000   0.000   0.000   0.000   0.000   0.000
  0.000   0.000   1.100  -0.000   0.000  -0.070   0.000  -0.000
  0.000   0.000  -0.000   1.100   0.000  -0.000  -0.070   0.000
  0.000   0.000  -0.000   0.000   1.100  -0.000  -0.000  -0.070
  0.000   0.000  -0.070   0.000   0.000   0.005   0.000   0.000
  0.000   0.000  -0.000  -0.070  -0.000   0.000   0.005  -0.000
  0.000   0.000  -0.000  -0.000  -0.070   0.000  -0.000   0.005
 total augmentation occupancy for first ion, spin component:           2
  0.018  -0.006   0.000   0.000   0.000   0.000   0.000   0.000
 -0.006   0.002   0.000   0.000   0.000   0.000   0.000   0.000
  0.000   0.000   0.002   0.000   0.000  -0.000   0.000   0.000
  0.000   0.000   0.000   0.002   0.000   0.000  -0.000   0.000
  0.000   0.000   0.000   0.000   0.002   0.000   0.000  -0.000
  0.000   0.000  -0.000   0.000   0.000   0.000   0.000   0.000
  0.000   0.000   0.000  -0.000   0.000   0.000   0.000   0.000
  0.000   0.000   0.000   0.000  -0.000   0.000   0.000   0.000


------------------------ aborting loop because EDIFF is reached ----------------------------------------





 total charge

# of ion       s       p       d       tot
------------------------------------------
    1        0.426   0.339   0.000   0.765



 magnetization (x)

# of ion       s       p       d       tot
------------------------------------------
    1       -0.000  -0.000   0.000  -0.000

    CHARGE:  cpu time    0.1024: real time    0.1024
    FORLOC:  cpu time    0.0002: real time    0.0002
    FORNL :  cpu time    0.0164: real time    0.0165
    STRESS:  cpu time    0.2235: real time    0.2236
    FORCOR:  cpu time    0.0050: real time    0.0051
    FORHAR:  cpu time    0.0008: real time    0.0008
    MIXING:  cpu time    0.0002: real time    0.0002
    OFIELD:  cpu time    0.0000: real time    0.0000

  FORCE on cell =-STRESS in cart. coord.  units (eV):
  Direction    XX          YY          ZZ          XY          YZ          ZX
  --------------------------------------------------------------------------------------
  Alpha Z    -0.20255    -0.20255    -0.20255
  Ewald     -24.46432   -24.46432   -24.46432    -0.00000    -0.00000     0.00000
  Hartree     0.03505     0.03505     0.03505     0.00000     0.00000     0.00000
  E(xc)      -8.54978    -8.54978    -8.54978     0.00000     0.00000     0.00000
  Local       0.33967     0.33967     0.33967    -0.00000    -0.00000    -0.00000
  n-local    18.89472    18.56258    18.99739     0.47434    -0.58557     0.51528
  augment    -1.02604    -1.02604    -1.02604     0.00000     0.00000     0.00000
  Kinetic    12.34465    10.95668    21.60406    -9.62285     8.35321    -6.21324
  Fock        0.00000     0.00000     0.00000     0.00000     0.00000     0.00000
  -------------------------------------------------------------------------------------
  Total      -0.08127    -0.08127    -0.08127     0.00000     0.00000    -0.00000
  in kB      -7.85201    -7.85201    -7.85201     0.00000     0.00000    -0.00000
  external pressure =       -7.85 kB  Pullay stress =        0.00 kB


 VOLUME and BASIS-vectors are now :
 -----------------------------------------------------------------------------
  energy-cutoff  :      520.00
  volume of cell :       16.58
      direct lattice vectors                 reciprocal lattice vectors
     0.000000000  2.024000000  2.024000000    -0.247035573  0.247035573  0.247035573
     2.024000000  0.000000000  2.024000000     0.247035573 -0.247035573  0.247035573
     2.024000000  2.024000000  0.000000000     0.247035573  0.247035573 -0.247035573

  length of vectors
     2.862368250  2.862368250  2.862368250     0.427878164  0.427878164  0.427878164


 FORCES acting on ions
    electron-ion (+dipol)            ewald-force                    non-local-force                 convergence-correction
 -----------------------------------------------------------------------------------------------
   0.532E-15 0.849E-15 0.140E-14   0.817E-16 0.470E-16 -.229E-15   -.388E-24 -.145E-23 0.336E-24   0.716E-17 -.330E-17 -.694E-17
 -----------------------------------------------------------------------------------------------
   0.532E-15 0.849E-15 0.140E-14   0.817E-16 0.470E-16 -.229E-15   -.388E-24 -.145E-23 0.336E-24   0.716E-17 -.330E-17 -.694E-17


 POSITION                                       TOTAL-FORCE (eV/Angst)
 -----------------------------------------------------------------------------------
      0.00000      0.00000      0.00000         0.000000      0.000000      0.000000
 -----------------------------------------------------------------------------------
    total drift:                                0.000000      0.000000      0.000000


--------------------------------------------------------------------------------------------------------



  FREE ENERGIE OF THE ION-ELECTRON SYSTEM (eV)
  ---------------------------------------------------
  free  energy   TOTEN  =        -3.74705014 eV

  energy  without entropy=       -3.74705014  energy(sigma->0) =       -3.74705014



--------------------------------------------------------------------------------------------------------


    POTLOK:  cpu time    0.1582: real time    0.1582


--------------------------------------------------------------------------------------------------------


 stress matrix after NEB project (eV)
     -0.08127      0.00000     -0.00000
      0.00000     -0.08127     -0.00000
      0.00000      0.00000     -0.08127
  FORCES: max atom, RMS     0.000000    0.000000
  FORCE total and by dimension    0.000000    0.000000
  Stress total and by dimension    0.140764    0.081270
     LOOP+:  cpu time  161.7625: real time  161.7777
 -----------------------------------------------------------------------------
|                                                                             |
|           W    W    AA    RRRRR   N    N  II  N    N   GGGG   !!!           |
|           W    W   A  A   R    R  NN   N  II  NN   N  G    G  !!!           |
|           W    W  A    A  R    R  N N  N  II  N N  N  G       !!!           |
|           W WW W  AAAAAA  RRRRR   N  N N  II  N  N N  G  GGG   !            |
|           WW  WW  A    A  R   R   N   NN  II  N   NN  G    G                |
|           W    W  A    A  R    R  N    N  II  N    N   GGGG   !!!           |
|                                                                             |
|     Tetrahedron method does not include variations of the Fermi             |
|     occupations, so forces and stress will be inaccurate. We suggest        |
|     using a different smearing scheme ISMEAR = 1 or 2 for metals in         |
|     relaxations.                                                            |
|                                                                             |
 -----------------------------------------------------------------------------

    4ORBIT:  cpu time    0.0000: real time    0.0000



 total charge

# of ion       s       p       d       tot
------------------------------------------
    1        0.426   0.339   0.000   0.765



 magnetization (x)

# of ion       s       p       d       tot
------------------------------------------
    1       -0.000  -0.000   0.000  -0.000

 BZINTS: Fermi energy:    7.980120;    3.000000 electrons
         Band energy: 0.106101E+02;  BLOECHL correction:   -0.053269

 total amount of memory used by VASP MPI-rank0    39314. kBytes
=======================================================================

   base      :      30000. kBytes
   nonl-proj :       5076. kBytes
   fftplans  :        150. kBytes
   grid      :       1295. kBytes
   one-center:          6. kBytes
   wavefun   :       2787. kBytes

  
  
 General timing and accounting informations for this job:
 ========================================================
  
                  Total CPU time used (sec):      165.437
                            User time (sec):      163.633
                          System time (sec):        1.804
                         Elapsed time (sec):      165.414
  
                   Maximum memory used (kb):       59164.
                   Average memory used (kb):          N/A
  
                          Minor page faults:        48728
                          Major page faults:          408
                 Voluntary context switches:         1623
