<?xml version="1.0" encoding="ISO-8859-1"?>
<modeling>
 <generator>
  <i name="program" type="string">vasp </i>
  <i name="version" type="string">6.2.1  </i>
  <i name="subversion" type="string">16May21 (build Aug 15 2022 14:47:30) complex                          parallel </i>
  <i name="platform" type="string">LinuxGNU </i>
  <i name="date" type="string">2025 12 11 </i>
  <i name="time" type="string">13:49:45 </i>
 </generator>
 <incar>
  <i type="string" name="PREC">Accurate</i>
  <i type="string" name="ALGO">Fast</i>
  <i type="int" name="ISPIN">     2</i>
  <i type="int" name="NELM">   100</i>
  <i name="EDIFF">      0.00005000</i>
  <i type="int" name="NSW">     0</i>
  <i name="ENCUT">    520.00000000</i>
  <v name="MAGMOM">      0.60000000</v>
  <i type="logical" name="LREAL"> F  </i>
  <i type="int" name="ISMEAR">    -5</i>
  <i name="SIGMA">      0.05000000</i>
  <i type="logical" name="LWAVE"> F  </i>
  <i type="logical" name="LCHARG"> T  </i>
  <i type="int" name="LORBIT">    11</i>
  <i type="logical" name="LASPH"> T  </i>
 </incar>
 <primitive_cell>
  <structure name="primitive_cell" >
   <crystal>
    <varray name="basis" >
     <v>       0.00000000       2.02400000       2.02400000 </v>
     <v>       2.02400000       0.00000000       2.02400000 </v>
     <v>       2.02400000       2.02400000       0.00000000 </v>
    </varray>
    <i name="volume">     16.58293965 </i>
    <varray name="rec_basis" >
     <v>      -0.24703557       0.24703557       0.24703557 </v>
     <v>       0.24703557      -0.24703557       0.24703557 </v>
     <v>       0.24703557       0.24703557      -0.24703557 </v>
    </varray>
   </crystal>
   <varray name="positions" >
    <v>       0.00000000       0.00000000       0.00000000 </v>
   </varray>
  </structure>
  <varray name="primitive_index" >
   <v type="int" >        1 </v>
  </varray>
 </primitive_cell>
 <kpoints>
  <generation param="Gamma">
   <v type="int" name="divisions">      17       17       17 </v>
   <v name="usershift">      0.00000000       0.00000000       0.00000000 </v>
   <v name="genvec1">      0.05882353       0.00000000       0.00000000 </v>
   <v name="genvec2">      0.00000000       0.05882353       0.00000000 </v>
   <v name="genvec3">      0.00000000       0.00000000       0.05882353 </v>
   <v name="shift">      0.00000000       0.00000000       0.00000000 </v>
  </generation>
  <varray name="kpointlist" >
   <v>       0.00000000       0.00000000       0.00000000 </v>
   <v>       0.05882353       0.00000000       0.00000000 </v>
   <v>       0.11764706       0.00000000       0.00000000 </v>
   <v>       0.17647059       0.00000000       0.00000000 </v>
   <v>       0.23529412       0.00000000       0.00000000 </v>
   <v>       0.29411765       0.00000000       0.00000000 </v>
   <v>       0.35294118       0.00000000       0.00000000 </v>
   <v>       0.41176471       0.00000000       0.00000000 </v>
   <v>       0.47058824       0.00000000       0.00000000 </v>
   <v>       0.05882353       0.05882353       0.00000000 </v>
   <v>       0.11764706       0.05882353       0.00000000 </v>
   <v>       0.17647059       0.05882353       0.00000000 </v>
   <v>       0.23529412       0.05882353       0.00000000 </v>
   <v>       0.29411765       0.05882353       0.00000000 </v>
   <v>       0.35294118       0.05882353       0.00000000 </v>
   <v>       0.41176471       0.05882353       0.00000000 </v>
   <v>       0.47058824       0.05882353       0.00000000 </v>
   <v>      -0.47058824       0.05882353       0.00000000 </v>
   <v>      -0.41176471       0.05882353       0.00000000 </v>
   <v>      -0.35294118       0.05882353       0.00000000 </v>
   <v>      -0.29411765       0.05882353       0.00000000 </v>
   <v>      -0.23529412       0.05882353       0.00000000 </v>
   <v>      -0.17647059       0.05882353       0.00000000 </v>
   <v>      -0.11764706       0.05882353       0.00000000 </v>
   <v>      -0.05882353       0.05882353       0.00000000 </v>
   <v>       0.11764706       0.11764706       0.00000000 </v>
   <v>       0.17647059       0.11764706       0.00000000 </v>
   <v>       0.23529412       0.11764706       0.00000000 </v>
   <v>       0.29411765       0.11764706       0.00000000 </v>
   <v>       0.35294118       0.11764706       0.00000000 </v>
   <v>       0.41176471       0.11764706       0.00000000 </v>
   <v>       0.47058824       0.11764706       0.00000000 </v>
   <v>      -0.47058824       0.11764706       0.00000000 </v>
   <v>      -0.41176471       0.11764706       0.00000000 </v>
   <v>      -0.35294118       0.11764706       0.00000000 </v>
   <v>      -0.29411765       0.11764706       0.00000000 </v>
   <v>      -0.23529412       0.11764706       0.00000000 </v>
   <v>      -0.17647059       0.11764706       0.00000000 </v>
   <v>      -0.11764706       0.11764706       0.00000000 </v>
   <v>       0.17647059       0.17647059       0.00000000 </v>
   <v>       0.23529412       0.17647059       0.00000000 </v>
   <v>       0.29411765       0.17647059       0.00000000 </v>
   <v>       0.35294118       0.17647059       0.00000000 </v>
   <v>       0.41176471       0.17647059       0.00000000 </v>
   <v>       0.47058824       0.17647059       0.00000000 </v>
   <v>      -0.47058824       0.17647059       0.00000000 </v>
   <v>      -0.41176471       0.17647059       0.00000000 </v>
   <v>      -0.35294118       0.17647059       0.00000000 </v>
   <v>      -0.29411765       0.17647059       0.00000000 </v>
   <v>      -0.23529412       0.17647059       0.00000000 </v>
   <v>      -0.17647059       0.17647059       0.00000000 </v>
   <v>       0.23529412       0.23529412       0.00000000 </v>
   <v>       0.29411765       0.23529412       0.00000000 </v>
   <v>       0.35294118       0.23529412       0.00000000 </v>
   <v>       0.41176471       0.23529412       0.00000000 </v>
   <v>       0.47058824       0.23529412       0.00000000 </v>
   <v>      -0.47058824       0.23529412       0.00000000 </v>
   <v>      -0.41176471       0.23529412       0.00000000 </v>
   <v>      -0.35294118       0.23529412       0.00000000 </v>
   <v>      -0.29411765       0.23529412       0.00000000 </v>
   <v>      -0.23529412       0.23529412       0.00000000 </v>
   <v>       0.29411765       0.29411765       0.00000000 </v>
   <v>       0.35294118       0.29411765       0.00000000 </v>
   <v>       0.41176471       0.29411765       0.00000000 </v>
   <v>       0.47058824       0.29411765       0.00000000 </v>
   <v>      -0.47058824       0.29411765       0.00000000 </v>
   <v>      -0.41176471       0.29411765       0.00000000 </v>
   <v>      -0.35294118       0.29411765       0.00000000 </v>
   <v>      -0.29411765       0.29411765       0.00000000 </v>
   <v>       0.35294118       0.35294118       0.00000000 </v>
   <v>       0.41176471       0.35294118       0.00000000 </v>
   <v>       0.47058824       0.35294118       0.00000000 </v>
   <v>      -0.47058824       0.35294118       0.00000000 </v>
   <v>      -0.41176471       0.35294118       0.00000000 </v>
   <v>      -0.35294118       0.35294118       0.00000000 </v>
   <v>       0.41176471       0.41176471       0.00000000 </v>
   <v>       0.47058824       0.41176471       0.00000000 </v>
   <v>      -0.47058824       0.41176471       0.00000000 </v>
   <v>      -0.41176471       0.41176471       0.00000000 </v>
   <v>       0.47058824       0.47058824       0.00000000 </v>
   <v>      -0.47058824       0.47058824       0.00000000 </v>
   <v>       0.17647059       0.11764706       0.05882353 </v>
   <v>       0.23529412       0.11764706       0.05882353 </v>
   <v>       0.29411765       0.11764706       0.05882353 </v>
   <v>       0.35294118       0.11764706       0.05882353 </v>
   <v>       0.41176471       0.11764706       0.05882353 </v>
   <v>       0.47058824       0.11764706       0.05882353 </v>
   <v>      -0.47058824       0.11764706       0.05882353 </v>
   <v>       0.23529412       0.17647059       0.05882353 </v>
   <v>       0.29411765       0.17647059       0.05882353 </v>
   <v>       0.35294118       0.17647059       0.05882353 </v>
   <v>       0.41176471       0.17647059       0.05882353 </v>
   <v>       0.47058824       0.17647059       0.05882353 </v>
   <v>      -0.47058824       0.17647059       0.05882353 </v>
   <v>      -0.41176471       0.17647059       0.05882353 </v>
   <v>      -0.35294118       0.17647059       0.05882353 </v>
   <v>      -0.29411765       0.17647059       0.05882353 </v>
   <v>      -0.23529412       0.17647059       0.05882353 </v>
   <v>      -0.17647059       0.17647059       0.05882353 </v>
   <v>      -0.11764706       0.17647059       0.05882353 </v>
   <v>       0.29411765       0.23529412       0.05882353 </v>
   <v>       0.35294118       0.23529412       0.05882353 </v>
   <v>       0.41176471       0.23529412       0.05882353 </v>
   <v>       0.47058824       0.23529412       0.05882353 </v>
   <v>      -0.47058824       0.23529412       0.05882353 </v>
   <v>      -0.41176471       0.23529412       0.05882353 </v>
   <v>      -0.35294118       0.23529412       0.05882353 </v>
   <v>      -0.29411765       0.23529412       0.05882353 </v>
   <v>      -0.23529412       0.23529412       0.05882353 </v>
   <v>      -0.17647059       0.23529412       0.05882353 </v>
   <v>       0.35294118       0.29411765       0.05882353 </v>
   <v>       0.41176471       0.29411765       0.05882353 </v>
   <v>       0.47058824       0.29411765       0.05882353 </v>
   <v>      -0.47058824       0.29411765       0.05882353 </v>
   <v>      -0.41176471       0.29411765       0.05882353 </v>
   <v>      -0.35294118       0.29411765       0.05882353 </v>
   <v>      -0.29411765       0.29411765       0.05882353 </v>
   <v>      -0.23529412       0.29411765       0.05882353 </v>
   <v>       0.41176471       0.35294118       0.05882353 </v>
   <v>       0.47058824       0.35294118       0.05882353 </v>
   <v>      -0.47058824       0.35294118       0.05882353 </v>
   <v>      -0.41176471       0.35294118       0.05882353 </v>
   <v>      -0.35294118       0.35294118       0.05882353 </v>
   <v>      -0.29411765       0.35294118       0.05882353 </v>
   <v>       0.47058824       0.41176471       0.05882353 </v>
   <v>      -0.47058824       0.41176471       0.05882353 </v>
   <v>      -0.41176471       0.41176471       0.05882353 </v>
   <v>      -0.35294118       0.41176471       0.05882353 </v>
   <v>      -0.47058824       0.47058824       0.05882353 </v>
   <v>      -0.41176471       0.47058824       0.05882353 </v>
   <v>       0.35294118       0.23529412       0.11764706 </v>
   <v>       0.41176471       0.23529412       0.11764706 </v>
   <v>       0.47058824       0.23529412       0.11764706 </v>
   <v>      -0.47058824       0.23529412       0.11764706 </v>
   <v>      -0.41176471       0.23529412       0.11764706 </v>
   <v>       0.41176471       0.29411765       0.11764706 </v>
   <v>       0.47058824       0.29411765       0.11764706 </v>
   <v>      -0.47058824       0.29411765       0.11764706 </v>
   <v>      -0.41176471       0.29411765       0.11764706 </v>
   <v>      -0.35294118       0.29411765       0.11764706 </v>
   <v>      -0.29411765       0.29411765       0.11764706 </v>
   <v>      -0.23529412       0.29411765       0.11764706 </v>
   <v>      -0.17647059       0.29411765       0.11764706 </v>
   <v>       0.47058824       0.35294118       0.11764706 </v>
   <v>      -0.47058824       0.35294118       0.11764706 </v>
   <v>      -0.41176471       0.35294118       0.11764706 </v>
   <v>      -0.35294118       0.35294118       0.11764706 </v>
   <v>      -0.29411765       0.35294118       0.11764706 </v>
   <v>      -0.23529412       0.35294118       0.11764706 </v>
   <v>      -0.47058824       0.41176471       0.11764706 </v>
   <v>      -0.41176471       0.41176471       0.11764706 </v>
   <v>      -0.35294118       0.41176471       0.11764706 </v>
   <v>      -0.29411765       0.41176471       0.11764706 </v>
   <v>      -0.41176471       0.47058824       0.11764706 </v>
   <v>      -0.35294118       0.47058824       0.11764706 </v>
   <v>      -0.47058824       0.35294118       0.17647059 </v>
   <v>      -0.41176471       0.35294118       0.17647059 </v>
   <v>      -0.35294118       0.35294118       0.17647059 </v>
   <v>      -0.41176471       0.41176471       0.17647059 </v>
   <v>      -0.35294118       0.41176471       0.17647059 </v>
   <v>      -0.29411765       0.41176471       0.17647059 </v>
   <v>      -0.23529412       0.41176471       0.17647059 </v>
   <v>      -0.35294118       0.47058824       0.17647059 </v>
   <v>      -0.29411765       0.47058824       0.17647059 </v>
   <v>      -0.29411765       0.47058824       0.23529412 </v>
  </varray>
  <varray name="weights" >
   <v>       0.00020354 </v>
   <v>       0.00162833 </v>
   <v>       0.00162833 </v>
   <v>       0.00162833 </v>
   <v>       0.00162833 </v>
   <v>       0.00162833 </v>
   <v>       0.00162833 </v>
   <v>       0.00162833 </v>
   <v>       0.00162833 </v>
   <v>       0.00122125 </v>
   <v>       0.00488500 </v>
   <v>       0.00488500 </v>
   <v>       0.00488500 </v>
   <v>       0.00488500 </v>
   <v>       0.00488500 </v>
   <v>       0.00488500 </v>
   <v>       0.00488500 </v>
   <v>       0.00488500 </v>
   <v>       0.00488500 </v>
   <v>       0.00488500 </v>
   <v>       0.00488500 </v>
   <v>       0.00488500 </v>
   <v>       0.00488500 </v>
   <v>       0.00488500 </v>
   <v>       0.00244250 </v>
   <v>       0.00122125 </v>
   <v>       0.00488500 </v>
   <v>       0.00488500 </v>
   <v>       0.00488500 </v>
   <v>       0.00488500 </v>
   <v>       0.00488500 </v>
   <v>       0.00488500 </v>
   <v>       0.00488500 </v>
   <v>       0.00488500 </v>
   <v>       0.00488500 </v>
   <v>       0.00488500 </v>
   <v>       0.00488500 </v>
   <v>       0.00488500 </v>
   <v>       0.00244250 </v>
   <v>       0.00122125 </v>
   <v>       0.00488500 </v>
   <v>       0.00488500 </v>
   <v>       0.00488500 </v>
   <v>       0.00488500 </v>
   <v>       0.00488500 </v>
   <v>       0.00488500 </v>
   <v>       0.00488500 </v>
   <v>       0.00488500 </v>
   <v>       0.00488500 </v>
   <v>       0.00488500 </v>
   <v>       0.00244250 </v>
   <v>       0.00122125 </v>
   <v>       0.00488500 </v>
   <v>       0.00488500 </v>
   <v>       0.00488500 </v>
   <v>       0.00488500 </v>
   <v>       0.00488500 </v>
   <v>       0.00488500 </v>
   <v>       0.00488500 </v>
   <v>       0.00488500 </v>
   <v>       0.00244250 </v>
   <v>       0.00122125 </v>
   <v>       0.00488500 </v>
   <v>       0.00488500 </v>
   <v>       0.00488500 </v>
   <v>       0.00488500 </v>
   <v>       0.00488500 </v>
   <v>       0.00488500 </v>
   <v>       0.00244250 </v>
   <v>       0.00122125 </v>
   <v>       0.00488500 </v>
   <v>       0.00488500 </v>
   <v>       0.00488500 </v>
   <v>       0.00488500 </v>
   <v>       0.00244250 </v>
   <v>       0.00122125 </v>
   <v>       0.00488500 </v>
   <v>       0.00488500 </v>
   <v>       0.00244250 </v>
   <v>       0.00122125 </v>
   <v>       0.00244250 </v>
   <v>       0.00488500 </v>
   <v>       0.00977000 </v>
   <v>       0.00977000 </v>
   <v>       0.00977000 </v>
   <v>       0.00977000 </v>
   <v>       0.00977000 </v>
   <v>       0.00977000 </v>
   <v>       0.00488500 </v>
   <v>       0.00977000 </v>
   <v>       0.00977000 </v>
   <v>       0.00977000 </v>
   <v>       0.00977000 </v>
   <v>       0.00977000 </v>
   <v>       0.00977000 </v>
   <v>       0.00977000 </v>
   <v>       0.00977000 </v>
   <v>       0.00977000 </v>
   <v>       0.00977000 </v>
   <v>       0.00488500 </v>
   <v>       0.00488500 </v>
   <v>       0.00977000 </v>
   <v>       0.00977000 </v>
   <v>       0.00977000 </v>
   <v>       0.00977000 </v>
   <v>       0.00977000 </v>
   <v>       0.00977000 </v>
   <v>       0.00977000 </v>
   <v>       0.00977000 </v>
   <v>       0.00488500 </v>
   <v>       0.00488500 </v>
   <v>       0.00977000 </v>
   <v>       0.00977000 </v>
   <v>       0.00977000 </v>
   <v>       0.00977000 </v>
   <v>       0.00977000 </v>
   <v>       0.00977000 </v>
   <v>       0.00488500 </v>
   <v>       0.00488500 </v>
   <v>       0.00977000 </v>
   <v>       0.00977000 </v>
   <v>       0.00977000 </v>
   <v>       0.00977000 </v>
   <v>       0.00488500 </v>
   <v>       0.00488500 </v>
   <v>       0.00977000 </v>
   <v>       0.00977000 </v>
   <v>       0.00488500 </v>
   <v>       0.00488500 </v>
   <v>       0.00488500 </v>
   <v>       0.00488500 </v>
   <v>       0.00977000 </v>
   <v>       0.00977000 </v>
   <v>       0.00977000 </v>
   <v>       0.00977000 </v>
   <v>       0.00488500 </v>
   <v>       0.00977000 </v>
   <v>       0.00977000 </v>
   <v>       0.00977000 </v>
   <v>       0.00977000 </v>
   <v>       0.00977000 </v>
   <v>       0.00977000 </v>
   <v>       0.00488500 </v>
   <v>       0.00488500 </v>
   <v>       0.00977000 </v>
   <v>       0.00977000 </v>
   <v>       0.00977000 </v>
   <v>       0.00977000 </v>
   <v>       0.00488500 </v>
   <v>       0.00488500 </v>
   <v>       0.00977000 </v>
   <v>       0.00977000 </v>
   <v>       0.00488500 </v>
   <v>       0.00488500 </v>
   <v>       0.00488500 </v>
   <v>       0.00488500 </v>
   <v>       0.00977000 </v>
   <v>       0.00977000 </v>
   <v>       0.00488500 </v>
   <v>       0.00977000 </v>
   <v>       0.00977000 </v>
   <v>       0.00488500 </v>
   <v>       0.00488500 </v>
   <v>       0.00488500 </v>
   <v>       0.00488500 </v>
  </varray>
  <varray name="tetrahedronlist"  type="int" >
   <v type="int" >       24        1        2        2       10 </v>
   <v type="int" >       48        2       10       11       25 </v>
   <v type="int" >       48        2        3       11       25 </v>
   <v type="int" >       24        2        2       10       25 </v>
   <v type="int" >       48        3       11       12       24 </v>
   <v type="int" >       48        3        4       12       24 </v>
   <v type="int" >       48        3       11       24       25 </v>
   <v type="int" >       48        4       12       13       23 </v>
   <v type="int" >       48        4        5       13       23 </v>
   <v type="int" >       48        4       12       23       24 </v>
   <v type="int" >       48        5       13       14       22 </v>
   <v type="int" >       48        5        6       14       22 </v>
   <v type="int" >       48        5       13       22       23 </v>
   <v type="int" >       48        6       14       15       21 </v>
   <v type="int" >       48        6        7       15       21 </v>
   <v type="int" >       48        6       14       21       22 </v>
   <v type="int" >       48        7       15       16       20 </v>
   <v type="int" >       48        7        8       16       20 </v>
   <v type="int" >       48        7       15       20       21 </v>
   <v type="int" >       48        8       16       17       19 </v>
   <v type="int" >       48        8        9       17       19 </v>
   <v type="int" >       48        8       16       19       20 </v>
   <v type="int" >       48        9       17       18       18 </v>
   <v type="int" >       24        9        9       18       18 </v>
   <v type="int" >       48        9       17       18       19 </v>
   <v type="int" >       24       10       11       11       26 </v>
   <v type="int" >       24       10       11       11       25 </v>
   <v type="int" >       48       11       26       27       82 </v>
   <v type="int" >       48       11       12       27       82 </v>
   <v type="int" >       48       11       12       24       82 </v>
   <v type="int" >       24       11       11       26       82 </v>
   <v type="int" >       24       11       11       25       82 </v>
   <v type="int" >       48       11       24       25       82 </v>
   <v type="int" >       48       12       27       28       83 </v>
   <v type="int" >       48       12       13       28       83 </v>
   <v type="int" >       48       12       13       23       83 </v>
   <v type="int" >       48       12       27       82       83 </v>
   <v type="int" >       48       12       24       82       83 </v>
   <v type="int" >       48       12       23       24       83 </v>
   <v type="int" >       48       13       28       29       84 </v>
   <v type="int" >       48       13       14       29       84 </v>
   <v type="int" >       48       13       14       22       84 </v>
   <v type="int" >       48       13       28       83       84 </v>
   <v type="int" >       48       13       23       83       84 </v>
   <v type="int" >       48       13       22       23       84 </v>
   <v type="int" >       48       14       29       30       85 </v>
   <v type="int" >       48       14       15       30       85 </v>
   <v type="int" >       48       14       15       21       85 </v>
   <v type="int" >       48       14       29       84       85 </v>
   <v type="int" >       48       14       22       84       85 </v>
   <v type="int" >       48       14       21       22       85 </v>
   <v type="int" >       48       15       30       31       86 </v>
   <v type="int" >       48       15       16       31       86 </v>
   <v type="int" >       48       15       16       20       86 </v>
   <v type="int" >       48       15       30       85       86 </v>
   <v type="int" >       48       15       21       85       86 </v>
   <v type="int" >       48       15       20       21       86 </v>
   <v type="int" >       48       16       31       32       87 </v>
   <v type="int" >       48       16       17       32       87 </v>
   <v type="int" >       48       16       17       19       87 </v>
   <v type="int" >       48       16       31       86       87 </v>
   <v type="int" >       48       16       20       86       87 </v>
   <v type="int" >       48       16       19       20       87 </v>
   <v type="int" >       48       17       32       33       88 </v>
   <v type="int" >       48       17       18       33       88 </v>
   <v type="int" >       48       17       18       18       88 </v>
   <v type="int" >       48       17       32       87       88 </v>
   <v type="int" >       48       17       19       87       88 </v>
   <v type="int" >       48       17       18       19       88 </v>
   <v type="int" >       48       18       33       34       88 </v>
   <v type="int" >       48       18       19       34       88 </v>
   <v type="int" >       48       18       33       88       88 </v>
   <v type="int" >       24       18       18       88       88 </v>
   <v type="int" >       48       19       34       35       87 </v>
   <v type="int" >       48       19       20       35       87 </v>
   <v type="int" >       48       19       34       87       88 </v>
   <v type="int" >       48       20       35       36       86 </v>
   <v type="int" >       48       20       21       36       86 </v>
   <v type="int" >       48       20       35       86       87 </v>
   <v type="int" >       48       21       36       37       85 </v>
   <v type="int" >       48       21       22       37       85 </v>
   <v type="int" >       48       21       36       85       86 </v>
   <v type="int" >       48       22       37       38       84 </v>
   <v type="int" >       48       22       23       38       84 </v>
   <v type="int" >       48       22       37       84       85 </v>
   <v type="int" >       48       23       38       39       83 </v>
   <v type="int" >       48       23       24       39       83 </v>
   <v type="int" >       48       23       38       83       84 </v>
   <v type="int" >       24       24       24       39       82 </v>
   <v type="int" >       24       24       24       25       82 </v>
   <v type="int" >       48       24       39       82       83 </v>
   <v type="int" >       24       26       27       27       40 </v>
   <v type="int" >       24       26       27       27       82 </v>
   <v type="int" >       48       27       40       41       89 </v>
   <v type="int" >       48       27       28       41       89 </v>
   <v type="int" >       48       27       28       83       89 </v>
   <v type="int" >       24       27       27       40       89 </v>
   <v type="int" >       24       27       27       82       89 </v>
   <v type="int" >       48       27       82       83       89 </v>
   <v type="int" >       48       28       41       42       90 </v>
   <v type="int" >       48       28       29       42       90 </v>
   <v type="int" >       48       28       29       84       90 </v>
   <v type="int" >       48       28       41       89       90 </v>
   <v type="int" >       48       28       83       89       90 </v>
   <v type="int" >       48       28       83       84       90 </v>
   <v type="int" >       48       29       42       43       91 </v>
   <v type="int" >       48       29       30       43       91 </v>
   <v type="int" >       48       29       30       85       91 </v>
   <v type="int" >       48       29       42       90       91 </v>
   <v type="int" >       48       29       84       90       91 </v>
   <v type="int" >       48       29       84       85       91 </v>
   <v type="int" >       48       30       43       44       92 </v>
   <v type="int" >       48       30       31       44       92 </v>
   <v type="int" >       48       30       31       86       92 </v>
   <v type="int" >       48       30       43       91       92 </v>
   <v type="int" >       48       30       85       91       92 </v>
   <v type="int" >       48       30       85       86       92 </v>
   <v type="int" >       48       31       44       45       93 </v>
   <v type="int" >       48       31       32       45       93 </v>
   <v type="int" >       48       31       32       87       93 </v>
   <v type="int" >       48       31       44       92       93 </v>
   <v type="int" >       48       31       86       92       93 </v>
   <v type="int" >       48       31       86       87       93 </v>
   <v type="int" >       48       32       45       46       94 </v>
   <v type="int" >       48       32       33       46       94 </v>
   <v type="int" >       48       32       33       88       94 </v>
   <v type="int" >       48       32       45       93       94 </v>
   <v type="int" >       48       32       87       93       94 </v>
   <v type="int" >       48       32       87       88       94 </v>
   <v type="int" >       48       33       46       47       95 </v>
   <v type="int" >       48       33       34       47       95 </v>
   <v type="int" >       48       33       34       88       95 </v>
   <v type="int" >       48       33       46       94       95 </v>
   <v type="int" >       48       33       88       94       95 </v>
   <v type="int" >       48       33       88       88       95 </v>
   <v type="int" >       48       34       47       48       96 </v>
   <v type="int" >       48       34       35       48       96 </v>
   <v type="int" >       48       34       35       87       96 </v>
   <v type="int" >       48       34       47       95       96 </v>
   <v type="int" >       48       34       88       95       96 </v>
   <v type="int" >       48       34       87       88       96 </v>
   <v type="int" >       48       35       48       49       97 </v>
   <v type="int" >       48       35       36       49       97 </v>
   <v type="int" >       48       35       36       86       97 </v>
   <v type="int" >       48       35       48       96       97 </v>
   <v type="int" >       48       35       87       96       97 </v>
   <v type="int" >       48       35       86       87       97 </v>
   <v type="int" >       48       36       49       50       98 </v>
   <v type="int" >       48       36       37       50       98 </v>
   <v type="int" >       48       36       37       85       98 </v>
   <v type="int" >       48       36       49       97       98 </v>
   <v type="int" >       48       36       86       97       98 </v>
   <v type="int" >       48       36       85       86       98 </v>
   <v type="int" >       48       37       50       51       99 </v>
   <v type="int" >       48       37       38       51       99 </v>
   <v type="int" >       48       37       38       84       99 </v>
   <v type="int" >       48       37       50       98       99 </v>
   <v type="int" >       48       37       85       98       99 </v>
   <v type="int" >       48       37       84       85       99 </v>
   <v type="int" >       24       38       38       51      100 </v>
   <v type="int" >       24       38       38       39      100 </v>
   <v type="int" >       48       38       39       83      100 </v>
   <v type="int" >       48       38       51       99      100 </v>
   <v type="int" >       48       38       84       99      100 </v>
   <v type="int" >       48       38       83       84      100 </v>
   <v type="int" >       24       39       83       83      100 </v>
   <v type="int" >       24       39       82       83       83 </v>
   <v type="int" >       24       40       41       41       52 </v>
   <v type="int" >       24       40       41       41       89 </v>
   <v type="int" >       48       41       52       53      101 </v>
   <v type="int" >       48       41       42       53      101 </v>
   <v type="int" >       48       41       42       90      101 </v>
   <v type="int" >       24       41       41       52      101 </v>
   <v type="int" >       24       41       41       89      101 </v>
   <v type="int" >       48       41       89       90      101 </v>
   <v type="int" >       48       42       53       54      102 </v>
   <v type="int" >       48       42       43       54      102 </v>
   <v type="int" >       48       42       43       91      102 </v>
   <v type="int" >       48       42       53      101      102 </v>
   <v type="int" >       48       42       90      101      102 </v>
   <v type="int" >       48       42       90       91      102 </v>
   <v type="int" >       48       43       54       55      103 </v>
   <v type="int" >       48       43       44       55      103 </v>
   <v type="int" >       48       43       44       92      103 </v>
   <v type="int" >       48       43       54      102      103 </v>
   <v type="int" >       48       43       91      102      103 </v>
   <v type="int" >       48       43       91       92      103 </v>
   <v type="int" >       48       44       55       56      104 </v>
   <v type="int" >       48       44       45       56      104 </v>
   <v type="int" >       48       44       45       93      104 </v>
   <v type="int" >       48       44       55      103      104 </v>
   <v type="int" >       48       44       92      103      104 </v>
   <v type="int" >       48       44       92       93      104 </v>
   <v type="int" >       48       45       56       57      105 </v>
   <v type="int" >       48       45       46       57      105 </v>
   <v type="int" >       48       45       46       94      105 </v>
   <v type="int" >       48       45       56      104      105 </v>
   <v type="int" >       48       45       93      104      105 </v>
   <v type="int" >       48       45       93       94      105 </v>
   <v type="int" >       48       46       57       58      106 </v>
   <v type="int" >       48       46       47       58      106 </v>
   <v type="int" >       48       46       47       95      106 </v>
   <v type="int" >       48       46       57      105      106 </v>
   <v type="int" >       48       46       94      105      106 </v>
   <v type="int" >       48       46       94       95      106 </v>
   <v type="int" >       48       47       58       59      107 </v>
   <v type="int" >       48       47       48       59      107 </v>
   <v type="int" >       48       47       48       96      107 </v>
   <v type="int" >       48       47       58      106      107 </v>
   <v type="int" >       48       47       95      106      107 </v>
   <v type="int" >       48       47       95       96      107 </v>
   <v type="int" >       48       48       59       60      108 </v>
   <v type="int" >       48       48       49       60      108 </v>
   <v type="int" >       48       48       49       97      108 </v>
   <v type="int" >       48       48       59      107      108 </v>
   <v type="int" >       48       48       96      107      108 </v>
   <v type="int" >       48       48       96       97      108 </v>
   <v type="int" >       48       49       60       61      109 </v>
   <v type="int" >       48       49       50       61      109 </v>
   <v type="int" >       48       49       50       98      109 </v>
   <v type="int" >       48       49       60      108      109 </v>
   <v type="int" >       48       49       97      108      109 </v>
   <v type="int" >       48       49       97       98      109 </v>
   <v type="int" >       24       50       50       61      110 </v>
   <v type="int" >       24       50       50       51      110 </v>
   <v type="int" >       48       50       51       99      110 </v>
   <v type="int" >       48       50       61      109      110 </v>
   <v type="int" >       48       50       98      109      110 </v>
   <v type="int" >       48       50       98       99      110 </v>
   <v type="int" >       24       51       99       99      110 </v>
   <v type="int" >       24       51       99       99      100 </v>
   <v type="int" >       24       52       53       53       62 </v>
   <v type="int" >       24       52       53       53      101 </v>
   <v type="int" >       48       53       62       63      111 </v>
   <v type="int" >       48       53       54       63      111 </v>
   <v type="int" >       48       53       54      102      111 </v>
   <v type="int" >       24       53       53       62      111 </v>
   <v type="int" >       24       53       53      101      111 </v>
   <v type="int" >       48       53      101      102      111 </v>
   <v type="int" >       48       54       63       64      112 </v>
   <v type="int" >       48       54       55       64      112 </v>
   <v type="int" >       48       54       55      103      112 </v>
   <v type="int" >       48       54       63      111      112 </v>
   <v type="int" >       48       54      102      111      112 </v>
   <v type="int" >       48       54      102      103      112 </v>
   <v type="int" >       48       55       64       65      113 </v>
   <v type="int" >       48       55       56       65      113 </v>
   <v type="int" >       48       55       56      104      113 </v>
   <v type="int" >       48       55       64      112      113 </v>
   <v type="int" >       48       55      103      112      113 </v>
   <v type="int" >       48       55      103      104      113 </v>
   <v type="int" >       48       56       65       66      114 </v>
   <v type="int" >       48       56       57       66      114 </v>
   <v type="int" >       48       56       57      105      114 </v>
   <v type="int" >       48       56       65      113      114 </v>
   <v type="int" >       48       56      104      113      114 </v>
   <v type="int" >       48       56      104      105      114 </v>
   <v type="int" >       48       57       66       67      115 </v>
   <v type="int" >       48       57       58       67      115 </v>
   <v type="int" >       48       57       58      106      115 </v>
   <v type="int" >       48       57       66      114      115 </v>
   <v type="int" >       48       57      105      114      115 </v>
   <v type="int" >       48       57      105      106      115 </v>
   <v type="int" >       48       58       67       68      116 </v>
   <v type="int" >       48       58       59       68      116 </v>
   <v type="int" >       48       58       59      107      116 </v>
   <v type="int" >       48       58       67      115      116 </v>
   <v type="int" >       48       58      106      115      116 </v>
   <v type="int" >       48       58      106      107      116 </v>
   <v type="int" >       48       59       68       69      117 </v>
   <v type="int" >       48       59       60       69      117 </v>
   <v type="int" >       48       59       60      108      117 </v>
   <v type="int" >       48       59       68      116      117 </v>
   <v type="int" >       48       59      107      116      117 </v>
   <v type="int" >       48       59      107      108      117 </v>
   <v type="int" >       24       60       60       69      118 </v>
   <v type="int" >       24       60       60       61      118 </v>
   <v type="int" >       48       60       61      109      118 </v>
   <v type="int" >       48       60       69      117      118 </v>
   <v type="int" >       48       60      108      117      118 </v>
   <v type="int" >       48       60      108      109      118 </v>
   <v type="int" >       24       61      109      109      118 </v>
   <v type="int" >       24       61      109      109      110 </v>
   <v type="int" >       24       62       63       63       70 </v>
   <v type="int" >       24       62       63       63      111 </v>
   <v type="int" >       48       63       70       71      119 </v>
   <v type="int" >       48       63       64       71      119 </v>
   <v type="int" >       48       63       64      112      119 </v>
   <v type="int" >       24       63       63       70      119 </v>
   <v type="int" >       24       63       63      111      119 </v>
   <v type="int" >       48       63      111      112      119 </v>
   <v type="int" >       48       64       71       72      120 </v>
   <v type="int" >       48       64       65       72      120 </v>
   <v type="int" >       48       64       65      113      120 </v>
   <v type="int" >       48       64       71      119      120 </v>
   <v type="int" >       48       64      112      119      120 </v>
   <v type="int" >       48       64      112      113      120 </v>
   <v type="int" >       48       65       72       73      121 </v>
   <v type="int" >       48       65       66       73      121 </v>
   <v type="int" >       48       65       66      114      121 </v>
   <v type="int" >       48       65       72      120      121 </v>
   <v type="int" >       48       65      113      120      121 </v>
   <v type="int" >       48       65      113      114      121 </v>
   <v type="int" >       48       66       73       74      122 </v>
   <v type="int" >       48       66       67       74      122 </v>
   <v type="int" >       48       66       67      115      122 </v>
   <v type="int" >       48       66       73      121      122 </v>
   <v type="int" >       48       66      114      121      122 </v>
   <v type="int" >       48       66      114      115      122 </v>
   <v type="int" >       48       67       74       75      123 </v>
   <v type="int" >       48       67       68       75      123 </v>
   <v type="int" >       48       67       68      116      123 </v>
   <v type="int" >       48       67       74      122      123 </v>
   <v type="int" >       48       67      115      122      123 </v>
   <v type="int" >       48       67      115      116      123 </v>
   <v type="int" >       24       68       68       75      124 </v>
   <v type="int" >       24       68       68       69      124 </v>
   <v type="int" >       48       68       69      117      124 </v>
   <v type="int" >       48       68       75      123      124 </v>
   <v type="int" >       48       68      116      123      124 </v>
   <v type="int" >       48       68      116      117      124 </v>
   <v type="int" >       24       69      117      117      124 </v>
   <v type="int" >       24       69      117      117      118 </v>
   <v type="int" >       24       70       71       71       76 </v>
   <v type="int" >       24       70       71       71      119 </v>
   <v type="int" >       48       71       76       77      125 </v>
   <v type="int" >       48       71       72       77      125 </v>
   <v type="int" >       48       71       72      120      125 </v>
   <v type="int" >       24       71       71       76      125 </v>
   <v type="int" >       24       71       71      119      125 </v>
   <v type="int" >       48       71      119      120      125 </v>
   <v type="int" >       48       72       77       78      126 </v>
   <v type="int" >       48       72       73       78      126 </v>
   <v type="int" >       48       72       73      121      126 </v>
   <v type="int" >       48       72       77      125      126 </v>
   <v type="int" >       48       72      120      125      126 </v>
   <v type="int" >       48       72      120      121      126 </v>
   <v type="int" >       48       73       78       79      127 </v>
   <v type="int" >       48       73       74       79      127 </v>
   <v type="int" >       48       73       74      122      127 </v>
   <v type="int" >       48       73       78      126      127 </v>
   <v type="int" >       48       73      121      126      127 </v>
   <v type="int" >       48       73      121      122      127 </v>
   <v type="int" >       24       74       74       79      128 </v>
   <v type="int" >       24       74       74       75      128 </v>
   <v type="int" >       48       74       75      123      128 </v>
   <v type="int" >       48       74       79      127      128 </v>
   <v type="int" >       48       74      122      127      128 </v>
   <v type="int" >       48       74      122      123      128 </v>
   <v type="int" >       24       75      123      123      128 </v>
   <v type="int" >       24       75      123      123      124 </v>
   <v type="int" >       24       76       77       77       80 </v>
   <v type="int" >       24       76       77       77      125 </v>
   <v type="int" >       48       77       80       81      129 </v>
   <v type="int" >       48       77       78       81      129 </v>
   <v type="int" >       48       77       78      126      129 </v>
   <v type="int" >       24       77       77       80      129 </v>
   <v type="int" >       24       77       77      125      129 </v>
   <v type="int" >       48       77      125      126      129 </v>
   <v type="int" >       24       78       78       81      130 </v>
   <v type="int" >       24       78       78       79      130 </v>
   <v type="int" >       48       78       79      127      130 </v>
   <v type="int" >       48       78       81      129      130 </v>
   <v type="int" >       48       78      126      129      130 </v>
   <v type="int" >       48       78      126      127      130 </v>
   <v type="int" >       24       79      127      127      130 </v>
   <v type="int" >       24       79      127      127      128 </v>
   <v type="int" >       12       80       80       81       81 </v>
   <v type="int" >       24       80       81       81      129 </v>
   <v type="int" >       12       81       81      129      129 </v>
   <v type="int" >       24       81      129      129      130 </v>
   <v type="int" >       24       82       83       83       89 </v>
   <v type="int" >       48       83       89       90      100 </v>
   <v type="int" >       48       83       84       90      100 </v>
   <v type="int" >       24       83       83       89      100 </v>
   <v type="int" >       48       84       90       91       99 </v>
   <v type="int" >       48       84       85       91       99 </v>
   <v type="int" >       48       84       90       99      100 </v>
   <v type="int" >       48       85       91       92       98 </v>
   <v type="int" >       48       85       86       92       98 </v>
   <v type="int" >       48       85       91       98       99 </v>
   <v type="int" >       48       86       92       93       97 </v>
   <v type="int" >       48       86       87       93       97 </v>
   <v type="int" >       48       86       92       97       98 </v>
   <v type="int" >       48       87       93       94       96 </v>
   <v type="int" >       48       87       88       94       96 </v>
   <v type="int" >       48       87       93       96       97 </v>
   <v type="int" >       48       88       94       95       95 </v>
   <v type="int" >       24       88       88       95       95 </v>
   <v type="int" >       48       88       94       95       96 </v>
   <v type="int" >       24       89       90       90      101 </v>
   <v type="int" >       24       89       90       90      100 </v>
   <v type="int" >       48       90      101      102      131 </v>
   <v type="int" >       48       90       91      102      131 </v>
   <v type="int" >       48       90       91       99      131 </v>
   <v type="int" >       24       90       90      101      131 </v>
   <v type="int" >       24       90       90      100      131 </v>
   <v type="int" >       48       90       99      100      131 </v>
   <v type="int" >       48       91      102      103      132 </v>
   <v type="int" >       48       91       92      103      132 </v>
   <v type="int" >       48       91       92       98      132 </v>
   <v type="int" >       48       91      102      131      132 </v>
   <v type="int" >       48       91       99      131      132 </v>
   <v type="int" >       48       91       98       99      132 </v>
   <v type="int" >       48       92      103      104      133 </v>
   <v type="int" >       48       92       93      104      133 </v>
   <v type="int" >       48       92       93       97      133 </v>
   <v type="int" >       48       92      103      132      133 </v>
   <v type="int" >       48       92       98      132      133 </v>
   <v type="int" >       48       92       97       98      133 </v>
   <v type="int" >       48       93      104      105      134 </v>
   <v type="int" >       48       93       94      105      134 </v>
   <v type="int" >       48       93       94       96      134 </v>
   <v type="int" >       48       93      104      133      134 </v>
   <v type="int" >       48       93       97      133      134 </v>
   <v type="int" >       48       93       96       97      134 </v>
   <v type="int" >       48       94      105      106      135 </v>
   <v type="int" >       48       94       95      106      135 </v>
   <v type="int" >       48       94       95       95      135 </v>
   <v type="int" >       48       94      105      134      135 </v>
   <v type="int" >       48       94       96      134      135 </v>
   <v type="int" >       48       94       95       96      135 </v>
   <v type="int" >       48       95      106      107      135 </v>
   <v type="int" >       48       95       96      107      135 </v>
   <v type="int" >       48       95      106      135      135 </v>
   <v type="int" >       24       95       95      135      135 </v>
   <v type="int" >       48       96      107      108      134 </v>
   <v type="int" >       48       96       97      108      134 </v>
   <v type="int" >       48       96      107      134      135 </v>
   <v type="int" >       48       97      108      109      133 </v>
   <v type="int" >       48       97       98      109      133 </v>
   <v type="int" >       48       97      108      133      134 </v>
   <v type="int" >       48       98      109      110      132 </v>
   <v type="int" >       48       98       99      110      132 </v>
   <v type="int" >       48       98      109      132      133 </v>
   <v type="int" >       24       99       99      110      131 </v>
   <v type="int" >       24       99       99      100      131 </v>
   <v type="int" >       48       99      110      131      132 </v>
   <v type="int" >       24      101      102      102      111 </v>
   <v type="int" >       24      101      102      102      131 </v>
   <v type="int" >       48      102      111      112      136 </v>
   <v type="int" >       48      102      103      112      136 </v>
   <v type="int" >       48      102      103      132      136 </v>
   <v type="int" >       24      102      102      111      136 </v>
   <v type="int" >       24      102      102      131      136 </v>
   <v type="int" >       48      102      131      132      136 </v>
   <v type="int" >       48      103      112      113      137 </v>
   <v type="int" >       48      103      104      113      137 </v>
   <v type="int" >       48      103      104      133      137 </v>
   <v type="int" >       48      103      112      136      137 </v>
   <v type="int" >       48      103      132      136      137 </v>
   <v type="int" >       48      103      132      133      137 </v>
   <v type="int" >       48      104      113      114      138 </v>
   <v type="int" >       48      104      105      114      138 </v>
   <v type="int" >       48      104      105      134      138 </v>
   <v type="int" >       48      104      113      137      138 </v>
   <v type="int" >       48      104      133      137      138 </v>
   <v type="int" >       48      104      133      134      138 </v>
   <v type="int" >       48      105      114      115      139 </v>
   <v type="int" >       48      105      106      115      139 </v>
   <v type="int" >       48      105      106      135      139 </v>
   <v type="int" >       48      105      114      138      139 </v>
   <v type="int" >       48      105      134      138      139 </v>
   <v type="int" >       48      105      134      135      139 </v>
   <v type="int" >       48      106      115      116      140 </v>
   <v type="int" >       48      106      107      116      140 </v>
   <v type="int" >       48      106      107      135      140 </v>
   <v type="int" >       48      106      115      139      140 </v>
   <v type="int" >       48      106      135      139      140 </v>
   <v type="int" >       48      106      135      135      140 </v>
   <v type="int" >       48      107      116      117      141 </v>
   <v type="int" >       48      107      108      117      141 </v>
   <v type="int" >       48      107      108      134      141 </v>
   <v type="int" >       48      107      116      140      141 </v>
   <v type="int" >       48      107      135      140      141 </v>
   <v type="int" >       48      107      134      135      141 </v>
   <v type="int" >       48      108      117      118      142 </v>
   <v type="int" >       48      108      109      118      142 </v>
   <v type="int" >       48      108      109      133      142 </v>
   <v type="int" >       48      108      117      141      142 </v>
   <v type="int" >       48      108      134      141      142 </v>
   <v type="int" >       48      108      133      134      142 </v>
   <v type="int" >       24      109      109      118      143 </v>
   <v type="int" >       24      109      109      110      143 </v>
   <v type="int" >       48      109      110      132      143 </v>
   <v type="int" >       48      109      118      142      143 </v>
   <v type="int" >       48      109      133      142      143 </v>
   <v type="int" >       48      109      132      133      143 </v>
   <v type="int" >       24      110      132      132      143 </v>
   <v type="int" >       24      110      131      132      132 </v>
   <v type="int" >       24      111      112      112      119 </v>
   <v type="int" >       24      111      112      112      136 </v>
   <v type="int" >       48      112      119      120      144 </v>
   <v type="int" >       48      112      113      120      144 </v>
   <v type="int" >       48      112      113      137      144 </v>
   <v type="int" >       24      112      112      119      144 </v>
   <v type="int" >       24      112      112      136      144 </v>
   <v type="int" >       48      112      136      137      144 </v>
   <v type="int" >       48      113      120      121      145 </v>
   <v type="int" >       48      113      114      121      145 </v>
   <v type="int" >       48      113      114      138      145 </v>
   <v type="int" >       48      113      120      144      145 </v>
   <v type="int" >       48      113      137      144      145 </v>
   <v type="int" >       48      113      137      138      145 </v>
   <v type="int" >       48      114      121      122      146 </v>
   <v type="int" >       48      114      115      122      146 </v>
   <v type="int" >       48      114      115      139      146 </v>
   <v type="int" >       48      114      121      145      146 </v>
   <v type="int" >       48      114      138      145      146 </v>
   <v type="int" >       48      114      138      139      146 </v>
   <v type="int" >       48      115      122      123      147 </v>
   <v type="int" >       48      115      116      123      147 </v>
   <v type="int" >       48      115      116      140      147 </v>
   <v type="int" >       48      115      122      146      147 </v>
   <v type="int" >       48      115      139      146      147 </v>
   <v type="int" >       48      115      139      140      147 </v>
   <v type="int" >       48      116      123      124      148 </v>
   <v type="int" >       48      116      117      124      148 </v>
   <v type="int" >       48      116      117      141      148 </v>
   <v type="int" >       48      116      123      147      148 </v>
   <v type="int" >       48      116      140      147      148 </v>
   <v type="int" >       48      116      140      141      148 </v>
   <v type="int" >       24      117      117      124      149 </v>
   <v type="int" >       24      117      117      118      149 </v>
   <v type="int" >       48      117      118      142      149 </v>
   <v type="int" >       48      117      124      148      149 </v>
   <v type="int" >       48      117      141      148      149 </v>
   <v type="int" >       48      117      141      142      149 </v>
   <v type="int" >       24      118      142      142      149 </v>
   <v type="int" >       24      118      142      142      143 </v>
   <v type="int" >       24      119      120      120      125 </v>
   <v type="int" >       24      119      120      120      144 </v>
   <v type="int" >       48      120      125      126      150 </v>
   <v type="int" >       48      120      121      126      150 </v>
   <v type="int" >       48      120      121      145      150 </v>
   <v type="int" >       24      120      120      125      150 </v>
   <v type="int" >       24      120      120      144      150 </v>
   <v type="int" >       48      120      144      145      150 </v>
   <v type="int" >       48      121      126      127      151 </v>
   <v type="int" >       48      121      122      127      151 </v>
   <v type="int" >       48      121      122      146      151 </v>
   <v type="int" >       48      121      126      150      151 </v>
   <v type="int" >       48      121      145      150      151 </v>
   <v type="int" >       48      121      145      146      151 </v>
   <v type="int" >       48      122      127      128      152 </v>
   <v type="int" >       48      122      123      128      152 </v>
   <v type="int" >       48      122      123      147      152 </v>
   <v type="int" >       48      122      127      151      152 </v>
   <v type="int" >       48      122      146      151      152 </v>
   <v type="int" >       48      122      146      147      152 </v>
   <v type="int" >       24      123      123      128      153 </v>
   <v type="int" >       24      123      123      124      153 </v>
   <v type="int" >       48      123      124      148      153 </v>
   <v type="int" >       48      123      128      152      153 </v>
   <v type="int" >       48      123      147      152      153 </v>
   <v type="int" >       48      123      147      148      153 </v>
   <v type="int" >       24      124      148      148      153 </v>
   <v type="int" >       24      124      148      148      149 </v>
   <v type="int" >       24      125      126      126      129 </v>
   <v type="int" >       24      125      126      126      150 </v>
   <v type="int" >       48      126      129      130      154 </v>
   <v type="int" >       48      126      127      130      154 </v>
   <v type="int" >       48      126      127      151      154 </v>
   <v type="int" >       24      126      126      129      154 </v>
   <v type="int" >       24      126      126      150      154 </v>
   <v type="int" >       48      126      150      151      154 </v>
   <v type="int" >       24      127      127      130      155 </v>
   <v type="int" >       24      127      127      128      155 </v>
   <v type="int" >       48      127      128      152      155 </v>
   <v type="int" >       48      127      130      154      155 </v>
   <v type="int" >       48      127      151      154      155 </v>
   <v type="int" >       48      127      151      152      155 </v>
   <v type="int" >       24      128      152      152      155 </v>
   <v type="int" >       24      128      152      152      153 </v>
   <v type="int" >       12      129      129      130      130 </v>
   <v type="int" >       24      129      130      130      154 </v>
   <v type="int" >       12      130      130      154      154 </v>
   <v type="int" >       24      130      154      154      155 </v>
   <v type="int" >       24      131      132      132      136 </v>
   <v type="int" >       48      132      136      137      143 </v>
   <v type="int" >       48      132      133      137      143 </v>
   <v type="int" >       24      132      132      136      143 </v>
   <v type="int" >       48      133      137      138      142 </v>
   <v type="int" >       48      133      134      138      142 </v>
   <v type="int" >       48      133      137      142      143 </v>
   <v type="int" >       48      134      138      139      141 </v>
   <v type="int" >       48      134      135      139      141 </v>
   <v type="int" >       48      134      138      141      142 </v>
   <v type="int" >       48      135      139      140      140 </v>
   <v type="int" >       24      135      135      140      140 </v>
   <v type="int" >       48      135      139      140      141 </v>
   <v type="int" >       24      136      137      137      144 </v>
   <v type="int" >       24      136      137      137      143 </v>
   <v type="int" >       48      137      144      145      156 </v>
   <v type="int" >       48      137      138      145      156 </v>
   <v type="int" >       48      137      138      142      156 </v>
   <v type="int" >       24      137      137      144      156 </v>
   <v type="int" >       24      137      137      143      156 </v>
   <v type="int" >       48      137      142      143      156 </v>
   <v type="int" >       48      138      145      146      157 </v>
   <v type="int" >       48      138      139      146      157 </v>
   <v type="int" >       48      138      139      141      157 </v>
   <v type="int" >       48      138      145      156      157 </v>
   <v type="int" >       48      138      142      156      157 </v>
   <v type="int" >       48      138      141      142      157 </v>
   <v type="int" >       48      139      146      147      158 </v>
   <v type="int" >       48      139      140      147      158 </v>
   <v type="int" >       48      139      140      140      158 </v>
   <v type="int" >       48      139      146      157      158 </v>
   <v type="int" >       48      139      141      157      158 </v>
   <v type="int" >       48      139      140      141      158 </v>
   <v type="int" >       48      140      147      148      158 </v>
   <v type="int" >       48      140      141      148      158 </v>
   <v type="int" >       48      140      147      158      158 </v>
   <v type="int" >       24      140      140      158      158 </v>
   <v type="int" >       48      141      148      149      157 </v>
   <v type="int" >       48      141      142      149      157 </v>
   <v type="int" >       48      141      148      157      158 </v>
   <v type="int" >       24      142      142      149      156 </v>
   <v type="int" >       24      142      142      143      156 </v>
   <v type="int" >       48      142      149      156      157 </v>
   <v type="int" >       24      144      145      145      150 </v>
   <v type="int" >       24      144      145      145      156 </v>
   <v type="int" >       48      145      150      151      159 </v>
   <v type="int" >       48      145      146      151      159 </v>
   <v type="int" >       48      145      146      157      159 </v>
   <v type="int" >       24      145      145      150      159 </v>
   <v type="int" >       24      145      145      156      159 </v>
   <v type="int" >       48      145      156      157      159 </v>
   <v type="int" >       48      146      151      152      160 </v>
   <v type="int" >       48      146      147      152      160 </v>
   <v type="int" >       48      146      147      158      160 </v>
   <v type="int" >       48      146      151      159      160 </v>
   <v type="int" >       48      146      157      159      160 </v>
   <v type="int" >       48      146      157      158      160 </v>
   <v type="int" >       48      147      152      153      161 </v>
   <v type="int" >       48      147      148      153      161 </v>
   <v type="int" >       48      147      148      158      161 </v>
   <v type="int" >       48      147      152      160      161 </v>
   <v type="int" >       48      147      158      160      161 </v>
   <v type="int" >       48      147      158      158      161 </v>
   <v type="int" >       24      148      148      153      162 </v>
   <v type="int" >       24      148      148      149      162 </v>
   <v type="int" >       48      148      149      157      162 </v>
   <v type="int" >       48      148      153      161      162 </v>
   <v type="int" >       48      148      158      161      162 </v>
   <v type="int" >       48      148      157      158      162 </v>
   <v type="int" >       24      149      157      157      162 </v>
   <v type="int" >       24      149      156      157      157 </v>
   <v type="int" >       24      150      151      151      154 </v>
   <v type="int" >       24      150      151      151      159 </v>
   <v type="int" >       48      151      154      155      163 </v>
   <v type="int" >       48      151      152      155      163 </v>
   <v type="int" >       48      151      152      160      163 </v>
   <v type="int" >       24      151      151      154      163 </v>
   <v type="int" >       24      151      151      159      163 </v>
   <v type="int" >       48      151      159      160      163 </v>
   <v type="int" >       24      152      152      155      164 </v>
   <v type="int" >       24      152      152      153      164 </v>
   <v type="int" >       48      152      153      161      164 </v>
   <v type="int" >       48      152      155      163      164 </v>
   <v type="int" >       48      152      160      163      164 </v>
   <v type="int" >       48      152      160      161      164 </v>
   <v type="int" >       24      153      161      161      164 </v>
   <v type="int" >       24      153      161      161      162 </v>
   <v type="int" >       12      154      154      155      155 </v>
   <v type="int" >       24      154      155      155      163 </v>
   <v type="int" >       12      155      155      163      163 </v>
   <v type="int" >       24      155      163      163      164 </v>
   <v type="int" >       24      156      157      157      159 </v>
   <v type="int" >       48      157      159      160      162 </v>
   <v type="int" >       48      157      158      160      162 </v>
   <v type="int" >       24      157      157      159      162 </v>
   <v type="int" >       48      158      160      161      161 </v>
   <v type="int" >       24      158      158      161      161 </v>
   <v type="int" >       48      158      160      161      162 </v>
   <v type="int" >       24      159      160      160      163 </v>
   <v type="int" >       24      159      160      160      162 </v>
   <v type="int" >       48      160      163      164      165 </v>
   <v type="int" >       48      160      161      164      165 </v>
   <v type="int" >       48      160      161      161      165 </v>
   <v type="int" >       24      160      160      163      165 </v>
   <v type="int" >       24      160      160      162      165 </v>
   <v type="int" >       48      160      161      162      165 </v>
   <v type="int" >       24      161      161      164      165 </v>
   <v type="int" >       24      161      161      162      165 </v>
   <v type="int" >       48      161      164      165      165 </v>
   <v type="int" >       24      161      161      165      165 </v>
   <v type="int" >       12      163      163      164      164 </v>
   <v type="int" >       24      163      164      164      165 </v>
   <v type="int" >       12      164      164      165      165 </v>
   <v type="int" >       24      164      165      165      165 </v>
   <v type="int" >        6      165      165      165      165 </v>
  </varray>
  <i name="volumeweight">      0.00003392 </i>
 </kpoints>
 <parameters>
  <separator name="general" >
   <i type="string" name="SYSTEM">unknown system</i>
   <i type="logical" name="LCOMPAT"> F  </i>
  </separator>
  <separator name="electronic" >
   <i type="string" name="PREC">accura</i>
   <i name="ENMAX">    520.00000000</i>
   <i name="ENAUG">    291.05200000</i>
   <i name="EDIFF">      0.00005000</i>
   <i type="int" name="IALGO">    68</i>
   <i type="int" name="IWAVPR">    10</i>
   <i type="int" name="NBANDS">    48</i>
   <i type="int" name="NBANDSLOW">    -1</i>
   <i type="int" name="NBANDSHIGH">    -1</i>
   <i name="NELECT">      3.00000000</i>
   <i type="int" name="TURBO">     0</i>
   <i type="int" name="IRESTART">     0</i>
   <i type="int" name="NREBOOT">     0</i>
   <i type="int" name="NMIN">     0</i>
   <i name="EREF">      0.00000000</i>
   <separator name="electronic smearing" >
    <i type="int" name="ISMEAR">    -5</i>
    <i name="SIGMA">      0.05000000</i>
    <i name="KSPACING">      0.50000000</i>
    <i type="logical" name="KGAMMA"> T  </i>
    <i type="logical" name="KBLOWUP"> T  </i>
   </separator>
   <separator name="electronic projectors" >
    <i type="logical" name="LREAL"> F  </i>
    <v name="ROPT">      0.00000000</v>
    <i type="int" name="LMAXPAW">  -100</i>
    <i type="int" name="LMAXMIX">     2</i>
    <i type="logical" name="NLSPLINE"> F  </i>
   </separator>
   <separator name="electronic startup" >
    <i type="int" name="ISTART">     0</i>
    <i type="int" name="ICHARG">     2</i>
    <i type="int" name="INIWAV">     1</i>
   </separator>
   <separator name="electronic spin" >
    <i type="int" name="ISPIN">     2</i>
    <i type="logical" name="LNONCOLLINEAR"> F  </i>
    <v name="MAGMOM">      0.60000000</v>
    <i name="NUPDOWN">     -1.00000000</i>
    <i type="logical" name="LSORBIT"> F  </i>
    <v name="SAXIS">      0.00000000      0.00000000      1.00000000</v>
    <i type="logical" name="LSPIRAL"> F  </i>
    <v name="QSPIRAL">      0.00000000      0.00000000      0.00000000</v>
    <i type="logical" name="LZEROZ"> F  </i>
   </separator>
   <separator name="electronic exchange-correlation" >
    <i type="logical" name="LASPH"> T  </i>
    <i type="logical" name="LMETAGGA"> F  </i>
   </separator>
   <separator name="electronic convergence" >
    <i type="int" name="NELM">   100</i>
    <i type="int" name="NELMDL">    -5</i>
    <i type="int" name="NELMIN">     2</i>
    <i name="ENINI">    520.00000000</i>
    <separator name="electronic convergence detail" >
     <i type="logical" name="LDIAG"> T  </i>
     <i type="logical" name="LSUBROT"> F  </i>
     <i name="WEIMIN">      0.00000000</i>
     <i name="EBREAK">      0.00000026</i>
     <i name="DEPER">      0.30000000</i>
     <i type="int" name="NRMM">     4</i>
     <i name="TIME">      0.40000000</i>
    </separator>
   </separator>
   <separator name="electronic mixer" >
    <i name="AMIX">      0.40000000</i>
    <i name="BMIX">      1.00000000</i>
    <i name="AMIN">      0.10000000</i>
    <i name="AMIX_MAG">      1.60000000</i>
    <i name="BMIX_MAG">      1.00000000</i>
    <separator name="electronic mixer details" >
     <i type="int" name="IMIX">     4</i>
     <i type="logical" name="MIXFIRST"> F  </i>
     <i type="int" name="MAXMIX">   -45</i>
     <i name="WC">    100.00000000</i>
     <i type="int" name="INIMIX">     1</i>
     <i type="int" name="MIXPRE">     1</i>
     <i type="int" name="MREMOVE">     5</i>
    </separator>
   </separator>
   <separator name="electronic dipolcorrection" >
    <i type="logical" name="LDIPOL"> F  </i>
    <i type="logical" name="LMONO"> F  </i>
    <i type="int" name="IDIPOL">     0</i>
    <i name="EPSILON">      1.00000000</i>
    <v name="DIPOL">   -100.00000000   -100.00000000   -100.00000000</v>
    <i name="EFIELD">      0.00000000</i>
   </separator>
  </separator>
  <separator name="grids" >
   <i type="int" name="NGX">    24</i>
   <i type="int" name="NGY">    24</i>
   <i type="int" name="NGZ">    24</i>
   <i type="int" name="NGXF">    48</i>
   <i type="int" name="NGYF">    48</i>
   <i type="int" name="NGZF">    48</i>
   <i type="logical" name="ADDGRID"> F  </i>
  </separator>
  <separator name="ionic" >
   <i type="int" name="NSW">     0</i>
   <i type="int" name="IBRION">    -1</i>
   <i type="int" name="MDALGO">     0</i>
   <i type="int" name="ISIF">     2</i>
   <i name="PSTRESS">      0.00000000</i>
   <i name="EDIFFG">      0.00050000</i>
   <i type="int" name="NFREE">     0</i>
   <i name="POTIM">      0.50000000</i>
   <i name="SMASS">     -3.00000000</i>
   <i name="SCALEE">      1.00000000</i>
  </separator>
  <separator name="ionic md" >
   <i name="TEBEG">      0.00010000</i>
   <i name="TEEND">      0.00010000</i>
   <i type="int" name="NBLOCK">     1</i>
   <i type="int" name="KBLOCK">     1</i>
   <i type="int" name="NPACO">   256</i>
   <i name="APACO">     16.00000000</i>
  </separator>
  <separator name="symmetry" >
   <i type="int" name="ISYM">     2</i>
   <i name="SYMPREC">      0.00001000</i>
  </separator>
  <separator name="dos" >
   <i type="int" name="LORBIT">    11</i>
   <v name="RWIGS">     -1.00000000</v>
   <i type="int" name="NEDOS">   301</i>
   <i name="EMIN">     10.00000000</i>
   <i name="EMAX">    -10.00000000</i>
   <i name="EFERMI">      0.00000000</i>
  </separator>
  <separator name="writing" >
   <i type="int" name="NWRITE">     2</i>
   <i type="logical" name="LWAVE"> F  </i>
   <i type="logical" name="LDOWNSAMPLE"> F  </i>
   <i type="logical" name="LCHARG"> T  </i>
   <i type="logical" name="LPARD"> F  </i>
   <i type="logical" name="LVTOT"> F  </i>
   <i type="logical" name="LVHAR"> F  </i>
   <i type="logical" name="LELF"> F  </i>
   <i type="logical" name="LOPTICS"> F  </i>
   <v name="STM">      0.00000000      0.00000000      0.00000000      0.00000000      0.00000000      0.00000000      0.00000000</v>
  </separator>
  <separator name="performance" >
   <i type="int" name="NPAR">    48</i>
   <i type="int" name="NSIM">     4</i>
   <i type="int" name="NBLK">    -1</i>
   <i type="logical" name="LPLANE"> T  </i>
   <i type="logical" name="LSCALAPACK"> T  </i>
   <i type="logical" name="LSCAAWARE"> T  </i>
   <i type="logical" name="LSCALU"> F  </i>
   <i type="logical" name="LASYNC"> F  </i>
   <i type="logical" name="LORBITALREAL"> F  </i>
  </separator>
  <separator name="miscellaneous" >
   <i type="int" name="IDIOT">     3</i>
   <i type="int" name="PHON_NSTRUCT">    -1</i>
   <i type="logical" name="LMUSIC"> F  </i>
   <v name="POMASS">     26.98100000</v>
   <v name="DARWINR">      0.00000000</v>
   <v name="DARWINV">      1.00000000</v>
   <i type="logical" name="LCORR"> T  </i>
  </separator>
  <i type="logical" name="GGA_COMPAT"> T  </i>
  <i type="logical" name="LBERRY"> F  </i>
  <i type="int" name="ICORELEVEL">     0</i>
  <i type="logical" name="LDAU"> F  </i>
  <i type="int" name="I_CONSTRAINED_M">     0</i>
  <separator name="electronic exchange-correlation" >
   <i type="string" name="GGA">--</i>
   <i type="int" name="VOSKOWN">     0</i>
   <i type="logical" name="LHFCALC"> F  </i>
   <i type="string" name="PRECFOCK"></i>
   <i type="logical" name="LSYMGRAD"> F  </i>
   <i type="logical" name="LHFONE"> F  </i>
   <i type="logical" name="LRHFCALC"> F  </i>
   <i type="logical" name="LTHOMAS"> F  </i>
   <i type="logical" name="LMODELHF"> F  </i>
   <i type="logical" name="LFOCKACE"> F  </i>
   <i name="ENCUT4O">     -1.00000000</i>
   <i type="int" name="EXXOEP">     0</i>
   <i type="int" name="FOURORBIT">     0</i>
   <i name="AEXX">      0.00000000</i>
   <i name="HFALPHA">      0.00000000</i>
   <i name="MCALPHA">      0.00000000</i>
   <i name="ALDAX">      1.00000000</i>
   <i name="AGGAX">      1.00000000</i>
   <i name="ALDAC">      1.00000000</i>
   <i name="AGGAC">      1.00000000</i>
   <i type="int" name="NKREDX">     1</i>
   <i type="int" name="NKREDY">     1</i>
   <i type="int" name="NKREDZ">     1</i>
   <i type="logical" name="SHIFTRED"> F  </i>
   <i type="logical" name="ODDONLY"> F  </i>
   <i type="logical" name="EVENONLY"> F  </i>
   <i type="int" name="LMAXFOCK">     0</i>
   <i type="int" name="NMAXFOCKAE">     0</i>
   <i type="logical" name="LFOCKAEDFT"> F  </i>
   <i name="HFSCREEN">      0.00000000</i>
   <i name="HFSCREENC">      0.00000000</i>
   <i type="int" name="NBANDSGWLOW">     0</i>
  </separator>
  <separator name="vdW DFT" >
   <i type="logical" name="LUSE_VDW"> F  </i>
   <i name="Zab_VDW">     -0.84910000</i>
   <i name="PARAM1">      0.12340000</i>
   <i name="PARAM2">      1.00000000</i>
   <i name="PARAM3">      0.00000000</i>
  </separator>
  <separator name="model GW" >
   <i type="int" name="MODEL_GW">     0</i>
   <i name="MODEL_EPS0">      9.94976379</i>
   <i name="MODEL_ALPHA">      1.00000000</i>
  </separator>
  <separator name="linear response parameters" >
   <i type="logical" name="LEPSILON"> F  </i>
   <i type="logical" name="LRPA"> F  </i>
   <i type="logical" name="LNABLA"> F  </i>
   <i type="logical" name="LVEL"> F  </i>
   <i type="int" name="KINTER">     0</i>
   <i name="CSHIFT">      0.10000000</i>
   <i name="OMEGAMAX">     -1.00000000</i>
   <i name="DEG_THRESHOLD">      0.00200000</i>
   <i name="RTIME">     -0.10000000</i>
   <i name="WPLASMAI">      0.00000000</i>
   <v name="DFIELD">      0.00000000      0.00000000      0.00000000</v>
   <v name="WPLASMA">      0.00000000      0.00000000      0.00000000      0.00000000      0.00000000      0.00000000      0.00000000      0.00000000      0.00000000</v>
  </separator>
  <separator name="orbital magnetization" >
   <i type="logical" name="NUCIND"> F  </i>
   <v name="MAGPOS">      0.00000000      0.00000000      0.00000000</v>
   <i type="logical" name="LNICSALL"> T  </i>
   <i type="logical" name="ORBITALMAG"> F  </i>
   <i type="logical" name="LMAGBLOCH"> F  </i>
   <i type="logical" name="LCHIMAG"> F  </i>
   <i type="logical" name="LGAUGE"> T  </i>
   <i type="int" name="MAGATOM">     0</i>
   <v name="MAGDIPOL">      0.00000000      0.00000000      0.00000000</v>
   <v name="AVECCONST">      0.00000000      0.00000000      0.00000000</v>
  </separator>
  <separator name="response functions" >
   <i type="logical" name="LFINITE_TEMPERATURE"> F  </i>
   <i type="logical" name="LADDER"> F  </i>
   <i type="logical" name="LRPAFORCE"> F  </i>
   <i type="logical" name="LFXC"> F  </i>
   <i type="logical" name="LHARTREE"> T  </i>
   <i type="int" name="IBSE">     0</i>
   <v type="int" name="KPOINT">    -1     0     0     0</v>
   <i type="logical" name="LTCTC"> F  </i>
   <i type="logical" name="LTCTE"> F  </i>
   <i type="logical" name="LTETE"> F  </i>
   <i type="logical" name="LTRIPLET"> F  </i>
   <i type="logical" name="LFXCEPS"> F  </i>
   <i type="logical" name="LFXHEG"> F  </i>
   <i type="int" name="NATURALO">     2</i>
   <i type="logical" name="LHOLEGF"> F  </i>
   <i type="logical" name="L2ORDER"> F  </i>
   <i type="logical" name="LDMP1"> F  </i>
   <i type="logical" name="LMP2LT"> F  </i>
   <i type="logical" name="LSMP2LT"> F  </i>
   <i type="logical" name="LGWLF"> F  </i>
   <i name="ENCUTGW">     -2.00000000</i>
   <i name="ENCUTGWSOFT">     -2.00000000</i>
   <i name="ENCUTLF">     -1.00000000</i>
   <i type="logical" name="LESF_SPLINES"> F  </i>
   <i type="int" name="LMAXMP2">    -1</i>
   <i name="SCISSOR">      0.00000000</i>
   <i type="int" name="NOMEGA">     0</i>
   <i type="int" name="NOMEGAR">     0</i>
   <i type="int" name="NBANDSGW">    -1</i>
   <i type="int" name="NBANDSO">    -1</i>
   <i type="int" name="NBANDSV">    -1</i>
   <i type="int" name="NELM">   100</i>
   <i type="int" name="NELMHF">     1</i>
   <i type="int" name="DIM">     3</i>
   <i type="int" name="IESPILON">     4</i>
   <i type="int" name="ANTIRES">     0</i>
   <i name="OMEGAMAX">    -30.00000000</i>
   <i name="OMEGAMIN">    -30.00000000</i>
   <i name="OMEGATL">   -200.00000000</i>
   <i type="int" name="OMEGAGRID">     0</i>
   <i name="CSHIFT">     -0.10000000</i>
   <i type="logical" name="LSELFENERGY"> F  </i>
   <i type="logical" name="LSPECTRAL"> F  </i>
   <i type="logical" name="LSPECTRALGW"> F  </i>
   <i type="logical" name="LSINGLES"> F  </i>
   <i type="logical" name="LFERMIGW"> F  </i>
   <i type="logical" name="ODDONLYGW"> F  </i>
   <i type="logical" name="EVENONLYGW"> F  </i>
   <i type="int" name="NKREDLFX">     1</i>
   <i type="int" name="NKREDLFY">     1</i>
   <i type="int" name="NKREDLFZ">     1</i>
   <i type="int" name="MAXMEM">  2800</i>
   <i type="int" name="TELESCOPE">     0</i>
   <i type="int" name="NTAUPAR">    -1</i>
   <i type="int" name="NOMEGAPAR">    -1</i>
   <i name="DAMP_NEWTON">      0.80000001</i>
   <i name="LAMBDA">      1.00000000</i>
  </separator>
  <separator name="External order field" >
   <i name="OFIELD_KAPPA">      0.00000000</i>
   <v name="OFIELD_K">      0.00000000      0.00000000      0.00000000</v>
   <i name="OFIELD_Q6_NEAR">      0.00000000</i>
   <i name="OFIELD_Q6_FAR">      0.00000000</i>
   <i name="OFIELD_A">      0.00000000</i>
  </separator>
 </parameters>
 <atominfo>
  <atoms>       1 </atoms>
  <types>       1 </types>
  <array name="atoms" >
   <dimension dim="1">ion</dimension>
   <field type="string">element</field>
   <field type="int">atomtype</field>
   <set>
    <rc><c>Al</c><c>   1</c></rc>
   </set>
  </array>
  <array name="atomtypes" >
   <dimension dim="1">type</dimension>
   <field type="int">atomspertype</field>
   <field type="string">element</field>
   <field>mass</field>
   <field>valence</field>
   <field type="string">pseudopotential</field>
   <set>
    <rc><c>   1</c><c>Al</c><c>     26.98100000</c><c>      3.00000000</c><c>  PAW_PBE Al 04Jan2001                  </c></rc>
   </set>
  </array>
 </atominfo>
 <structure name="initialpos" >
  <crystal>
   <varray name="basis" >
    <v>       0.00000000       2.02400000       2.02400000 </v>
    <v>       2.02400000       0.00000000       2.02400000 </v>
    <v>       2.02400000       2.02400000       0.00000000 </v>
   </varray>
   <i name="volume">     16.58293965 </i>
   <varray name="rec_basis" >
    <v>      -0.24703557       0.24703557       0.24703557 </v>
    <v>       0.24703557      -0.24703557       0.24703557 </v>
    <v>       0.24703557       0.24703557      -0.24703557 </v>
   </varray>
  </crystal>
  <varray name="positions" >
[...]
        <r>  0.1226  0.0466  0.0563  0.0000  0.0000  0.0000  0.0000  0.0000  0.0000 </r>
       </set>
       <set comment="band 3">
        <r>  0.0000  0.0000  0.0000  0.2067  0.0000  0.0000  0.0000  0.0000  0.0000 </r>
       </set>
       <set comment="band 4">
        <r>  0.2777  0.0936  0.0031  0.0000  0.0000  0.0000  0.0000  0.0000  0.0000 </r>
       </set>
       <set comment="band 5">
        <r>  0.0000  0.0000  0.0000  0.1279  0.0000  0.0000  0.0000  0.0000  0.0000 </r>
       </set>
       <set comment="band 6">
        <r>  0.0923  0.2340  0.0016  0.0000  0.0000  0.0000  0.0000  0.0000  0.0000 </r>
       </set>
       <set comment="band 7">
        <r>  0.0152  0.0304  0.0560  0.0000  0.0000  0.0000  0.0000  0.0000  0.0000 </r>
       </set>
       <set comment="band 8">
        <r>  0.0272  0.0847  0.0255  0.0000  0.0000  0.0000  0.0000  0.0000  0.0000 </r>
       </set>
       <set comment="band 9">
        <r>  0.0000  0.0000  0.0000  0.0103  0.0000  0.0000  0.0000  0.0000  0.0000 </r>
       </set>
       <set comment="band 10">
        <r>  0.0084  0.0007  0.0005  0.0000  0.0000  0.0000  0.0000  0.0000  0.0000 </r>
       </set>
       <set comment="band 11">
        <r>  0.0000  0.0000  0.0000  0.1676  0.0000  0.0000  0.0000  0.0000  0.0000 </r>
       </set>
       <set comment="band 12">
        <r>  0.0350  0.0114  0.1253  0.0000  0.0000  0.0000  0.0000  0.0000  0.0000 </r>
       </set>
       <set comment="band 13">
        <r>  0.0275  0.0123  0.0169  0.0000  0.0000  0.0000  0.0000  0.0000  0.0000 </r>
       </set>
       <set comment="band 14">
        <r>  0.0000  0.0000  0.0000  0.0980  0.0000  0.0000  0.0000  0.0000  0.0000 </r>
       </set>
       <set comment="band 15">
        <r>  0.1230  0.0221  0.0185  0.0000  0.0000  0.0000  0.0000  0.0000  0.0000 </r>
       </set>
       <set comment="band 16">
        <r>  0.0000  0.0000  0.0000  0.0182  0.0000  0.0000  0.0000  0.0000  0.0000 </r>
       </set>
       <set comment="band 17">
        <r>  0.0541  0.0118  0.6118  0.0000  0.0000  0.0000  0.0000  0.0000  0.0000 </r>
       </set>
       <set comment="band 18">
        <r>  0.0000  0.0000  0.0000  0.0915  0.0000  0.0000  0.0000  0.0000  0.0000 </r>
       </set>
       <set comment="band 19">
        <r>  4.0626  0.7268  0.0737  0.0000  0.0000  0.0000  0.0000  0.0000  0.0000 </r>
       </set>
       <set comment="band 20">
        <r>  0.0517  0.7713  0.0081  0.0000  0.0000  0.0000  0.0000  0.0000  0.0000 </r>
       </set>
       <set comment="band 21">
        <r>  0.0000  0.0000  0.0000  2.4307  0.0000  0.0000  0.0000  0.0000  0.0000 </r>
       </set>
       <set comment="band 22">
        <r>  5.2675  1.4417  0.0334  0.0000  0.0000  0.0000  0.0000  0.0000  0.0000 </r>
       </set>
       <set comment="band 23">
        <r>  0.0535  0.0394  2.0903  0.0000  0.0000  0.0000  0.0000  0.0000  0.0000 </r>
       </set>
       <set comment="band 24">
        <r>  0.0000  0.0000  0.0000  1.1106  0.0000  0.0000  0.0000  0.0000  0.0000 </r>
       </set>
       <set comment="band 25">
        <r>  0.0942  0.0327  2.0205  0.0000  0.0000  0.0000  0.0000  0.0000  0.0000 </r>
       </set>
       <set comment="band 26">
        <r>  0.5387  1.6266  0.0637  0.0000  0.0000  0.0000  0.0000  0.0000  0.0000 </r>
       </set>
       <set comment="band 27">
        <r>  0.0000  0.0000  0.0000  1.3972  0.0000  0.0000  0.0000  0.0000  0.0000 </r>
       </set>
       <set comment="band 28">
        <r>  0.0000  0.0000  0.0000  0.0592  0.0000  0.0000  0.0000  0.0000  0.0000 </r>
       </set>
       <set comment="band 29">
        <r>  0.1879  0.2083  0.3004  0.0000  0.0000  0.0000  0.0000  0.0000  0.0000 </r>
       </set>
       <set comment="band 30">
        <r>  0.0097  0.3144  0.0928  0.0000  0.0000  0.0000  0.0000  0.0000  0.0000 </r>
       </set>
       <set comment="band 31">
        <r>  0.0000  0.0000  0.0000  0.0347  0.0000  0.0000  0.0000  0.0000  0.0000 </r>
       </set>
       <set comment="band 32">
        <r>  0.3175  0.0013  0.1689  0.0000  0.0000  0.0000  0.0000  0.0000  0.0000 </r>
       </set>
       <set comment="band 33">
        <r>  0.2787  0.1553  0.0053  0.0000  0.0000  0.0000  0.0000  0.0000  0.0000 </r>
       </set>
       <set comment="band 34">
        <r>  0.0000  0.0000  0.0000  0.0010  0.0000  0.0000  0.0000  0.0000  0.0000 </r>
       </set>
       <set comment="band 35">
        <r>  0.1451  0.0063  0.1198  0.0000  0.0000  0.0000  0.0000  0.0000  0.0000 </r>
       </set>
       <set comment="band 36">
        <r>  0.1929  0.1335  0.0699  0.0000  0.0000  0.0000  0.0000  0.0000  0.0000 </r>
       </set>
       <set comment="band 37">
        <r>  0.0000  0.0000  0.0000  0.4709  0.0000  0.0000  0.0000  0.0000  0.0000 </r>
       </set>
       <set comment="band 38">
        <r>  0.0001  0.0165  0.0071  0.0000  0.0000  0.0000  0.0000  0.0000  0.0000 </r>
       </set>
       <set comment="band 39">
        <r>  0.0000  0.0000  0.0000  0.0107  0.0000  0.0000  0.0000  0.0000  0.0000 </r>
       </set>
       <set comment="band 40">
        <r>  0.0079  0.0171  0.0048  0.0000  0.0000  0.0000  0.0000  0.0000  0.0000 </r>
       </set>
       <set comment="band 41">
        <r>  0.0000  0.0000  0.0000  0.0331  0.0000  0.0000  0.0000  0.0000  0.0000 </r>
       </set>
       <set comment="band 42">
        <r>  0.0758  0.0085  0.1051  0.0000  0.0000  0.0000  0.0000  0.0000  0.0000 </r>
       </set>
       <set comment="band 43">
        <r>  0.0529  0.1624  0.0395  0.0000  0.0000  0.0000  0.0000  0.0000  0.0000 </r>
       </set>
       <set comment="band 44">
        <r>  0.0000  0.0000  0.0000  0.0356  0.0000  0.0000  0.0000  0.0000  0.0000 </r>
       </set>
       <set comment="band 45">
        <r>  0.0097  0.0022  0.0034  0.0000  0.0000  0.0000  0.0000  0.0000  0.0000 </r>
       </set>
       <set comment="band 46">
        <r>  0.1103  0.0080  0.0194  0.0000  0.0000  0.0000  0.0000  0.0000  0.0000 </r>
       </set>
       <set comment="band 47">
        <r>  0.0000  0.0000  0.0000  0.0010  0.0000  0.0000  0.0000  0.0000  0.0000 </r>
       </set>
       <set comment="band 48">
        <r>  0.0464  0.0223  0.0106  0.0000  0.0000  0.0000  0.0000  0.0000  0.0000 </r>
       </set>
      </set>
      <set comment="kpoint 164">
       <set comment="band 1">
        <r>  0.0000  0.0000  0.2280  0.0000  0.0000  0.0000  0.0000  0.0000  0.0000 </r>
       </set>
       <set comment="band 2">
        <r>  0.0025  0.0505  0.0000  0.1388  0.0000  0.0000  0.0000  0.0000  0.0000 </r>
       </set>
       <set comment="band 3">
        <r>  0.2212  0.0358  0.0000  0.0260  0.0000  0.0000  0.0000  0.0000  0.0000 </r>
       </set>
       <set comment="band 4">
        <r>  0.2436  0.0549  0.0000  0.0496  0.0000  0.0000  0.0000  0.0000  0.0000 </r>
       </set>
       <set comment="band 5">
        <r>  0.0183  0.0472  0.0000  0.0923  0.0000  0.0000  0.0000  0.0000  0.0000 </r>
       </set>
       <set comment="band 6">
        <r>  0.0408  0.2309  0.0000  0.0247  0.0000  0.0000  0.0000  0.0000  0.0000 </r>
       </set>
       <set comment="band 7">
        <r>  0.0000  0.0000  0.0906  0.0000  0.0000  0.0000  0.0000  0.0000  0.0000 </r>
       </set>
       <set comment="band 8">
        <r>  0.0659  0.0932  0.0000  0.0044  0.0000  0.0000  0.0000  0.0000  0.0000 </r>
       </set>
       <set comment="band 9">
        <r>  0.0000  0.0000  0.0111  0.0000  0.0000  0.0000  0.0000  0.0000  0.0000 </r>
       </set>
       <set comment="band 10">
        <r>  0.0104  0.0000  0.0000  0.0268  0.0000  0.0000  0.0000  0.0000  0.0000 </r>
       </set>
       <set comment="band 11">
        <r>  0.0000  0.0000  0.0130  0.0000  0.0000  0.0000  0.0000  0.0000  0.0000 </r>
       </set>
       <set comment="band 12">
        <r>  0.0361  0.0012  0.0000  0.1637  0.0000  0.0000  0.0000  0.0000  0.0000 </r>
       </set>
       <set comment="band 13">
        <r>  0.0000  0.0000  0.1682  0.0000  0.0000  0.0000  0.0000  0.0000  0.0000 </r>
       </set>
       <set comment="band 14">
        <r>  0.0597  0.0068  0.0000  0.0000  0.0000  0.0000  0.0000  0.0000  0.0000 </r>
       </set>
       <set comment="band 15">
        <r>  0.1085  0.0093  0.0000  0.0829  0.0000  0.0000  0.0000  0.0000  0.0000 </r>
       </set>
       <set comment="band 16">
        <r>  0.0000  0.0000  0.0066  0.0000  0.0000  0.0000  0.0000  0.0000  0.0000 </r>
       </set>
       <set comment="band 17">
        <r>  0.0000  0.0000  0.7140  0.0000  0.0000  0.0000  0.0000  0.0000  0.0000 </r>
       </set>
       <set comment="band 18">
        <r>  0.0068  0.5011  0.0000  0.5590  0.0000  0.0000  0.0000  0.0000  0.0000 </r>
       </set>
       <set comment="band 19">
        <r>  4.0976  1.1135  0.0000  0.1209  0.0000  0.0000  0.0000  0.0000  0.0000 </r>
       </set>
       <set comment="band 20">
        <r>  4.5371  1.0278  0.0000  0.2727  0.0000  0.0000  0.0000  0.0000  0.0000 </r>
       </set>
       <set comment="band 21">
        <r>  0.8257  0.2877  0.0000  1.0199  0.0000  0.0000  0.0000  0.0000  0.0000 </r>
       </set>
       <set comment="band 22">
        <r>  0.2178  0.0702  0.0000  1.5943  0.0000  0.0000  0.0000  0.0000  0.0000 </r>
       </set>
       <set comment="band 23">
        <r>  0.0000  0.0000  0.5653  0.0000  0.0000  0.0000  0.0000  0.0000  0.0000 </r>
       </set>
       <set comment="band 24">
        <r>  0.0000  0.0000  2.8544  0.0000  0.0000  0.0000  0.0000  0.0000  0.0000 </r>
       </set>
       <set comment="band 25">
        <r>  0.0000  0.0000  0.0388  0.0000  0.0000  0.0000  0.0000  0.0000  0.0000 </r>
       </set>
       <set comment="band 26">
        <r>  0.2853  0.8319  0.0000  0.0024  0.0000  0.0000  0.0000  0.0000  0.0000 </r>
       </set>
       <set comment="band 27">
        <r>  0.0000  0.0000  0.7193  0.0000  0.0000  0.0000  0.0000  0.0000  0.0000 </r>
       </set>
       <set comment="band 28">
        <r>  0.0583  0.0150  0.0000  1.5006  0.0000  0.0000  0.0000  0.0000  0.0000 </r>
       </set>
       <set comment="band 29">
        <r>  0.1132  1.3683  0.0000  0.0001  0.0000  0.0000  0.0000  0.0000  0.0000 </r>
       </set>
       <set comment="band 30">
        <r>  0.0000  0.0000  0.4517  0.0000  0.0000  0.0000  0.0000  0.0000  0.0000 </r>
       </set>
       <set comment="band 31">
        <r>  0.0040  0.0810  0.0000  0.0781  0.0000  0.0000  0.0000  0.0000  0.0000 </r>
       </set>
       <set comment="band 32">
        <r>  0.6429  0.0039  0.0000  0.0213  0.0000  0.0000  0.0000  0.0000  0.0000 </r>
       </set>
       <set comment="band 33">
        <r>  0.0239  0.0558  0.0000  0.0527  0.0000  0.0000  0.0000  0.0000  0.0000 </r>
       </set>
       <set comment="band 34">
        <r>  0.2596  0.0935  0.0000  0.0010  0.0000  0.0000  0.0000  0.0000  0.0000 </r>
       </set>
       <set comment="band 35">
        <r>  0.0000  0.0000  0.2126  0.0000  0.0000  0.0000  0.0000  0.0000  0.0000 </r>
       </set>
       <set comment="band 36">
        <r>  0.1960  0.0112  0.0000  0.0077  0.0000  0.0000  0.0000  0.0000  0.0000 </r>
       </set>
       <set comment="band 37">
        <r>  0.0174  0.0060  0.0000  0.4002  0.0000  0.0000  0.0000  0.0000  0.0000 </r>
       </set>
       <set comment="band 38">
        <r>  0.0000  0.0000  0.0365  0.0000  0.0000  0.0000  0.0000  0.0000  0.0000 </r>
       </set>
       <set comment="band 39">
        <r>  0.0058  0.0231  0.0000  0.0162  0.0000  0.0000  0.0000  0.0000  0.0000 </r>
       </set>
       <set comment="band 40">
        <r>  0.0000  0.0000  0.0715  0.0000  0.0000  0.0000  0.0000  0.0000  0.0000 </r>
       </set>
       <set comment="band 41">
        <r>  0.0000  0.0000  0.0953  0.0000  0.0000  0.0000  0.0000  0.0000  0.0000 </r>
       </set>
       <set comment="band 42">
        <r>  0.0170  0.1431  0.0000  0.0065  0.0000  0.0000  0.0000  0.0000  0.0000 </r>
       </set>
       <set comment="band 43">
        <r>  0.0240  0.0272  0.0000  0.0000  0.0000  0.0000  0.0000  0.0000  0.0000 </r>
       </set>
       <set comment="band 44">
        <r>  0.0000  0.0000  0.0133  0.0000  0.0000  0.0000  0.0000  0.0000  0.0000 </r>
       </set>
       <set comment="band 45">
        <r>  0.0053  0.0484  0.0000  0.0078  0.0000  0.0000  0.0000  0.0000  0.0000 </r>
       </set>
       <set comment="band 46">
        <r>  0.0000  0.0000  0.0125  0.0000  0.0000  0.0000  0.0000  0.0000  0.0000 </r>
       </set>
       <set comment="band 47">
        <r>  0.0728  0.0305  0.0000  0.0012  0.0000  0.0000  0.0000  0.0000  0.0000 </r>
       </set>
       <set comment="band 48">
        <r>  0.1109  0.0000  0.0000  0.0442  0.0000  0.0000  0.0000  0.0000  0.0000 </r>
       </set>
      </set>
      <set comment="kpoint 165">
       <set comment="band 1">
        <r>  0.0445  0.0191  0.1676  0.0000  0.0000  0.0000  0.0000  0.0000  0.0000 </r>
       </set>
       <set comment="band 2">
        <r>  0.0000  0.0000  0.0000  0.2185  0.0000  0.0000  0.0000  0.0000  0.0000 </r>
       </set>
       <set comment="band 3">
        <r>  0.0021  0.1156  0.0295  0.0000  0.0000  0.0000  0.0000  0.0000  0.0000 </r>
       </set>
       <set comment="band 4">
        <r>  0.4259  0.0016  0.0276  0.0000  0.0000  0.0000  0.0000  0.0000  0.0000 </r>
       </set>
       <set comment="band 5">
        <r>  0.0000  0.0000  0.0000  0.1096  0.0000  0.0000  0.0000  0.0000  0.0000 </r>
       </set>
       <set comment="band 6">
        <r>  0.0001  0.2396  0.0438  0.0000  0.0000  0.0000  0.0000  0.0000  0.0000 </r>
       </set>
       <set comment="band 7">
        <r>  0.0355  0.1094  0.0378  0.0000  0.0000  0.0000  0.0000  0.0000  0.0000 </r>
       </set>
       <set comment="band 8">
        <r>  0.0845  0.0328  0.0212  0.0000  0.0000  0.0000  0.0000  0.0000  0.0000 </r>
       </set>
       <set comment="band 9">
        <r>  0.0000  0.0000  0.0000  0.0105  0.0000  0.0000  0.0000  0.0000  0.0000 </r>
       </set>
       <set comment="band 10">
        <r>  0.0001  0.0008  0.0092  0.0000  0.0000  0.0000  0.0000  0.0000  0.0000 </r>
       </set>
       <set comment="band 11">
        <r>  0.0618  0.0014  0.1405  0.0000  0.0000  0.0000  0.0000  0.0000  0.0000 </r>
       </set>
       <set comment="band 12">
        <r>  0.0000  0.0000  0.0000  0.0624  0.0000  0.0000  0.0000  0.0000  0.0000 </r>
       </set>
       <set comment="band 13">
        <r>  0.0000  0.0000  0.0000  0.1714  0.0000  0.0000  0.0000  0.0000  0.0000 </r>
       </set>
       <set comment="band 14">
        <r>  0.0030  0.0004  0.0201  0.0000  0.0000  0.0000  0.0000  0.0000  0.0000 </r>
       </set>
       <set comment="band 15">
        <r>  0.1641  0.0005  0.0572  0.0000  0.0000  0.0000  0.0000  0.0000  0.0000 </r>
       </set>
       <set comment="band 16">
        <r>  0.0000  0.0000  0.0000  0.0105  0.0000  0.0000  0.0000  0.0000  0.0000 </r>
       </set>
       <set comment="band 17">
        <r>  0.0892  0.0658  0.7465  0.0000  0.0000  0.0000  0.0000  0.0000  0.0000 </r>
       </set>
       <set comment="band 18">
        <r>  0.0000  0.0000  0.0000  0.8282  0.0000  0.0000  0.0000  0.0000  0.0000 </r>
       </set>
       <set comment="band 19">
        <r>  0.2761  2.5802  0.0914  0.0000  0.0000  0.0000  0.0000  0.0000  0.0000 </r>
       </set>
       <set comment="band 20">
        <r>  9.1513  0.1066  0.0150  0.0000  0.0000  0.0000  0.0000  0.0000  0.0000 </r>
       </set>
       <set comment="band 21">
        <r>  0.0000  0.0000  0.0000  2.0090  0.0000  0.0000  0.0000  0.0000  0.0000 </r>
       </set>
       <set comment="band 22">
        <r>  0.2441  0.0298  1.7028  0.0000  0.0000  0.0000  0.0000  0.0000  0.0000 </r>
       </set>
       <set comment="band 23">
        <r>  0.0544  0.2925  1.5192  0.0000  0.0000  0.0000  0.0000  0.0000  0.0000 </r>
       </set>
       <set comment="band 24">
        <r>  0.0000  0.0000  0.0000  1.3803  0.0000  0.0000  0.0000  0.0000  0.0000 </r>
       </set>
       <set comment="band 25">
        <r>  0.1337  0.3317  0.2376  0.0000  0.0000  0.0000  0.0000  0.0000  0.0000 </r>
       </set>
       <set comment="band 26">
        <r>  0.0000  0.0000  0.0000  0.0104  0.0000  0.0000  0.0000  0.0000  0.0000 </r>
       </set>
       <set comment="band 27">
        <r>  0.0026  0.0669  0.1022  0.0000  0.0000  0.0000  0.0000  0.0000  0.0000 </r>
       </set>
       <set comment="band 28">
        <r>  0.0000  0.0000  0.0000  0.5375  0.0000  0.0000  0.0000  0.0000  0.0000 </r>
       </set>
       <set comment="band 29">
        <r>  0.0689  0.1400  0.7343  0.0000  0.0000  0.0000  0.0000  0.0000  0.0000 </r>
       </set>
       <set comment="band 30">
        <r>  0.0398  1.7501  0.0782  0.0000  0.0000  0.0000  0.0000  0.0000  0.0000 </r>
       </set>
       <set comment="band 31">
        <r>  0.0000  0.0000  0.0000  0.4821  0.0000  0.0000  0.0000  0.0000  0.0000 </r>
       </set>
       <set comment="band 32">
        <r>  0.5851  0.0004  0.1134  0.0000  0.0000  0.0000  0.0000  0.0000  0.0000 </r>
       </set>
       <set comment="band 33">
        <r>  0.1737  0.0687  0.0165  0.0000  0.0000  0.0000  0.0000  0.0000  0.0000 </r>
       </set>
       <set comment="band 34">
        <r>  0.2649  0.0043  0.0366  0.0000  0.0000  0.0000  0.0000  0.0000  0.0000 </r>
       </set>
       <set comment="band 35">
        <r>  0.0000  0.0000  0.0000  0.0839  0.0000  0.0000  0.0000  0.0000  0.0000 </r>
       </set>
       <set comment="band 36">
        <r>  0.1855  0.0153  0.0594  0.0000  0.0000  0.0000  0.0000  0.0000  0.0000 </r>
       </set>
       <set comment="band 37">
        <r>  0.0000  0.0000  0.0000  0.3035  0.0000  0.0000  0.0000  0.0000  0.0000 </r>
       </set>
       <set comment="band 38">
        <r>  0.0117  0.0137  0.1942  0.0000  0.0000  0.0000  0.0000  0.0000  0.0000 </r>
       </set>
       <set comment="band 39">
        <r>  0.0000  0.0000  0.0000  0.0072  0.0000  0.0000  0.0000  0.0000  0.0000 </r>
       </set>
       <set comment="band 40">
        <r>  0.0011  0.1116  0.0006  0.0000  0.0000  0.0000  0.0000  0.0000  0.0000 </r>
       </set>
       <set comment="band 41">
        <r>  0.0050  0.0002  0.0027  0.0000  0.0000  0.0000  0.0000  0.0000  0.0000 </r>
       </set>
       <set comment="band 42">
        <r>  0.0000  0.0000  0.0000  0.0307  0.0000  0.0000  0.0000  0.0000  0.0000 </r>
       </set>
       <set comment="band 43">
        <r>  0.0185  0.0002  0.0779  0.0000  0.0000  0.0000  0.0000  0.0000  0.0000 </r>
       </set>
       <set comment="band 44">
        <r>  0.0000  0.0000  0.0000  0.0126  0.0000  0.0000  0.0000  0.0000  0.0000 </r>
       </set>
       <set comment="band 45">
        <r>  0.0000  0.0000  0.0000  0.0158  0.0000  0.0000  0.0000  0.0000  0.0000 </r>
       </set>
       <set comment="band 46">
        <r>  0.0332  0.0941  0.0004  0.0000  0.0000  0.0000  0.0000  0.0000  0.0000 </r>
       </set>
       <set comment="band 47">
        <r>  0.0373  0.1317  0.0088  0.0000  0.0000  0.0000  0.0000  0.0000  0.0000 </r>
       </set>
       <set comment="band 48">
        <r>  0.1158  0.0297  0.0287  0.0000  0.0000  0.0000  0.0000  0.0000  0.0000 </r>
       </set>
      </set>
     </set>
    </set>
   </array>
  </projected>
 </calculation>
 <structure name="finalpos" >
  <crystal>
   <varray name="basis" >
    <v>       0.00000000       2.02400000       2.02400000 </v>
    <v>       2.02400000       0.00000000       2.02400000 </v>
    <v>       2.02400000       2.02400000       0.00000000 </v>
   </varray>
   <i name="volume">     16.58293965 </i>
   <varray name="rec_basis" >
    <v>      -0.24703557       0.24703557       0.24703557 </v>
    <v>       0.24703557      -0.24703557       0.24703557 </v>
    <v>       0.24703557       0.24703557      -0.24703557 </v>
   </varray>
  </crystal>
  <varray name="positions" >
   <v>       0.00000000       0.00000000       0.00000000 </v>
  </varray>
 </structure>
</modeling>
