 vasp.6.2.1 16May21 (build Aug 15 2022 14:47:30) complex                         
 executed on             LinuxGNU date 2025.12.15  21:34:16
 running on   48 total cores
 distrk:  each k-point on   48 cores,    1 groups
 distr:  one band on NCORE=   1 cores,   48 groups


--------------------------------------------------------------------------------------------------------


 INCAR:
   ALGO = Fast
   EDIFF = 5e-05
   ENCUT = 520.0
   ISMEAR = -5
   ISPIN = 2
   LASPH = True
   LCHARG = True
   LORBIT = 11
   LREAL = False
   LWAVE = False
   MAGMOM = 1*0.6
   NELM = 100
   NSW = 0
   PREC = Accurate
   SIGMA = 0.05

 POTCAR:    PAW_PBE Al 04Jan2001                  
 -----------------------------------------------------------------------------
|                                                                             |
|           W    W    AA    RRRRR   N    N  II  N    N   GGGG   !!!           |
|           W    W   A  A   R    R  NN   N  II  NN   N  G    G  !!!           |
|           W    W  A    A  R    R  N N  N  II  N N  N  G       !!!           |
|           W WW W  AAAAAA  RRRRR   N  N N  II  N  N N  G  GGG   !            |
|           WW  WW  A    A  R   R   N   NN  II  N   NN  G    G                |
|           W    W  A    A  R    R  N    N  II  N    N   GGGG   !!!           |
|                                                                             |
|     For optimal performance we recommend to set                             |
|       NCORE = 2 up to number-of-cores-per-socket                            |
|     NCORE specifies how many cores store one orbital (NPAR=cpu/NCORE).      |
|     This setting can greatly improve the performance of VASP for DFT.       |
|     The default, NCORE=1 might be grossly inefficient on modern             |
|     multi-core architectures or massively parallel machines. Do your        |
|     own testing! More info at https://www.vasp.at/wiki/index.php/NCORE      |
|     Unfortunately you need to use the default for GW and RPA                |
|     calculations (for HF NCORE is supported but not extensively tested      |
|     yet).                                                                   |
|                                                                             |
 -----------------------------------------------------------------------------

 POTCAR:    PAW_PBE Al 04Jan2001                  
   VRHFIN =Al: s2p1                                                                                 
   LEXCH  = PE                                                                                      
   EATOM  =    53.5387 eV,    3.9350 Ry                                                             
                                                                                                    
   TITEL  = PAW_PBE Al 04Jan2001                                                                    
   LULTRA =        F    use ultrasoft PP ?                                                          
   IUNSCR =        1    unscreen: 0-lin 1-nonlin 2-no                                               
   RPACOR =    1.500    partial core radius                                                         
   POMASS =   26.981; ZVAL   =    3.000    mass and valenz                                          
   RCORE  =    1.900    outmost cutoff radius                                                       
   RWIGS  =    2.650; RWIGS  =    1.402    wigner-seitz radius (au A)                               
   ENMAX  =  240.300; ENMIN  =  180.225 eV                                                          
   ICORE  =        2    local potential                                                             
   LCOR   =        T    correct aug charges                                                         
   LPAW   =        T    paw PP                                                                      
   EAUG   =  291.052                                                                                
   DEXC   =    0.000                                                                                
   RMAX   =    1.939    core radius for proj-oper                                                   
   RAUG   =    1.300    factor for augmentation sphere                                              
   RDEP   =    1.966    radius for radial grids                                                     
   RDEPT  =    1.856    core radius for aug-charge                                                  
                                                                                                    
   Atomic configuration                                                                             
    6 entries                                                                                       
     n  l   j            E        occ.                                                              
     1  0  0.50     -1511.1048   2.0000                                                             
     2  0  0.50      -108.1629   2.0000                                                             
     2  1  1.50       -69.6402   6.0000                                                             
     3  0  0.50        -7.7528   2.0000                                                             
     3  1  1.50        -2.7121   1.0000                                                             
     3  2  2.50        -2.7212   0.0000                                                             
   Description                                                                                      
     l       E           TYP  RCUT    TYP  RCUT                                                     
     0     -7.7528455     23  1.900                                                                 
     0     -3.3096929     23  1.900                                                                 
     1     -2.7120682     23  1.900                                                                 
     1     13.6058260     23  1.900                                                                 
     2     -2.7211652      7  1.900                                                                 
  local pseudopotential read in
  partial core-charges read in
  partial kinetic energy density read in
  atomic valenz-charges read in
  non local Contribution for L=           0  read in
    real space projection operators read in
  non local Contribution for L=           0  read in
    real space projection operators read in
  non local Contribution for L=           1  read in
    real space projection operators read in
  non local Contribution for L=           1  read in
    real space projection operators read in
    PAW grid and wavefunctions read in

   number of l-projection  operators is LMAX  =           4
   number of lm-projection operators is LMMAX =           8

  PAW_PBE Al 04Jan2001                  :
 energy of atom  1       EATOM=  -53.5387
 kinetic energy error for atom=    0.0002 (will be added to EATOM!!)


 POSCAR: # Generated by Masgent for k-point conve
  positions in direct lattice
  No initial velocities read in
 exchange correlation table for  LEXCH =        8
   RHO(1)=    0.500       N(1)  =     2000
   RHO(2)=  100.500       N(2)  =     4000

 VTST: version 4.2, (08/11/21)

 CHAIN: initializing optimizer
 
 OPT: Using VASP Dynamics algorithm
 CHAIN: Read ICHAIN            0

 POSCAR: # Generated by Masgent for k-point conve
  positions in direct lattice
  No initial velocities read in



--------------------------------------------------------------------------------------------------------


 ion  position               nearest neighbor table
   1  0.000  0.000  0.000-

  LATTYP: Found a face centered cubic cell.
 ALAT       =     4.0480000000
  
  Lattice vectors:
  
 A1 = (   0.0000000000,   2.0240000000,   2.0240000000)
 A2 = (   2.0240000000,   0.0000000000,   2.0240000000)
 A3 = (   2.0240000000,   2.0240000000,   0.0000000000)


Analysis of symmetry for initial positions (statically):
=====================================================================
 Subroutine PRICEL returns:
 Original cell was already a primitive cell.
 

 Routine SETGRP: Setting up the symmetry group for a 
 face centered cubic supercell.


 Subroutine GETGRP returns: Found 48 space group operations
 (whereof 48 operations were pure point group operations)
 out of a pool of 48 trial point group operations.


The static configuration has the point symmetry O_h .


Analysis of symmetry for dynamics (positions and initial velocities):
=====================================================================
 Subroutine PRICEL returns:
 Original cell was already a primitive cell.
 

 Routine SETGRP: Setting up the symmetry group for a 
 face centered cubic supercell.


 Subroutine GETGRP returns: Found 48 space group operations
 (whereof 48 operations were pure point group operations)
 out of a pool of 48 trial point group operations.


The dynamic configuration has the point symmetry O_h .


Analysis of structural, dynamic, and magnetic symmetry:
=====================================================================
 Subroutine PRICEL returns:
 Original cell was already a primitive cell.
 

 Routine SETGRP: Setting up the symmetry group for a 
 face centered cubic supercell.


 Subroutine GETGRP returns: Found 48 space group operations
 (whereof 48 operations were pure point group operations)
 out of a pool of 48 trial point group operations.


The overall configuration has the point symmetry O_h .


 Subroutine INISYM returns: Found 48 space group operations
 (whereof 48 operations are pure point group operations),
 and found     1 'primitive' translations


----------------------------------------------------------------------------------------

                                     Primitive cell                                     

  volume of cell :      16.5829

  direct lattice vectors                    reciprocal lattice vectors
     0.000000000  2.024000000  2.024000000    -0.247035573  0.247035573  0.247035573
     2.024000000  0.000000000  2.024000000     0.247035573 -0.247035573  0.247035573
     2.024000000  2.024000000  0.000000000     0.247035573  0.247035573 -0.247035573

  length of vectors
     2.862368250  2.862368250  2.862368250     0.427878164  0.427878164  0.427878164

  position of ions in fractional coordinates (direct lattice)
     0.000000000  0.000000000  0.000000000

  ion indices of the primitive-cell ions
   primitive index   ion index
                 1           1

----------------------------------------------------------------------------------------



 KPOINTS: # Generated by Masgent for k-point conve

Automatic generation of k-mesh.
 Grid dimensions read from file:
 generate k-points for:   20   20   20

 Generating k-lattice:

  Cartesian coordinates                     Fractional coordinates (reciprocal lattice)
    -0.012351779  0.012351779  0.012351779     0.050000000  0.000000000  0.000000000
     0.012351779 -0.012351779  0.012351779     0.000000000  0.050000000  0.000000000
     0.012351779  0.012351779 -0.012351779     0.000000000  0.000000000  0.050000000

  Length of vectors
     0.021393908  0.021393908  0.021393908

  Shift w.r.t. Gamma in fractional coordinates (k-lattice)
     0.000000000  0.000000000  0.000000000

 TETIRR: Found   1093 inequivalent tetrahedra from    48000
 
 Subroutine IBZKPT returns following result:
 ===========================================
 
 Found    256 irreducible k-points:
 
 Following reciprocal coordinates:
            Coordinates               Weight
  0.000000  0.000000  0.000000      1.000000
  0.050000  0.000000  0.000000      8.000000
  0.100000  0.000000  0.000000      8.000000
  0.150000  0.000000  0.000000      8.000000
  0.200000  0.000000  0.000000      8.000000
  0.250000  0.000000  0.000000      8.000000
  0.300000  0.000000  0.000000      8.000000
  0.350000  0.000000  0.000000      8.000000
  0.400000  0.000000  0.000000      8.000000
  0.450000  0.000000  0.000000      8.000000
  0.500000  0.000000  0.000000      4.000000
  0.050000  0.050000  0.000000      6.000000
  0.100000  0.050000  0.000000     24.000000
  0.150000  0.050000  0.000000     24.000000
  0.200000  0.050000  0.000000     24.000000
  0.250000  0.050000  0.000000     24.000000
  0.300000  0.050000  0.000000     24.000000
  0.350000  0.050000  0.000000     24.000000
  0.400000  0.050000  0.000000     24.000000
  0.450000  0.050000  0.000000     24.000000
  0.500000  0.050000  0.000000     24.000000
 -0.450000  0.050000  0.000000     24.000000
 -0.400000  0.050000  0.000000     24.000000
 -0.350000  0.050000  0.000000     24.000000
 -0.300000  0.050000  0.000000     24.000000
 -0.250000  0.050000  0.000000     24.000000
 -0.200000  0.050000  0.000000     24.000000
 -0.150000  0.050000  0.000000     24.000000
 -0.100000  0.050000  0.000000     24.000000
 -0.050000  0.050000  0.000000     12.000000
  0.100000  0.100000  0.000000      6.000000
  0.150000  0.100000  0.000000     24.000000
  0.200000  0.100000  0.000000     24.000000
  0.250000  0.100000  0.000000     24.000000
  0.300000  0.100000  0.000000     24.000000
  0.350000  0.100000  0.000000     24.000000
  0.400000  0.100000  0.000000     24.000000
  0.450000  0.100000  0.000000     24.000000
  0.500000  0.100000  0.000000     24.000000
 -0.450000  0.100000  0.000000     24.000000
 -0.400000  0.100000  0.000000     24.000000
 -0.350000  0.100000  0.000000     24.000000
 -0.300000  0.100000  0.000000     24.000000
 -0.250000  0.100000  0.000000     24.000000
 -0.200000  0.100000  0.000000     24.000000
 -0.150000  0.100000  0.000000     24.000000
 -0.100000  0.100000  0.000000     12.000000
  0.150000  0.150000  0.000000      6.000000
  0.200000  0.150000  0.000000     24.000000
  0.250000  0.150000  0.000000     24.000000
  0.300000  0.150000  0.000000     24.000000
  0.350000  0.150000  0.000000     24.000000
  0.400000  0.150000  0.000000     24.000000
  0.450000  0.150000  0.000000     24.000000
  0.500000  0.150000  0.000000     24.000000
 -0.450000  0.150000  0.000000     24.000000
 -0.400000  0.150000  0.000000     24.000000
 -0.350000  0.150000  0.000000     24.000000
 -0.300000  0.150000  0.000000     24.000000
 -0.250000  0.150000  0.000000     24.000000
 -0.200000  0.150000  0.000000     24.000000
 -0.150000  0.150000  0.000000     12.000000
  0.200000  0.200000  0.000000      6.000000
  0.250000  0.200000  0.000000     24.000000
  0.300000  0.200000  0.000000     24.000000
  0.350000  0.200000  0.000000     24.000000
  0.400000  0.200000  0.000000     24.000000
  0.450000  0.200000  0.000000     24.000000
  0.500000  0.200000  0.000000     24.000000
 -0.450000  0.200000  0.000000     24.000000
 -0.400000  0.200000  0.000000     24.000000
 -0.350000  0.200000  0.000000     24.000000
 -0.300000  0.200000  0.000000     24.000000
 -0.250000  0.200000  0.000000     24.000000
 -0.200000  0.200000  0.000000     12.000000
  0.250000  0.250000  0.000000      6.000000
  0.300000  0.250000  0.000000     24.000000
  0.350000  0.250000  0.000000     24.000000
  0.400000  0.250000  0.000000     24.000000
  0.450000  0.250000  0.000000     24.000000
  0.500000  0.250000  0.000000     24.000000
 -0.450000  0.250000  0.000000     24.000000
 -0.400000  0.250000  0.000000     24.000000
 -0.350000  0.250000  0.000000     24.000000
 -0.300000  0.250000  0.000000     24.000000
 -0.250000  0.250000  0.000000     12.000000
  0.300000  0.300000  0.000000      6.000000
  0.350000  0.300000  0.000000     24.000000
  0.400000  0.300000  0.000000     24.000000
  0.450000  0.300000  0.000000     24.000000
  0.500000  0.300000  0.000000     24.000000
 -0.450000  0.300000  0.000000     24.000000
 -0.400000  0.300000  0.000000     24.000000
 -0.350000  0.300000  0.000000     24.000000
 -0.300000  0.300000  0.000000     12.000000
  0.350000  0.350000  0.000000      6.000000
  0.400000  0.350000  0.000000     24.000000
  0.450000  0.350000  0.000000     24.000000
  0.500000  0.350000  0.000000     24.000000
 -0.450000  0.350000  0.000000     24.000000
 -0.400000  0.350000  0.000000     24.000000
 -0.350000  0.350000  0.000000     12.000000
  0.400000  0.400000  0.000000      6.000000
  0.450000  0.400000  0.000000     24.000000
  0.500000  0.400000  0.000000     24.000000
 -0.450000  0.400000  0.000000     24.000000
 -0.400000  0.400000  0.000000     12.000000
  0.450000  0.450000  0.000000      6.000000
  0.500000  0.450000  0.000000     24.000000
 -0.450000  0.450000  0.000000     12.000000
  0.500000  0.500000  0.000000      3.000000
  0.150000  0.100000  0.050000     24.000000
  0.200000  0.100000  0.050000     48.000000
  0.250000  0.100000  0.050000     48.000000
  0.300000  0.100000  0.050000     48.000000
  0.350000  0.100000  0.050000     48.000000
  0.400000  0.100000  0.050000     48.000000
  0.450000  0.100000  0.050000     48.000000
  0.500000  0.100000  0.050000     48.000000
 -0.450000  0.100000  0.050000     24.000000
  0.200000  0.150000  0.050000     24.000000
  0.250000  0.150000  0.050000     48.000000
  0.300000  0.150000  0.050000     48.000000
  0.350000  0.150000  0.050000     48.000000
  0.400000  0.150000  0.050000     48.000000
  0.450000  0.150000  0.050000     48.000000
  0.500000  0.150000  0.050000     48.000000
 -0.450000  0.150000  0.050000     48.000000
 -0.400000  0.150000  0.050000     48.000000
 -0.350000  0.150000  0.050000     48.000000
 -0.300000  0.150000  0.050000     48.000000
 -0.250000  0.150000  0.050000     48.000000
 -0.200000  0.150000  0.050000     48.000000
 -0.150000  0.150000  0.050000     48.000000
 -0.100000  0.150000  0.050000     24.000000
  0.250000  0.200000  0.050000     24.000000
  0.300000  0.200000  0.050000     48.000000
  0.350000  0.200000  0.050000     48.000000
  0.400000  0.200000  0.050000     48.000000
  0.450000  0.200000  0.050000     48.000000
  0.500000  0.200000  0.050000     48.000000
 -0.450000  0.200000  0.050000     48.000000
 -0.400000  0.200000  0.050000     48.000000
 -0.350000  0.200000  0.050000     48.000000
 -0.300000  0.200000  0.050000     48.000000
 -0.250000  0.200000  0.050000     48.000000
 -0.200000  0.200000  0.050000     48.000000
 -0.150000  0.200000  0.050000     24.000000
  0.300000  0.250000  0.050000     24.000000
  0.350000  0.250000  0.050000     48.000000
  0.400000  0.250000  0.050000     48.000000
  0.450000  0.250000  0.050000     48.000000
  0.500000  0.250000  0.050000     48.000000
 -0.450000  0.250000  0.050000     48.000000
 -0.400000  0.250000  0.050000     48.000000
 -0.350000  0.250000  0.050000     48.000000
 -0.300000  0.250000  0.050000     48.000000
 -0.250000  0.250000  0.050000     48.000000
 -0.200000  0.250000  0.050000     24.000000
  0.350000  0.300000  0.050000     24.000000
  0.400000  0.300000  0.050000     48.000000
  0.450000  0.300000  0.050000     48.000000
  0.500000  0.300000  0.050000     48.000000
 -0.450000  0.300000  0.050000     48.000000
 -0.400000  0.300000  0.050000     48.000000
 -0.350000  0.300000  0.050000     48.000000
 -0.300000  0.300000  0.050000     48.000000
 -0.250000  0.300000  0.050000     24.000000
  0.400000  0.350000  0.050000     24.000000
  0.450000  0.350000  0.050000     48.000000
  0.500000  0.350000  0.050000     48.000000
 -0.450000  0.350000  0.050000     48.000000
 -0.400000  0.350000  0.050000     48.000000
 -0.350000  0.350000  0.050000     48.000000
 -0.300000  0.350000  0.050000     24.000000
  0.450000  0.400000  0.050000     24.000000
  0.500000  0.400000  0.050000     48.000000
 -0.450000  0.400000  0.050000     48.000000
 -0.400000  0.400000  0.050000     48.000000
 -0.350000  0.400000  0.050000     24.000000
  0.500000  0.450000  0.050000     24.000000
 -0.450000  0.450000  0.050000     48.000000
 -0.400000  0.450000  0.050000     24.000000
 -0.450000  0.500000  0.050000     12.000000
  0.300000  0.200000  0.100000     24.000000
  0.350000  0.200000  0.100000     48.000000
  0.400000  0.200000  0.100000     48.000000
  0.450000  0.200000  0.100000     48.000000
  0.500000  0.200000  0.100000     48.000000
 -0.450000  0.200000  0.100000     48.000000
 -0.400000  0.200000  0.100000     24.000000
  0.350000  0.250000  0.100000     24.000000
  0.400000  0.250000  0.100000     48.000000
  0.450000  0.250000  0.100000     48.000000
  0.500000  0.250000  0.100000     48.000000
 -0.450000  0.250000  0.100000     48.000000
 -0.400000  0.250000  0.100000     48.000000
 -0.350000  0.250000  0.100000     48.000000
 -0.300000  0.250000  0.100000     48.000000
 -0.250000  0.250000  0.100000     48.000000
 -0.200000  0.250000  0.100000     48.000000
 -0.150000  0.250000  0.100000     24.000000
  0.400000  0.300000  0.100000     24.000000
  0.450000  0.300000  0.100000     48.000000
  0.500000  0.300000  0.100000     48.000000
 -0.450000  0.300000  0.100000     48.000000
 -0.400000  0.300000  0.100000     48.000000
 -0.350000  0.300000  0.100000     48.000000
 -0.300000  0.300000  0.100000     48.000000
 -0.250000  0.300000  0.100000     48.000000
 -0.200000  0.300000  0.100000     24.000000
  0.450000  0.350000  0.100000     24.000000
  0.500000  0.350000  0.100000     48.000000
 -0.450000  0.350000  0.100000     48.000000
 -0.400000  0.350000  0.100000     48.000000
 -0.350000  0.350000  0.100000     48.000000
 -0.300000  0.350000  0.100000     48.000000
 -0.250000  0.350000  0.100000     24.000000
  0.500000  0.400000  0.100000     24.000000
 -0.450000  0.400000  0.100000     48.000000
 -0.400000  0.400000  0.100000     48.000000
 -0.350000  0.400000  0.100000     48.000000
 -0.300000  0.400000  0.100000     24.000000
 -0.450000  0.450000  0.100000     24.000000
 -0.400000  0.450000  0.100000     48.000000
 -0.350000  0.450000  0.100000     24.000000
 -0.400000  0.500000  0.100000     12.000000
  0.450000  0.300000  0.150000     24.000000
  0.500000  0.300000  0.150000     48.000000
 -0.450000  0.300000  0.150000     48.000000
 -0.400000  0.300000  0.150000     48.000000
 -0.350000  0.300000  0.150000     24.000000
  0.500000  0.350000  0.150000     24.000000
 -0.450000  0.350000  0.150000     48.000000
 -0.400000  0.350000  0.150000     48.000000
 -0.350000  0.350000  0.150000     48.000000
 -0.300000  0.350000  0.150000     48.000000
 -0.250000  0.350000  0.150000     48.000000
 -0.200000  0.350000  0.150000     24.000000
 -0.450000  0.400000  0.150000     24.000000
 -0.400000  0.400000  0.150000     48.000000
 -0.350000  0.400000  0.150000     48.000000
 -0.300000  0.400000  0.150000     48.000000
 -0.250000  0.400000  0.150000     24.000000
 -0.400000  0.450000  0.150000     24.000000
 -0.350000  0.450000  0.150000     48.000000
 -0.300000  0.450000  0.150000     24.000000
 -0.350000  0.500000  0.150000     12.000000
 -0.400000  0.400000  0.200000     24.000000
 -0.350000  0.400000  0.200000     48.000000
 -0.300000  0.400000  0.200000     24.000000
 -0.350000  0.450000  0.200000     24.000000
 -0.300000  0.450000  0.200000     48.000000
 -0.250000  0.450000  0.200000     24.000000
 -0.300000  0.500000  0.200000     12.000000
 -0.250000  0.500000  0.250000      6.000000
 
 Following cartesian coordinates:
            Coordinates               Weight
  0.000000  0.000000  0.000000      1.000000
 -0.012352  0.012352  0.012352      8.000000
 -0.024704  0.024704  0.024704      8.000000
 -0.037055  0.037055  0.037055      8.000000
 -0.049407  0.049407  0.049407      8.000000
 -0.061759  0.061759  0.061759      8.000000
 -0.074111  0.074111  0.074111      8.000000
 -0.086462  0.086462  0.086462      8.000000
 -0.098814  0.098814  0.098814      8.000000
 -0.111166  0.111166  0.111166      8.000000
 -0.123518  0.123518  0.123518      4.000000
  0.000000  0.000000  0.024704      6.000000
 -0.012352  0.012352  0.037055     24.000000
 -0.024704  0.024704  0.049407     24.000000
 -0.037055  0.037055  0.061759     24.000000
 -0.049407  0.049407  0.074111     24.000000
 -0.061759  0.061759  0.086462     24.000000
 -0.074111  0.074111  0.098814     24.000000
 -0.086462  0.086462  0.111166     24.000000
 -0.098814  0.098814  0.123518     24.000000
 -0.111166  0.111166  0.135870     24.000000
  0.123518 -0.123518 -0.098814     24.000000
  0.111166 -0.111166 -0.086462     24.000000
  0.098814 -0.098814 -0.074111     24.000000
  0.086462 -0.086462 -0.061759     24.000000
  0.074111 -0.074111 -0.049407     24.000000
  0.061759 -0.061759 -0.037055     24.000000
  0.049407 -0.049407 -0.024704     24.000000
  0.037055 -0.037055 -0.012352     24.000000
  0.024704 -0.024704  0.000000     12.000000
  0.000000  0.000000  0.049407      6.000000
 -0.012352  0.012352  0.061759     24.000000
 -0.024704  0.024704  0.074111     24.000000
 -0.037055  0.037055  0.086462     24.000000
 -0.049407  0.049407  0.098814     24.000000
 -0.061759  0.061759  0.111166     24.000000
 -0.074111  0.074111  0.123518     24.000000
 -0.086462  0.086462  0.135870     24.000000
 -0.098814  0.098814  0.148221     24.000000
  0.135870 -0.135870 -0.086462     24.000000
  0.123518 -0.123518 -0.074111     24.000000
  0.111166 -0.111166 -0.061759     24.000000
  0.098814 -0.098814 -0.049407     24.000000
  0.086462 -0.086462 -0.037055     24.000000
  0.074111 -0.074111 -0.024704     24.000000
  0.061759 -0.061759 -0.012352     24.000000
  0.049407 -0.049407  0.000000     12.000000
  0.000000  0.000000  0.074111      6.000000
 -0.012352  0.012352  0.086462     24.000000
 -0.024704  0.024704  0.098814     24.000000
 -0.037055  0.037055  0.111166     24.000000
 -0.049407  0.049407  0.123518     24.000000
 -0.061759  0.061759  0.135870     24.000000
 -0.074111  0.074111  0.148221     24.000000
 -0.086462  0.086462  0.160573     24.000000
  0.148221 -0.148221 -0.074111     24.000000
  0.135870 -0.135870 -0.061759     24.000000
  0.123518 -0.123518 -0.049407     24.000000
  0.111166 -0.111166 -0.037055     24.000000
  0.098814 -0.098814 -0.024704     24.000000
  0.086462 -0.086462 -0.012352     24.000000
  0.074111 -0.074111  0.000000     12.000000
  0.000000  0.000000  0.098814      6.000000
 -0.012352  0.012352  0.111166     24.000000
 -0.024704  0.024704  0.123518     24.000000
 -0.037055  0.037055  0.135870     24.000000
 -0.049407  0.049407  0.148221     24.000000
 -0.061759  0.061759  0.160573     24.000000
 -0.074111  0.074111  0.172925     24.000000
  0.160573 -0.160573 -0.061759     24.000000
  0.148221 -0.148221 -0.049407     24.000000
  0.135870 -0.135870 -0.037055     24.000000
  0.123518 -0.123518 -0.024704     24.000000
  0.111166 -0.111166 -0.012352     24.000000
  0.098814 -0.098814  0.000000     12.000000
  0.000000  0.000000  0.123518      6.000000
 -0.012352  0.012352  0.135870     24.000000
 -0.024704  0.024704  0.148221     24.000000
 -0.037055  0.037055  0.160573     24.000000
 -0.049407  0.049407  0.172925     24.000000
 -0.061759  0.061759  0.185277     24.000000
  0.172925 -0.172925 -0.049407     24.000000
  0.160573 -0.160573 -0.037055     24.000000
  0.148221 -0.148221 -0.024704     24.000000
  0.135870 -0.135870 -0.012352     24.000000
  0.123518 -0.123518  0.000000     12.000000
  0.000000  0.000000  0.148221      6.000000
 -0.012352  0.012352  0.160573     24.000000
 -0.024704  0.024704  0.172925     24.000000
 -0.037055  0.037055  0.185277     24.000000
 -0.049407  0.049407  0.197628     24.000000
  0.185277 -0.185277 -0.037055     24.000000
  0.172925 -0.172925 -0.024704     24.000000
  0.160573 -0.160573 -0.012352     24.000000
  0.148221 -0.148221  0.000000     12.000000
  0.000000  0.000000  0.172925      6.000000
 -0.012352  0.012352  0.185277     24.000000
 -0.024704  0.024704  0.197628     24.000000
 -0.037055  0.037055  0.209980     24.000000
  0.197628 -0.197628 -0.024704     24.000000
  0.185277 -0.185277 -0.012352     24.000000
  0.172925 -0.172925  0.000000     12.000000
  0.000000  0.000000  0.197628      6.000000
 -0.012352  0.012352  0.209980     24.000000
 -0.024704  0.024704  0.222332     24.000000
  0.209980 -0.209980 -0.012352     24.000000
  0.197628 -0.197628  0.000000     12.000000
  0.000000  0.000000  0.222332      6.000000
 -0.012352  0.012352  0.234684     24.000000
  0.222332 -0.222332  0.000000     12.000000
  0.000000  0.000000  0.247036      3.000000
  0.000000  0.024704  0.049407     24.000000
 -0.012352  0.037055  0.061759     48.000000
 -0.024704  0.049407  0.074111     48.000000
 -0.037055  0.061759  0.086462     48.000000
 -0.049407  0.074111  0.098814     48.000000
 -0.061759  0.086462  0.111166     48.000000
 -0.074111  0.098814  0.123518     48.000000
 -0.086462  0.111166  0.135870     48.000000
  0.148221 -0.123518 -0.098814     24.000000
 -0.000000  0.024704  0.074111     24.000000
 -0.012352  0.037055  0.086462     48.000000
 -0.024704  0.049407  0.098814     48.000000
 -0.037055  0.061759  0.111166     48.000000
 -0.049407  0.074111  0.123518     48.000000
 -0.061759  0.086462  0.135870     48.000000
 -0.074111  0.098814  0.148221     48.000000
  0.160573 -0.135870 -0.086462     48.000000
  0.148221 -0.123518 -0.074111     48.000000
  0.135870 -0.111166 -0.061759     48.000000
  0.123518 -0.098814 -0.049407     48.000000
  0.111166 -0.086462 -0.037055     48.000000
  0.098814 -0.074111 -0.024704     48.000000
  0.086462 -0.061759 -0.012352     48.000000
  0.074111 -0.049407  0.000000     24.000000
  0.000000  0.024704  0.098814     24.000000
 -0.012352  0.037055  0.111166     48.000000
 -0.024704  0.049407  0.123518     48.000000
 -0.037055  0.061759  0.135870     48.000000
 -0.049407  0.074111  0.148221     48.000000
 -0.061759  0.086462  0.160573     48.000000
  0.172925 -0.148221 -0.074111     48.000000
  0.160573 -0.135870 -0.061759     48.000000
  0.148221 -0.123518 -0.049407     48.000000
  0.135870 -0.111166 -0.037055     48.000000
  0.123518 -0.098814 -0.024704     48.000000
  0.111166 -0.086462 -0.012352     48.000000
  0.098814 -0.074111  0.000000     24.000000
  0.000000  0.024704  0.123518     24.000000
 -0.012352  0.037055  0.135870     48.000000
 -0.024704  0.049407  0.148221     48.000000
 -0.037055  0.061759  0.160573     48.000000
 -0.049407  0.074111  0.172925     48.000000
  0.185277 -0.160573 -0.061759     48.000000
  0.172925 -0.148221 -0.049407     48.000000
  0.160573 -0.135870 -0.037055     48.000000
  0.148221 -0.123518 -0.024704     48.000000
  0.135870 -0.111166 -0.012352     48.000000
  0.123518 -0.098814  0.000000     24.000000
 -0.000000  0.024704  0.148221     24.000000
 -0.012352  0.037055  0.160573     48.000000
 -0.024704  0.049407  0.172925     48.000000
 -0.037055  0.061759  0.185277     48.000000
  0.197628 -0.172925 -0.049407     48.000000
  0.185277 -0.160573 -0.037055     48.000000
  0.172925 -0.148221 -0.024704     48.000000
  0.160573 -0.135870 -0.012352     48.000000
  0.148221 -0.123518  0.000000     24.000000
  0.000000  0.024704  0.172925     24.000000
 -0.012352  0.037055  0.185277     48.000000
 -0.024704  0.049407  0.197628     48.000000
  0.209980 -0.185277 -0.037055     48.000000
  0.197628 -0.172925 -0.024704     48.000000
  0.185277 -0.160573 -0.012352     48.000000
  0.172925 -0.148221  0.000000     24.000000
 -0.000000  0.024704  0.197628     24.000000
 -0.012352  0.037055  0.209980     48.000000
  0.222332 -0.197628 -0.024704     48.000000
  0.209980 -0.185277 -0.012352     48.000000
  0.197628 -0.172925  0.000000     24.000000
  0.000000  0.024704  0.222332     24.000000
  0.234684 -0.209980 -0.012352     48.000000
  0.222332 -0.197628  0.000000     24.000000
  0.247036 -0.222332  0.000000     12.000000
  0.000000  0.049407  0.098814     24.000000
 -0.012352  0.061759  0.111166     48.000000
 -0.024704  0.074111  0.123518     48.000000
 -0.037055  0.086462  0.135870     48.000000
 -0.049407  0.098814  0.148221     48.000000
  0.185277 -0.135870 -0.086462     48.000000
  0.172925 -0.123518 -0.074111     24.000000
  0.000000  0.049407  0.123518     24.000000
 -0.012352  0.061759  0.135870     48.000000
 -0.024704  0.074111  0.148221     48.000000
 -0.037055  0.086462  0.160573     48.000000
  0.197628 -0.148221 -0.074111     48.000000
  0.185277 -0.135870 -0.061759     48.000000
  0.172925 -0.123518 -0.049407     48.000000
  0.160573 -0.111166 -0.037055     48.000000
  0.148221 -0.098814 -0.024704     48.000000
  0.135870 -0.086462 -0.012352     48.000000
  0.123518 -0.074111  0.000000     24.000000
  0.000000  0.049407  0.148221     24.000000
 -0.012352  0.061759  0.160573     48.000000
 -0.024704  0.074111  0.172925     48.000000
  0.209980 -0.160573 -0.061759     48.000000
  0.197628 -0.148221 -0.049407     48.000000
  0.185277 -0.135870 -0.037055     48.000000
  0.172925 -0.123518 -0.024704     48.000000
  0.160573 -0.111166 -0.012352     48.000000
  0.148221 -0.098814 -0.000000     24.000000
  0.000000  0.049407  0.172925     24.000000
 -0.012352  0.061759  0.185277     48.000000
  0.222332 -0.172925 -0.049407     48.000000
  0.209980 -0.160573 -0.037055     48.000000
  0.197628 -0.148221 -0.024704     48.000000
  0.185277 -0.135870 -0.012352     48.000000
  0.172925 -0.123518  0.000000     24.000000
  0.000000  0.049407  0.197628     24.000000
  0.234684 -0.185277 -0.037055     48.000000
  0.222332 -0.172925 -0.024704     48.000000
  0.209980 -0.160573 -0.012352     48.000000
  0.197628 -0.148221  0.000000     24.000000
  0.247036 -0.197628 -0.024704     24.000000
  0.234684 -0.185277 -0.012352     48.000000
  0.222332 -0.172925  0.000000     24.000000
  0.247036 -0.197628  0.000000     12.000000
 -0.000000  0.074111  0.148221     24.000000
 -0.012352  0.086462  0.160573     48.000000
  0.222332 -0.148221 -0.074111     48.000000
  0.209980 -0.135870 -0.061759     48.000000
  0.197628 -0.123518 -0.049407     24.000000
  0.000000  0.074111  0.172925     24.000000
  0.234684 -0.160573 -0.061759     48.000000
  0.222332 -0.148221 -0.049407     48.000000
  0.209980 -0.135870 -0.037055     48.000000
  0.197628 -0.123518 -0.024704     48.000000
  0.185277 -0.111166 -0.012352     48.000000
  0.172925 -0.098814  0.000000     24.000000
  0.247036 -0.172925 -0.049407     24.000000
  0.234684 -0.160573 -0.037055     48.000000
  0.222332 -0.148221 -0.024704     48.000000
  0.209980 -0.135870 -0.012352     48.000000
  0.197628 -0.123518  0.000000     24.000000
  0.247036 -0.172925 -0.024704     24.000000
  0.234684 -0.160573 -0.012352     48.000000
  0.222332 -0.148221  0.000000     24.000000
  0.247036 -0.172925  0.000000     12.000000
  0.247036 -0.148221 -0.049407     24.000000
  0.234684 -0.135870 -0.037055     48.000000
  0.222332 -0.123518 -0.024704     24.000000
  0.247036 -0.148221 -0.024704     24.000000
  0.234684 -0.135870 -0.012352     48.000000
  0.222332 -0.123518  0.000000     24.000000
  0.247036 -0.148221  0.000000     12.000000
  0.247036 -0.123518  0.000000      6.000000
 


--------------------------------------------------------------------------------------------------------




 Dimension of arrays:
   k-points           NKPTS =    256   k-points in BZ     NKDIM =    256   number of bands    NBANDS=     48
   number of dos      NEDOS =    301   number of ions     NIONS =      1
   non local maximal  LDIM  =      4   non local SUM 2l+1 LMDIM =      8
   total plane-waves  NPLWV =  13824
   max r-space proj   IRMAX =      1   max aug-charges    IRDMAX=  32640
   dimension x,y,z NGX =    24 NGY =   24 NGZ =   24
   dimension x,y,z NGXF=    48 NGYF=   48 NGZF=   48
   support grid    NGXF=    48 NGYF=   48 NGZF=   48
   ions per type =               1
   NGX,Y,Z   is equivalent  to a cutoff of  13.94, 13.94, 13.94 a.u.
   NGXF,Y,Z  is equivalent  to a cutoff of  27.88, 27.88, 27.88 a.u.

 SYSTEM =  unknown system                          
 POSCAR =  # Generated by Masgent for k-point conve

 Startparameter for this run:
   NWRITE =      2    write-flag & timer
   PREC   = accura    normal or accurate (medium, high low for compatibility)
   ISTART =      0    job   : 0-new  1-cont  2-samecut
   ICHARG =      2    charge: 1-file 2-atom 10-const
   ISPIN  =      2    spin polarized calculation?
   LNONCOLLINEAR =      F non collinear calculations
   LSORBIT =      F    spin-orbit coupling
   INIWAV =      1    electr: 0-lowe 1-rand  2-diag
   LASPH  =      T    aspherical Exc in radial PAW
 Electronic Relaxation 1
   ENCUT  =  520.0 eV  38.22 Ry    6.18 a.u.   5.32  5.32  5.32*2*pi/ulx,y,z
   ENINI  =  520.0     initial cutoff
   ENAUG  =  291.1 eV  augmentation charge cutoff
   NELM   =    100;   NELMIN=  2; NELMDL= -5     # of ELM steps 
   EDIFF  = 0.5E-04   stopping-criterion for ELM
   LREAL  =      F    real-space projection
   NLSPLINE    = F    spline interpolate recip. space projectors
   LCOMPAT=      F    compatible to vasp.4.4
   GGA_COMPAT  = T    GGA compatible to vasp.4.4-vasp.4.6
   LMAXPAW     = -100 max onsite density
   LMAXMIX     =    2 max onsite mixed and CHGCAR
   VOSKOWN=      0    Vosko Wilk Nusair interpolation
   ROPT   =    0.00000
 Ionic relaxation
   EDIFFG = 0.5E-03   stopping-criterion for IOM
   NSW    =      0    number of steps for IOM
   NBLOCK =      1;   KBLOCK =      1    inner block; outer block 
   IBRION =     -1    ionic relax: 0-MD 1-quasi-New 2-CG
   NFREE  =      0    steps in history (QN), initial steepest desc. (CG)
   ISIF   =      2    stress and relaxation
   IWAVPR =     10    prediction:  0-non 1-charg 2-wave 3-comb
   ISYM   =      2    0-nonsym 1-usesym 2-fastsym
   LCORR  =      T    Harris-Foulkes like correction to forces

   POTIM  = 0.5000    time-step for ionic-motion
   TEIN   =    0.0    initial temperature
   TEBEG  =    0.0;   TEEND  =   0.0 temperature during run
   SMASS  =  -3.00    Nose mass-parameter (am)
   estimated Nose-frequenzy (Omega)   =  0.10E-29 period in steps = 0.13E+47 mass=  -0.187E-27a.u.
   SCALEE = 1.0000    scale energy and forces
   NPACO  =    256;   APACO  = 16.0  distance and # of slots for P.C.
   PSTRESS=    0.0 pullay stress

  Mass of Ions in am
   POMASS =  26.98
  Ionic Valenz
   ZVAL   =   3.00
  Atomic Wigner-Seitz radii
   RWIGS  =  -1.00
  virtual crystal weights 
   VCA    =   1.00
   NELECT =       3.0000    total number of electrons
   NUPDOWN=      -1.0000    fix difference up-down

 DOS related values:
   EMIN   =  10.00;   EMAX   =-10.00  energy-range for DOS
   EFERMI =   0.00
   ISMEAR =    -5;   SIGMA  =   0.05  broadening in eV -4-tet -1-fermi 0-gaus

 Electronic relaxation 2 (details)
   IALGO  =     68    algorithm
   LDIAG  =      T    sub-space diagonalisation (order eigenvalues)
   LSUBROT=      F    optimize rotation matrix (better conditioning)
   TURBO    =      0    0=normal 1=particle mesh
   IRESTART =      0    0=no restart 2=restart with 2 vectors
   NREBOOT  =      0    no. of reboots
   NMIN     =      0    reboot dimension
   EREF     =   0.00    reference energy to select bands
   IMIX   =      4    mixing-type and parameters
     AMIX     =   0.40;   BMIX     =  1.00
     AMIX_MAG =   1.60;   BMIX_MAG =  1.00
     AMIN     =   0.10
     WC   =   100.;   INIMIX=   1;  MIXPRE=   1;  MAXMIX= -45

 Intra band minimization:
   WEIMIN = 0.0000     energy-eigenvalue tresh-hold
   EBREAK =  0.26E-06  absolut break condition
   DEPER  =   0.30     relativ break condition  

   TIME   =   0.40     timestep for ELM

  volume/ion in A,a.u.               =      16.58       111.91
  Fermi-wavevector in a.u.,A,eV,Ry     =   0.925894  1.749687 11.664006  0.857280
  Thomas-Fermi vector in A             =   2.051798

 Write flags
   LWAVE        =      F    write WAVECAR
   LDOWNSAMPLE  =      F    k-point downsampling of WAVECAR
   LCHARG       =      T    write CHGCAR
   LVTOT        =      F    write LOCPOT, total local potential
   LVHAR        =      F    write LOCPOT, Hartree potential only
   LELF         =      F    write electronic localiz. function (ELF)
   LORBIT       =     11    0 simple, 1 ext, 2 COOP (PROOUT), +10 PAW based schemes


 Dipole corrections
   LMONO  =      F    monopole corrections only (constant potential shift)
   LDIPOL =      F    correct potential (dipole corrections)
   IDIPOL =      0    1-x, 2-y, 3-z, 4-all directions 
   EPSILON=  1.0000000 bulk dielectric constant

 Exchange correlation treatment:
   GGA     =    --    GGA type
   LEXCH   =     8    internal setting for exchange type
   VOSKOWN=      0    Vosko Wilk Nusair interpolation
   LHFCALC =     F    Hartree Fock is set to
   LHFONE  =     F    Hartree Fock one center treatment
   AEXX    =    0.0000 exact exchange contribution

 Linear response parameters
   LEPSILON=     F    determine dielectric tensor
   LRPA    =     F    only Hartree local field effects (RPA)
   LNABLA  =     F    use nabla operator in PAW spheres
   LVEL    =     F    velocity operator in full k-point grid
   LINTERFAST=   F  fast interpolation
   KINTER  =     0    interpolate to denser k-point grid
   CSHIFT  =0.1000    complex shift for real part using Kramers Kronig
   OMEGAMAX=  -1.0    maximum frequency
   DEG_THRESHOLD= 0.2000000E-02 threshold for treating states as degnerate
   RTIME   =   -0.100 relaxation time in fs
  (WPLASMAI=    0.000 imaginary part of plasma frequency in eV, 0.658/RTIME)
   DFIELD  = 0.0000000 0.0000000 0.0000000 field for delta impulse in time

 Orbital magnetization related:
   ORBITALMAG=     F  switch on orbital magnetization
   LCHIMAG   =     F  perturbation theory with respect to B field
   DQ        =  0.001000  dq finite difference perturbation B field
   LLRAUG    =     F  two centre corrections for induced B field



--------------------------------------------------------------------------------------------------------


 Static calculation
 charge density and potential will be updated during run
 spin polarized calculation
 RMM-DIIS sequential band-by-band and
  variant of blocked Davidson during initial phase
 perform sub-space diagonalisation
    before iterative eigenvector-optimisation
 modified Broyden-mixing scheme, WC =      100.0
 initial mixing is a Kerker type mixing with AMIX =  0.4000 and BMIX =      1.0000
 Hartree-type preconditioning will be used
 using additional bands           46
 reciprocal scheme for non local part
 use partial core corrections
 calculate Harris-corrections to forces   (improved forces if not selfconsistent)
 use gradient corrections 
 use of overlap-Matrix (Vanderbilt PP)
 Fermi weights with tetrahedron method with Bloechl corrections


--------------------------------------------------------------------------------------------------------


  energy-cutoff  :      520.00
  volume of cell :       16.58
      direct lattice vectors                 reciprocal lattice vectors
     0.000000000  2.024000000  2.024000000    -0.247035573  0.247035573  0.247035573
     2.024000000  0.000000000  2.024000000     0.247035573 -0.247035573  0.247035573
     2.024000000  2.024000000  0.000000000     0.247035573  0.247035573 -0.247035573

  length of vectors
     2.862368250  2.862368250  2.862368250     0.427878164  0.427878164  0.427878164



 k-points in units of 2pi/SCALE and weight: # Generated by Masgent for k-point conve
   0.00000000  0.00000000  0.00000000       0.000
  -0.01235178  0.01235178  0.01235178       0.001
  -0.02470356  0.02470356  0.02470356       0.001
  -0.03705534  0.03705534  0.03705534       0.001
  -0.04940711  0.04940711  0.04940711       0.001
  -0.06175889  0.06175889  0.06175889       0.001
  -0.07411067  0.07411067  0.07411067       0.001
  -0.08646245  0.08646245  0.08646245       0.001
  -0.09881423  0.09881423  0.09881423       0.001
  -0.11116601  0.11116601  0.11116601       0.001
  -0.12351779  0.12351779  0.12351779       0.001
   0.00000000  0.00000000  0.02470356       0.001
  -0.01235178  0.01235178  0.03705534       0.003
  -0.02470356  0.02470356  0.04940711       0.003
  -0.03705534  0.03705534  0.06175889       0.003
  -0.04940711  0.04940711  0.07411067       0.003
  -0.06175889  0.06175889  0.08646245       0.003
  -0.07411067  0.07411067  0.09881423       0.003
  -0.08646245  0.08646245  0.11116601       0.003
  -0.09881423  0.09881423  0.12351779       0.003
  -0.11116601  0.11116601  0.13586957       0.003
   0.12351779 -0.12351779 -0.09881423       0.003
   0.11116601 -0.11116601 -0.08646245       0.003
   0.09881423 -0.09881423 -0.07411067       0.003
   0.08646245 -0.08646245 -0.06175889       0.003
   0.07411067 -0.07411067 -0.04940711       0.003
   0.06175889 -0.06175889 -0.03705534       0.003
   0.04940711 -0.04940711 -0.02470356       0.003
   0.03705534 -0.03705534 -0.01235178       0.003
   0.02470356 -0.02470356  0.00000000       0.002
   0.00000000  0.00000000  0.04940711       0.001
  -0.01235178  0.01235178  0.06175889       0.003
  -0.02470356  0.02470356  0.07411067       0.003
  -0.03705534  0.03705534  0.08646245       0.003
  -0.04940711  0.04940711  0.09881423       0.003
  -0.06175889  0.06175889  0.11116601       0.003
  -0.07411067  0.07411067  0.12351779       0.003
  -0.08646245  0.08646245  0.13586957       0.003
  -0.09881423  0.09881423  0.14822134       0.003
   0.13586957 -0.13586957 -0.08646245       0.003
   0.12351779 -0.12351779 -0.07411067       0.003
   0.11116601 -0.11116601 -0.06175889       0.003
   0.09881423 -0.09881423 -0.04940711       0.003
   0.08646245 -0.08646245 -0.03705534       0.003
   0.07411067 -0.07411067 -0.02470356       0.003
   0.06175889 -0.06175889 -0.01235178       0.003
   0.04940711 -0.04940711  0.00000000       0.002
   0.00000000  0.00000000  0.07411067       0.001
  -0.01235178  0.01235178  0.08646245       0.003
  -0.02470356  0.02470356  0.09881423       0.003
  -0.03705534  0.03705534  0.11116601       0.003
  -0.04940711  0.04940711  0.12351779       0.003
  -0.06175889  0.06175889  0.13586957       0.003
  -0.07411067  0.07411067  0.14822134       0.003
  -0.08646245  0.08646245  0.16057312       0.003
   0.14822134 -0.14822134 -0.07411067       0.003
   0.13586957 -0.13586957 -0.06175889       0.003
   0.12351779 -0.12351779 -0.04940711       0.003
   0.11116601 -0.11116601 -0.03705534       0.003
   0.09881423 -0.09881423 -0.02470356       0.003
   0.08646245 -0.08646245 -0.01235178       0.003
   0.07411067 -0.07411067  0.00000000       0.002
   0.00000000  0.00000000  0.09881423       0.001
  -0.01235178  0.01235178  0.11116601       0.003
  -0.02470356  0.02470356  0.12351779       0.003
  -0.03705534  0.03705534  0.13586957       0.003
  -0.04940711  0.04940711  0.14822134       0.003
  -0.06175889  0.06175889  0.16057312       0.003
  -0.07411067  0.07411067  0.17292490       0.003
   0.16057312 -0.16057312 -0.06175889       0.003
   0.14822134 -0.14822134 -0.04940711       0.003
   0.13586957 -0.13586957 -0.03705534       0.003
   0.12351779 -0.12351779 -0.02470356       0.003
   0.11116601 -0.11116601 -0.01235178       0.003
   0.09881423 -0.09881423  0.00000000       0.002
   0.00000000  0.00000000  0.12351779       0.001
  -0.01235178  0.01235178  0.13586957       0.003
  -0.02470356  0.02470356  0.14822134       0.003
  -0.03705534  0.03705534  0.16057312       0.003
  -0.04940711  0.04940711  0.17292490       0.003
  -0.06175889  0.06175889  0.18527668       0.003
   0.17292490 -0.17292490 -0.04940711       0.003
   0.16057312 -0.16057312 -0.03705534       0.003
   0.14822134 -0.14822134 -0.02470356       0.003
   0.13586957 -0.13586957 -0.01235178       0.003
   0.12351779 -0.12351779  0.00000000       0.002
   0.00000000  0.00000000  0.14822134       0.001
  -0.01235178  0.01235178  0.16057312       0.003
  -0.02470356  0.02470356  0.17292490       0.003
  -0.03705534  0.03705534  0.18527668       0.003
  -0.04940711  0.04940711  0.19762846       0.003
   0.18527668 -0.18527668 -0.03705534       0.003
   0.17292490 -0.17292490 -0.02470356       0.003
   0.16057312 -0.16057312 -0.01235178       0.003
   0.14822134 -0.14822134  0.00000000       0.002
   0.00000000  0.00000000  0.17292490       0.001
  -0.01235178  0.01235178  0.18527668       0.003
  -0.02470356  0.02470356  0.19762846       0.003
  -0.03705534  0.03705534  0.20998024       0.003
   0.19762846 -0.19762846 -0.02470356       0.003
   0.18527668 -0.18527668 -0.01235178       0.003
   0.17292490 -0.17292490  0.00000000       0.002
   0.00000000  0.00000000  0.19762846       0.001
  -0.01235178  0.01235178  0.20998024       0.003
  -0.02470356  0.02470356  0.22233202       0.003
   0.20998024 -0.20998024 -0.01235178       0.003
   0.19762846 -0.19762846  0.00000000       0.002
   0.00000000  0.00000000  0.22233202       0.001
  -0.01235178  0.01235178  0.23468379       0.003
   0.22233202 -0.22233202  0.00000000       0.002
   0.00000000  0.00000000  0.24703557       0.000
   0.00000000  0.02470356  0.04940711       0.003
  -0.01235178  0.03705534  0.06175889       0.006
  -0.02470356  0.04940711  0.07411067       0.006
  -0.03705534  0.06175889  0.08646245       0.006
  -0.04940711  0.07411067  0.09881423       0.006
  -0.06175889  0.08646245  0.11116601       0.006
  -0.07411067  0.09881423  0.12351779       0.006
  -0.08646245  0.11116601  0.13586957       0.006
   0.14822134 -0.12351779 -0.09881423       0.003
  -0.00000000  0.02470356  0.07411067       0.003
  -0.01235178  0.03705534  0.08646245       0.006
  -0.02470356  0.04940711  0.09881423       0.006
  -0.03705534  0.06175889  0.11116601       0.006
  -0.04940711  0.07411067  0.12351779       0.006
  -0.06175889  0.08646245  0.13586957       0.006
  -0.07411067  0.09881423  0.14822134       0.006
   0.16057312 -0.13586957 -0.08646245       0.006
   0.14822134 -0.12351779 -0.07411067       0.006
   0.13586957 -0.11116601 -0.06175889       0.006
   0.12351779 -0.09881423 -0.04940711       0.006
   0.11116601 -0.08646245 -0.03705534       0.006
   0.09881423 -0.07411067 -0.02470356       0.006
   0.08646245 -0.06175889 -0.01235178       0.006
   0.07411067 -0.04940711  0.00000000       0.003
   0.00000000  0.02470356  0.09881423       0.003
  -0.01235178  0.03705534  0.11116601       0.006
  -0.02470356  0.04940711  0.12351779       0.006
  -0.03705534  0.06175889  0.13586957       0.006
  -0.04940711  0.07411067  0.14822134       0.006
  -0.06175889  0.08646245  0.16057312       0.006
   0.17292490 -0.14822134 -0.07411067       0.006
   0.16057312 -0.13586957 -0.06175889       0.006
   0.14822134 -0.12351779 -0.04940711       0.006
   0.13586957 -0.11116601 -0.03705534       0.006
   0.12351779 -0.09881423 -0.02470356       0.006
   0.11116601 -0.08646245 -0.01235178       0.006
   0.09881423 -0.07411067  0.00000000       0.003
   0.00000000  0.02470356  0.12351779       0.003
  -0.01235178  0.03705534  0.13586957       0.006
  -0.02470356  0.04940711  0.14822134       0.006
  -0.03705534  0.06175889  0.16057312       0.006
  -0.04940711  0.07411067  0.17292490       0.006
   0.18527668 -0.16057312 -0.06175889       0.006
   0.17292490 -0.14822134 -0.04940711       0.006
   0.16057312 -0.13586957 -0.03705534       0.006
   0.14822134 -0.12351779 -0.02470356       0.006
   0.13586957 -0.11116601 -0.01235178       0.006
   0.12351779 -0.09881423  0.00000000       0.003
  -0.00000000  0.02470356  0.14822134       0.003
  -0.01235178  0.03705534  0.16057312       0.006
  -0.02470356  0.04940711  0.17292490       0.006
  -0.03705534  0.06175889  0.18527668       0.006
   0.19762846 -0.17292490 -0.04940711       0.006
   0.18527668 -0.16057312 -0.03705534       0.006
   0.17292490 -0.14822134 -0.02470356       0.006
   0.16057312 -0.13586957 -0.01235178       0.006
   0.14822134 -0.12351779  0.00000000       0.003
   0.00000000  0.02470356  0.17292490       0.003
  -0.01235178  0.03705534  0.18527668       0.006
  -0.02470356  0.04940711  0.19762846       0.006
   0.20998024 -0.18527668 -0.03705534       0.006
   0.19762846 -0.17292490 -0.02470356       0.006
   0.18527668 -0.16057312 -0.01235178       0.006
   0.17292490 -0.14822134  0.00000000       0.003
  -0.00000000  0.02470356  0.19762846       0.003
  -0.01235178  0.03705534  0.20998024       0.006
   0.22233202 -0.19762846 -0.02470356       0.006
   0.20998024 -0.18527668 -0.01235178       0.006
   0.19762846 -0.17292490  0.00000000       0.003
   0.00000000  0.02470356  0.22233202       0.003
   0.23468379 -0.20998024 -0.01235178       0.006
   0.22233202 -0.19762846  0.00000000       0.003
   0.24703557 -0.22233202  0.00000000       0.002
   0.00000000  0.04940711  0.09881423       0.003
  -0.01235178  0.06175889  0.11116601       0.006
  -0.02470356  0.07411067  0.12351779       0.006
  -0.03705534  0.08646245  0.13586957       0.006
  -0.04940711  0.09881423  0.14822134       0.006
   0.18527668 -0.13586957 -0.08646245       0.006
   0.17292490 -0.12351779 -0.07411067       0.003
   0.00000000  0.04940711  0.12351779       0.003
  -0.01235178  0.06175889  0.13586957       0.006
  -0.02470356  0.07411067  0.14822134       0.006
  -0.03705534  0.08646245  0.16057312       0.006
   0.19762846 -0.14822134 -0.07411067       0.006
   0.18527668 -0.13586957 -0.06175889       0.006
   0.17292490 -0.12351779 -0.04940711       0.006
   0.16057312 -0.11116601 -0.03705534       0.006
   0.14822134 -0.09881423 -0.02470356       0.006
   0.13586957 -0.08646245 -0.01235178       0.006
   0.12351779 -0.07411067  0.00000000       0.003
   0.00000000  0.04940711  0.14822134       0.003
  -0.01235178  0.06175889  0.16057312       0.006
  -0.02470356  0.07411067  0.17292490       0.006
   0.20998024 -0.16057312 -0.06175889       0.006
   0.19762846 -0.14822134 -0.04940711       0.006
   0.18527668 -0.13586957 -0.03705534       0.006
   0.17292490 -0.12351779 -0.02470356       0.006
   0.16057312 -0.11116601 -0.01235178       0.006
   0.14822134 -0.09881423 -0.00000000       0.003
   0.00000000  0.04940711  0.17292490       0.003
  -0.01235178  0.06175889  0.18527668       0.006
   0.22233202 -0.17292490 -0.04940711       0.006
   0.20998024 -0.16057312 -0.03705534       0.006
   0.19762846 -0.14822134 -0.02470356       0.006
   0.18527668 -0.13586957 -0.01235178       0.006
   0.17292490 -0.12351779  0.00000000       0.003
   0.00000000  0.04940711  0.19762846       0.003
   0.23468379 -0.18527668 -0.03705534       0.006
   0.22233202 -0.17292490 -0.02470356       0.006
   0.20998024 -0.16057312 -0.01235178       0.006
   0.19762846 -0.14822134  0.00000000       0.003
   0.24703557 -0.19762846 -0.02470356       0.003
   0.23468379 -0.18527668 -0.01235178       0.006
   0.22233202 -0.17292490  0.00000000       0.003
   0.24703557 -0.19762846  0.00000000       0.002
  -0.00000000  0.07411067  0.14822134       0.003
  -0.01235178  0.08646245  0.16057312       0.006
   0.22233202 -0.14822134 -0.07411067       0.006
   0.20998024 -0.13586957 -0.06175889       0.006
   0.19762846 -0.12351779 -0.04940711       0.003
   0.00000000  0.07411067  0.17292490       0.003
   0.23468379 -0.16057312 -0.06175889       0.006
   0.22233202 -0.14822134 -0.04940711       0.006
   0.20998024 -0.13586957 -0.03705534       0.006
   0.19762846 -0.12351779 -0.02470356       0.006
   0.18527668 -0.11116601 -0.01235178       0.006
   0.17292490 -0.09881423  0.00000000       0.003
   0.24703557 -0.17292490 -0.04940711       0.003
   0.23468379 -0.16057312 -0.03705534       0.006
   0.22233202 -0.14822134 -0.02470356       0.006
   0.20998024 -0.13586957 -0.01235178       0.006
   0.19762846 -0.12351779  0.00000000       0.003
   0.24703557 -0.17292490 -0.02470356       0.003
   0.23468379 -0.16057312 -0.01235178       0.006
   0.22233202 -0.14822134  0.00000000       0.003
   0.24703557 -0.17292490  0.00000000       0.002
   0.24703557 -0.14822134 -0.04940711       0.003
   0.23468379 -0.13586957 -0.03705534       0.006
   0.22233202 -0.12351779 -0.02470356       0.003
   0.24703557 -0.14822134 -0.02470356       0.003
   0.23468379 -0.13586957 -0.01235178       0.006
   0.22233202 -0.12351779  0.00000000       0.003
   0.24703557 -0.14822134  0.00000000       0.002
   0.24703557 -0.12351779  0.00000000       0.001

 k-points in reciprocal lattice and weights: # Generated by Masgent for k-point conve
   0.00000000  0.00000000  0.00000000       0.000
   0.05000000  0.00000000  0.00000000       0.001
   0.10000000  0.00000000  0.00000000       0.001
   0.15000000  0.00000000  0.00000000       0.001
   0.20000000  0.00000000  0.00000000       0.001
   0.25000000  0.00000000  0.00000000       0.001
   0.30000000  0.00000000  0.00000000       0.001
   0.35000000  0.00000000  0.00000000       0.001
   0.40000000  0.00000000  0.00000000       0.001
   0.45000000  0.00000000  0.00000000       0.001
   0.50000000  0.00000000  0.00000000       0.001
   0.05000000  0.05000000  0.00000000       0.001
   0.10000000  0.05000000  0.00000000       0.003
   0.15000000  0.05000000  0.00000000       0.003
   0.20000000  0.05000000  0.00000000       0.003
   0.25000000  0.05000000  0.00000000       0.003
   0.30000000  0.05000000  0.00000000       0.003
   0.35000000  0.05000000  0.00000000       0.003
   0.40000000  0.05000000  0.00000000       0.003
   0.45000000  0.05000000  0.00000000       0.003
   0.50000000  0.05000000  0.00000000       0.003
  -0.45000000  0.05000000  0.00000000       0.003
  -0.40000000  0.05000000  0.00000000       0.003
  -0.35000000  0.05000000  0.00000000       0.003
  -0.30000000  0.05000000  0.00000000       0.003
  -0.25000000  0.05000000  0.00000000       0.003
  -0.20000000  0.05000000  0.00000000       0.003
  -0.15000000  0.05000000  0.00000000       0.003
  -0.10000000  0.05000000  0.00000000       0.003
  -0.05000000  0.05000000  0.00000000       0.002
   0.10000000  0.10000000  0.00000000       0.001
   0.15000000  0.10000000  0.00000000       0.003
   0.20000000  0.10000000  0.00000000       0.003
   0.25000000  0.10000000  0.00000000       0.003
   0.30000000  0.10000000  0.00000000       0.003
   0.35000000  0.10000000  0.00000000       0.003
   0.40000000  0.10000000  0.00000000       0.003
   0.45000000  0.10000000  0.00000000       0.003
   0.50000000  0.10000000  0.00000000       0.003
  -0.45000000  0.10000000  0.00000000       0.003
  -0.40000000  0.10000000  0.00000000       0.003
  -0.35000000  0.10000000  0.00000000       0.003
  -0.30000000  0.10000000  0.00000000       0.003
  -0.25000000  0.10000000  0.00000000       0.003
  -0.20000000  0.10000000  0.00000000       0.003
  -0.15000000  0.10000000  0.00000000       0.003
  -0.10000000  0.10000000  0.00000000       0.002
   0.15000000  0.15000000  0.00000000       0.001
   0.20000000  0.15000000  0.00000000       0.003
   0.25000000  0.15000000  0.00000000       0.003
   0.30000000  0.15000000  0.00000000       0.003
   0.35000000  0.15000000  0.00000000       0.003
   0.40000000  0.15000000  0.00000000       0.003
   0.45000000  0.15000000  0.00000000       0.003
   0.50000000  0.15000000  0.00000000       0.003
  -0.45000000  0.15000000  0.00000000       0.003
  -0.40000000  0.15000000  0.00000000       0.003
  -0.35000000  0.15000000  0.00000000       0.003
  -0.30000000  0.15000000  0.00000000       0.003
  -0.25000000  0.15000000  0.00000000       0.003
  -0.20000000  0.15000000  0.00000000       0.003
  -0.15000000  0.15000000  0.00000000       0.002
   0.20000000  0.20000000  0.00000000       0.001
   0.25000000  0.20000000  0.00000000       0.003
   0.30000000  0.20000000  0.00000000       0.003
   0.35000000  0.20000000  0.00000000       0.003
   0.40000000  0.20000000  0.00000000       0.003
   0.45000000  0.20000000  0.00000000       0.003
   0.50000000  0.20000000  0.00000000       0.003
  -0.45000000  0.20000000  0.00000000       0.003
  -0.40000000  0.20000000  0.00000000       0.003
  -0.35000000  0.20000000  0.00000000       0.003
  -0.30000000  0.20000000  0.00000000       0.003
  -0.25000000  0.20000000  0.00000000       0.003
  -0.20000000  0.20000000  0.00000000       0.002
   0.25000000  0.25000000  0.00000000       0.001
   0.30000000  0.25000000  0.00000000       0.003
   0.35000000  0.25000000  0.00000000       0.003
   0.40000000  0.25000000  0.00000000       0.003
   0.45000000  0.25000000  0.00000000       0.003
   0.50000000  0.25000000  0.00000000       0.003
  -0.45000000  0.25000000  0.00000000       0.003
  -0.40000000  0.25000000  0.00000000       0.003
  -0.35000000  0.25000000  0.00000000       0.003
  -0.30000000  0.25000000  0.00000000       0.003
  -0.25000000  0.25000000  0.00000000       0.002
   0.30000000  0.30000000  0.00000000       0.001
   0.35000000  0.30000000  0.00000000       0.003
   0.40000000  0.30000000  0.00000000       0.003
   0.45000000  0.30000000  0.00000000       0.003
   0.50000000  0.30000000  0.00000000       0.003
  -0.45000000  0.30000000  0.00000000       0.003
  -0.40000000  0.30000000  0.00000000       0.003
  -0.35000000  0.30000000  0.00000000       0.003
  -0.30000000  0.30000000  0.00000000       0.002
   0.35000000  0.35000000  0.00000000       0.001
   0.40000000  0.35000000  0.00000000       0.003
   0.45000000  0.35000000  0.00000000       0.003
   0.50000000  0.35000000  0.00000000       0.003
  -0.45000000  0.35000000  0.00000000       0.003
  -0.40000000  0.35000000  0.00000000       0.003
  -0.35000000  0.35000000  0.00000000       0.002
   0.40000000  0.40000000  0.00000000       0.001
   0.45000000  0.40000000  0.00000000       0.003
   0.50000000  0.40000000  0.00000000       0.003
  -0.45000000  0.40000000  0.00000000       0.003
  -0.40000000  0.40000000  0.00000000       0.002
   0.45000000  0.45000000  0.00000000       0.001
   0.50000000  0.45000000  0.00000000       0.003
  -0.45000000  0.45000000  0.00000000       0.002
   0.50000000  0.50000000  0.00000000       0.000
   0.15000000  0.10000000  0.05000000       0.003
   0.20000000  0.10000000  0.05000000       0.006
   0.25000000  0.10000000  0.05000000       0.006
   0.30000000  0.10000000  0.05000000       0.006
   0.35000000  0.10000000  0.05000000       0.006
   0.40000000  0.10000000  0.05000000       0.006
   0.45000000  0.10000000  0.05000000       0.006
   0.50000000  0.10000000  0.05000000       0.006
  -0.45000000  0.10000000  0.05000000       0.003
   0.20000000  0.15000000  0.05000000       0.003
   0.25000000  0.15000000  0.05000000       0.006
   0.30000000  0.15000000  0.05000000       0.006
   0.35000000  0.15000000  0.05000000       0.006
   0.40000000  0.15000000  0.05000000       0.006
   0.45000000  0.15000000  0.05000000       0.006
   0.50000000  0.15000000  0.05000000       0.006
  -0.45000000  0.15000000  0.05000000       0.006
  -0.40000000  0.15000000  0.05000000       0.006
  -0.35000000  0.15000000  0.05000000       0.006
  -0.30000000  0.15000000  0.05000000       0.006
  -0.25000000  0.15000000  0.05000000       0.006
  -0.20000000  0.15000000  0.05000000       0.006
  -0.15000000  0.15000000  0.05000000       0.006
  -0.10000000  0.15000000  0.05000000       0.003
   0.25000000  0.20000000  0.05000000       0.003
   0.30000000  0.20000000  0.05000000       0.006
   0.35000000  0.20000000  0.05000000       0.006
   0.40000000  0.20000000  0.05000000       0.006
   0.45000000  0.20000000  0.05000000       0.006
   0.50000000  0.20000000  0.05000000       0.006
  -0.45000000  0.20000000  0.05000000       0.006
  -0.40000000  0.20000000  0.05000000       0.006
  -0.35000000  0.20000000  0.05000000       0.006
  -0.30000000  0.20000000  0.05000000       0.006
  -0.25000000  0.20000000  0.05000000       0.006
  -0.20000000  0.20000000  0.05000000       0.006
  -0.15000000  0.20000000  0.05000000       0.003
   0.30000000  0.25000000  0.05000000       0.003
   0.35000000  0.25000000  0.05000000       0.006
   0.40000000  0.25000000  0.05000000       0.006
   0.45000000  0.25000000  0.05000000       0.006
   0.50000000  0.25000000  0.05000000       0.006
  -0.45000000  0.25000000  0.05000000       0.006
  -0.40000000  0.25000000  0.05000000       0.006
  -0.35000000  0.25000000  0.05000000       0.006
  -0.30000000  0.25000000  0.05000000       0.006
  -0.25000000  0.25000000  0.05000000       0.006
  -0.20000000  0.25000000  0.05000000       0.003
   0.35000000  0.30000000  0.05000000       0.003
   0.40000000  0.30000000  0.05000000       0.006
   0.45000000  0.30000000  0.05000000       0.006
   0.50000000  0.30000000  0.05000000       0.006
  -0.45000000  0.30000000  0.05000000       0.006
  -0.40000000  0.30000000  0.05000000       0.006
  -0.35000000  0.30000000  0.05000000       0.006
  -0.30000000  0.30000000  0.05000000       0.006
  -0.25000000  0.30000000  0.05000000       0.003
   0.40000000  0.35000000  0.05000000       0.003
   0.45000000  0.35000000  0.05000000       0.006
   0.50000000  0.35000000  0.05000000       0.006
  -0.45000000  0.35000000  0.05000000       0.006
  -0.40000000  0.35000000  0.05000000       0.006
  -0.35000000  0.35000000  0.05000000       0.006
  -0.30000000  0.35000000  0.05000000       0.003
   0.45000000  0.40000000  0.05000000       0.003
   0.50000000  0.40000000  0.05000000       0.006
  -0.45000000  0.40000000  0.05000000       0.006
  -0.40000000  0.40000000  0.05000000       0.006
  -0.35000000  0.40000000  0.05000000       0.003
   0.50000000  0.45000000  0.05000000       0.003
  -0.45000000  0.45000000  0.05000000       0.006
  -0.40000000  0.45000000  0.05000000       0.003
  -0.45000000  0.50000000  0.05000000       0.002
   0.30000000  0.20000000  0.10000000       0.003
   0.35000000  0.20000000  0.10000000       0.006
   0.40000000  0.20000000  0.10000000       0.006
   0.45000000  0.20000000  0.10000000       0.006
   0.50000000  0.20000000  0.10000000       0.006
  -0.45000000  0.20000000  0.10000000       0.006
  -0.40000000  0.20000000  0.10000000       0.003
   0.35000000  0.25000000  0.10000000       0.003
   0.40000000  0.25000000  0.10000000       0.006
   0.45000000  0.25000000  0.10000000       0.006
   0.50000000  0.25000000  0.10000000       0.006
  -0.45000000  0.25000000  0.10000000       0.006
  -0.40000000  0.25000000  0.10000000       0.006
  -0.35000000  0.25000000  0.10000000       0.006
  -0.30000000  0.25000000  0.10000000       0.006
  -0.25000000  0.25000000  0.10000000       0.006
  -0.20000000  0.25000000  0.10000000       0.006
  -0.15000000  0.25000000  0.10000000       0.003
   0.40000000  0.30000000  0.10000000       0.003
   0.45000000  0.30000000  0.10000000       0.006
   0.50000000  0.30000000  0.10000000       0.006
  -0.45000000  0.30000000  0.10000000       0.006
  -0.40000000  0.30000000  0.10000000       0.006
  -0.35000000  0.30000000  0.10000000       0.006
  -0.30000000  0.30000000  0.10000000       0.006
  -0.25000000  0.30000000  0.10000000       0.006
  -0.20000000  0.30000000  0.10000000       0.003
   0.45000000  0.35000000  0.10000000       0.003
   0.50000000  0.35000000  0.10000000       0.006
  -0.45000000  0.35000000  0.10000000       0.006
  -0.40000000  0.35000000  0.10000000       0.006
  -0.35000000  0.35000000  0.10000000       0.006
  -0.30000000  0.35000000  0.10000000       0.006
  -0.25000000  0.35000000  0.10000000       0.003
   0.50000000  0.40000000  0.10000000       0.003
  -0.45000000  0.40000000  0.10000000       0.006
  -0.40000000  0.40000000  0.10000000       0.006
  -0.35000000  0.40000000  0.10000000       0.006
  -0.30000000  0.40000000  0.10000000       0.003
  -0.45000000  0.45000000  0.10000000       0.003
  -0.40000000  0.45000000  0.10000000       0.006
  -0.35000000  0.45000000  0.10000000       0.003
  -0.40000000  0.50000000  0.10000000       0.002
   0.45000000  0.30000000  0.15000000       0.003
   0.50000000  0.30000000  0.15000000       0.006
  -0.45000000  0.30000000  0.15000000       0.006
  -0.40000000  0.30000000  0.15000000       0.006
  -0.35000000  0.30000000  0.15000000       0.003
   0.50000000  0.35000000  0.15000000       0.003
  -0.45000000  0.35000000  0.15000000       0.006
  -0.40000000  0.35000000  0.15000000       0.006
  -0.35000000  0.35000000  0.15000000       0.006
  -0.30000000  0.35000000  0.15000000       0.006
  -0.25000000  0.35000000  0.15000000       0.006
  -0.20000000  0.35000000  0.15000000       0.003
  -0.45000000  0.40000000  0.15000000       0.003
  -0.40000000  0.40000000  0.15000000       0.006
  -0.35000000  0.40000000  0.15000000       0.006
  -0.30000000  0.40000000  0.15000000       0.006
  -0.25000000  0.40000000  0.15000000       0.003
  -0.40000000  0.45000000  0.15000000       0.003
  -0.35000000  0.45000000  0.15000000       0.006
  -0.30000000  0.45000000  0.15000000       0.003
  -0.35000000  0.50000000  0.15000000       0.002
  -0.40000000  0.40000000  0.20000000       0.003
  -0.35000000  0.40000000  0.20000000       0.006
  -0.30000000  0.40000000  0.20000000       0.003
  -0.35000000  0.45000000  0.20000000       0.003
  -0.30000000  0.45000000  0.20000000       0.006
  -0.25000000  0.45000000  0.20000000       0.003
  -0.30000000  0.50000000  0.20000000       0.002
  -0.25000000  0.50000000  0.25000000       0.001

 position of ions in fractional coordinates (direct lattice) 
   0.00000000  0.00000000  0.00000000

 position of ions in cartesian coordinates  (Angst):
   0.00000000  0.00000000  0.00000000



--------------------------------------------------------------------------------------------------------


 k-point   1 :   0.0000 0.0000 0.0000  plane waves:     459
 k-point   2 :   0.0500 0.0000 0.0000  plane waves:     447
 k-point   3 :   0.1000 0.0000 0.0000  plane waves:     444
 k-point   4 :   0.1500 0.0000 0.0000  plane waves:     456
 k-point   5 :   0.2000 0.0000 0.0000  plane waves:     459
 k-point   6 :   0.2500 0.0000 0.0000  plane waves:     450
 k-point   7 :   0.3000 0.0000 0.0000  plane waves:     450
 k-point   8 :   0.3500 0.0000 0.0000  plane waves:     449
 k-point   9 :   0.4000 0.0000 0.0000  plane waves:     443
 k-point  10 :   0.4500 0.0000 0.0000  plane waves:     449
 k-point  11 :   0.5000 0.0000 0.0000  plane waves:     434
 k-point  12 :   0.0500 0.0500 0.0000  plane waves:     443
 k-point  13 :   0.1000 0.0500 0.0000  plane waves:     443
 k-point  14 :   0.1500 0.0500 0.0000  plane waves:     448
 k-point  15 :   0.2000 0.0500 0.0000  plane waves:     458
 k-point  16 :   0.2500 0.0500 0.0000  plane waves:     454
 k-point  17 :   0.3000 0.0500 0.0000  plane waves:     449
 k-point  18 :   0.3500 0.0500 0.0000  plane waves:     445
 k-point  19 :   0.4000 0.0500 0.0000  plane waves:     445
 k-point  20 :   0.4500 0.0500 0.0000  plane waves:     449
 k-point  21 :   0.5000 0.0500 0.0000  plane waves:     449
 k-point  22 :  -0.4500 0.0500 0.0000  plane waves:     447
 k-point  23 :  -0.4000 0.0500 0.0000  plane waves:     447
 k-point  24 :  -0.3500 0.0500 0.0000  plane waves:     441
 k-point  25 :  -0.3000 0.0500 0.0000  plane waves:     449
 k-point  26 :  -0.2500 0.0500 0.0000  plane waves:     451
 k-point  27 :  -0.2000 0.0500 0.0000  plane waves:     457
 k-point  28 :  -0.1500 0.0500 0.0000  plane waves:     455
 k-point  29 :  -0.1000 0.0500 0.0000  plane waves:     449
 k-point  30 :  -0.0500 0.0500 0.0000  plane waves:     443
 k-point  31 :   0.1000 0.1000 0.0000  plane waves:     443
 k-point  32 :   0.1500 0.1000 0.0000  plane waves:     450
 k-point  33 :   0.2000 0.1000 0.0000  plane waves:     456
 k-point  34 :   0.2500 0.1000 0.0000  plane waves:     453
 k-point  35 :   0.3000 0.1000 0.0000  plane waves:     449
 k-point  36 :   0.3500 0.1000 0.0000  plane waves:     448
 k-point  37 :   0.4000 0.1000 0.0000  plane waves:     446
 k-point  38 :   0.4500 0.1000 0.0000  plane waves:     445
 k-point  39 :   0.5000 0.1000 0.0000  plane waves:     445
 k-point  40 :  -0.4500 0.1000 0.0000  plane waves:     449
 k-point  41 :  -0.4000 0.1000 0.0000  plane waves:     447
 k-point  42 :  -0.3500 0.1000 0.0000  plane waves:     443
 k-point  43 :  -0.3000 0.1000 0.0000  plane waves:     449
 k-point  44 :  -0.2500 0.1000 0.0000  plane waves:     449
 k-point  45 :  -0.2000 0.1000 0.0000  plane waves:     457
 k-point  46 :  -0.1500 0.1000 0.0000  plane waves:     455
 k-point  47 :  -0.1000 0.1000 0.0000  plane waves:     449
 k-point  48 :   0.1500 0.1500 0.0000  plane waves:     451
 k-point  49 :   0.2000 0.1500 0.0000  plane waves:     456
 k-point  50 :   0.2500 0.1500 0.0000  plane waves:     453
 k-point  51 :   0.3000 0.1500 0.0000  plane waves:     446
 k-point  52 :   0.3500 0.1500 0.0000  plane waves:     447
 k-point  53 :   0.4000 0.1500 0.0000  plane waves:     445
 k-point  54 :   0.4500 0.1500 0.0000  plane waves:     447
 k-point  55 :   0.5000 0.1500 0.0000  plane waves:     445
 k-point  56 :  -0.4500 0.1500 0.0000  plane waves:     447
 k-point  57 :  -0.4000 0.1500 0.0000  plane waves:     445
 k-point  58 :  -0.3500 0.1500 0.0000  plane waves:     444
 k-point  59 :  -0.3000 0.1500 0.0000  plane waves:     448
 k-point  60 :  -0.2500 0.1500 0.0000  plane waves:     447
 k-point  61 :  -0.2000 0.1500 0.0000  plane waves:     449
 k-point  62 :  -0.1500 0.1500 0.0000  plane waves:     449
 k-point  63 :   0.2000 0.2000 0.0000  plane waves:     443
 k-point  64 :   0.2500 0.2000 0.0000  plane waves:     450
 k-point  65 :   0.3000 0.2000 0.0000  plane waves:     449
 k-point  66 :   0.3500 0.2000 0.0000  plane waves:     447
 k-point  67 :   0.4000 0.2000 0.0000  plane waves:     452
 k-point  68 :   0.4500 0.2000 0.0000  plane waves:     444
 k-point  69 :   0.5000 0.2000 0.0000  plane waves:     445
 k-point  70 :  -0.4500 0.2000 0.0000  plane waves:     448
 k-point  71 :  -0.4000 0.2000 0.0000  plane waves:     440
 k-point  72 :  -0.3500 0.2000 0.0000  plane waves:     444
 k-point  73 :  -0.3000 0.2000 0.0000  plane waves:     444
 k-point  74 :  -0.2500 0.2000 0.0000  plane waves:     443
 k-point  75 :  -0.2000 0.2000 0.0000  plane waves:     449
 k-point  76 :   0.2500 0.2500 0.0000  plane waves:     456
 k-point  77 :   0.3000 0.2500 0.0000  plane waves:     447
 k-point  78 :   0.3500 0.2500 0.0000  plane waves:     447
 k-point  79 :   0.4000 0.2500 0.0000  plane waves:     446
 k-point  80 :   0.4500 0.2500 0.0000  plane waves:     448
 k-point  81 :   0.5000 0.2500 0.0000  plane waves:     447
 k-point  82 :  -0.4500 0.2500 0.0000  plane waves:     448
 k-point  83 :  -0.4000 0.2500 0.0000  plane waves:     447
 k-point  84 :  -0.3500 0.2500 0.0000  plane waves:     447
 k-point  85 :  -0.3000 0.2500 0.0000  plane waves:     441
 k-point  86 :  -0.2500 0.2500 0.0000  plane waves:     443
 k-point  87 :   0.3000 0.3000 0.0000  plane waves:     444
 k-point  88 :   0.3500 0.3000 0.0000  plane waves:     444
 k-point  89 :   0.4000 0.3000 0.0000  plane waves:     444
 k-point  90 :   0.4500 0.3000 0.0000  plane waves:     445
 k-point  91 :   0.5000 0.3000 0.0000  plane waves:     445
 k-point  92 :  -0.4500 0.3000 0.0000  plane waves:     448
 k-point  93 :  -0.4000 0.3000 0.0000  plane waves:     451
 k-point  94 :  -0.3500 0.3000 0.0000  plane waves:     447
 k-point  95 :  -0.3000 0.3000 0.0000  plane waves:     441
 k-point  96 :   0.3500 0.3500 0.0000  plane waves:     444
 k-point  97 :   0.4000 0.3500 0.0000  plane waves:     447
 k-point  98 :   0.4500 0.3500 0.0000  plane waves:     451
 k-point  99 :   0.5000 0.3500 0.0000  plane waves:     450
 k-point 100 :  -0.4500 0.3500 0.0000  plane waves:     444
 k-point 101 :  -0.4000 0.3500 0.0000  plane waves:     445
 k-point 102 :  -0.3500 0.3500 0.0000  plane waves:     444
 k-point 103 :   0.4000 0.4000 0.0000  plane waves:     452
 k-point 104 :   0.4500 0.4000 0.0000  plane waves:     452
 k-point 105 :   0.5000 0.4000 0.0000  plane waves:     454
 k-point 106 :  -0.4500 0.4000 0.0000  plane waves:     452
 k-point 107 :  -0.4000 0.4000 0.0000  plane waves:     442
 k-point 108 :   0.4500 0.4500 0.0000  plane waves:     452
 k-point 109 :   0.5000 0.4500 0.0000  plane waves:     450
 k-point 110 :  -0.4500 0.4500 0.0000  plane waves:     450
 k-point 111 :   0.5000 0.5000 0.0000  plane waves:     444
 k-point 112 :   0.1500 0.1000 0.0500  plane waves:     453
 k-point 113 :   0.2000 0.1000 0.0500  plane waves:     457
 k-point 114 :   0.2500 0.1000 0.0500  plane waves:     460
 k-point 115 :   0.3000 0.1000 0.0500  plane waves:     454
 k-point 116 :   0.3500 0.1000 0.0500  plane waves:     444
 k-point 117 :   0.4000 0.1000 0.0500  plane waves:     443
 k-point 118 :   0.4500 0.1000 0.0500  plane waves:     442
 k-point 119 :   0.5000 0.1000 0.0500  plane waves:     448
 k-point 120 :  -0.4500 0.1000 0.0500  plane waves:     446
 k-point 121 :   0.2000 0.1500 0.0500  plane waves:     455
 k-point 122 :   0.2500 0.1500 0.0500  plane waves:     455
 k-point 123 :   0.3000 0.1500 0.0500  plane waves:     454
 k-point 124 :   0.3500 0.1500 0.0500  plane waves:     450
 k-point 125 :   0.4000 0.1500 0.0500  plane waves:     445
 k-point 126 :   0.4500 0.1500 0.0500  plane waves:     444
 k-point 127 :   0.5000 0.1500 0.0500  plane waves:     447
 k-point 128 :  -0.4500 0.1500 0.0500  plane waves:     446
 k-point 129 :  -0.4000 0.1500 0.0500  plane waves:     444
 k-point 130 :  -0.3500 0.1500 0.0500  plane waves:     445
 k-point 131 :  -0.3000 0.1500 0.0500  plane waves:     446
 k-point 132 :  -0.2500 0.1500 0.0500  plane waves:     446
 k-point 133 :  -0.2000 0.1500 0.0500  plane waves:     450
 k-point 134 :  -0.1500 0.1500 0.0500  plane waves:     453
 k-point 135 :  -0.1000 0.1500 0.0500  plane waves:     455
 k-point 136 :   0.2500 0.2000 0.0500  plane waves:     454
 k-point 137 :   0.3000 0.2000 0.0500  plane waves:     452
 k-point 138 :   0.3500 0.2000 0.0500  plane waves:     446
 k-point 139 :   0.4000 0.2000 0.0500  plane waves:     446
 k-point 140 :   0.4500 0.2000 0.0500  plane waves:     443
 k-point 141 :   0.5000 0.2000 0.0500  plane waves:     443
 k-point 142 :  -0.4500 0.2000 0.0500  plane waves:     448
 k-point 143 :  -0.4000 0.2000 0.0500  plane waves:     445
 k-point 144 :  -0.3500 0.2000 0.0500  plane waves:     442
 k-point 145 :  -0.3000 0.2000 0.0500  plane waves:     442
 k-point 146 :  -0.2500 0.2000 0.0500  plane waves:     446
 k-point 147 :  -0.2000 0.2000 0.0500  plane waves:     446
 k-point 148 :  -0.1500 0.2000 0.0500  plane waves:     449
 k-point 149 :   0.3000 0.2500 0.0500  plane waves:     449
 k-point 150 :   0.3500 0.2500 0.0500  plane waves:     449
 k-point 151 :   0.4000 0.2500 0.0500  plane waves:     446
 k-point 152 :   0.4500 0.2500 0.0500  plane waves:     446
 k-point 153 :   0.5000 0.2500 0.0500  plane waves:     446
 k-point 154 :  -0.4500 0.2500 0.0500  plane waves:     446
 k-point 155 :  -0.4000 0.2500 0.0500  plane waves:     447
 k-point 156 :  -0.3500 0.2500 0.0500  plane waves:     444
 k-point 157 :  -0.3000 0.2500 0.0500  plane waves:     444
 k-point 158 :  -0.2500 0.2500 0.0500  plane waves:     443
 k-point 159 :  -0.2000 0.2500 0.0500  plane waves:     444
 k-point 160 :   0.3500 0.3000 0.0500  plane waves:     443
 k-point 161 :   0.4000 0.3000 0.0500  plane waves:     447
 k-point 162 :   0.4500 0.3000 0.0500  plane waves:     448
 k-point 163 :   0.5000 0.3000 0.0500  plane waves:     445
 k-point 164 :  -0.4500 0.3000 0.0500  plane waves:     443
 k-point 165 :  -0.4000 0.3000 0.0500  plane waves:     448
 k-point 166 :  -0.3500 0.3000 0.0500  plane waves:     447
 k-point 167 :  -0.3000 0.3000 0.0500  plane waves:     446
 k-point 168 :  -0.2500 0.3000 0.0500  plane waves:     443
 k-point 169 :   0.4000 0.3500 0.0500  plane waves:     442
 k-point 170 :   0.4500 0.3500 0.0500  plane waves:     448
 k-point 171 :   0.5000 0.3500 0.0500  plane waves:     446
 k-point 172 :  -0.4500 0.3500 0.0500  plane waves:     447
 k-point 173 :  -0.4000 0.3500 0.0500  plane waves:     445
 k-point 174 :  -0.3500 0.3500 0.0500  plane waves:     445
 k-point 175 :  -0.3000 0.3500 0.0500  plane waves:     447
 k-point 176 :   0.4500 0.4000 0.0500  plane waves:     450
 k-point 177 :   0.5000 0.4000 0.0500  plane waves:     452
 k-point 178 :  -0.4500 0.4000 0.0500  plane waves:     447
 k-point 179 :  -0.4000 0.4000 0.0500  plane waves:     442
 k-point 180 :  -0.3500 0.4000 0.0500  plane waves:     443
 k-point 181 :   0.5000 0.4500 0.0500  plane waves:     452
 k-point 182 :  -0.4500 0.4500 0.0500  plane waves:     452
[...]
     15      46.2726      0.00000
     16      48.4253      0.00000
     17      51.5590      0.00000
     18      52.4024      0.00000
     19      54.6615      0.00000
     20      54.9093      0.00000
     21      56.0601      0.00000
     22      56.4143      0.00000
     23      58.3810      0.00000
     24      58.8448      0.00000
     25      59.4267      0.00000
     26      60.4828      0.00000
     27      63.2431      0.00000
     28      64.0588      0.00000
     29      64.9806      0.00000
     30      65.7809      0.00000
     31      66.1453      0.00000
     32      72.4566      0.00000
     33      72.6726      0.00000
     34      77.3839      0.00000
     35      81.9512      0.00000
     36      84.4475      0.00000
     37      87.9972      0.00000
     38      88.3926      0.00000
     39      91.6370      0.00000
     40      92.0764      0.00000
     41      94.3089      0.00000
     42      95.3193      0.00000
     43      97.0421      0.00000
     44      99.5274      0.00000
     45     100.2581      0.00000
     46     100.9775      0.00000
     47     103.6684      0.00000
     48     104.6777      0.00000

 k-point   252 :      -0.3500    0.4500    0.2000
  band No.  band energies     occupation 
      1       5.2854      1.00000
      2       8.1044      0.61942
      3       8.8292      0.00000
      4       9.7911      0.00000
      5      21.4286      0.00000
      6      22.9775      0.00000
      7      25.3887      0.00000
      8      28.5755      0.00000
      9      34.4686      0.00000
     10      38.5897      0.00000
     11      41.2012      0.00000
     12      41.2629      0.00000
     13      42.9126      0.00000
     14      43.4711      0.00000
     15      45.7239      0.00000
     16      47.6922      0.00000
     17      50.7913      0.00000
     18      52.8225      0.00000
     19      54.0927      0.00000
     20      54.5343      0.00000
     21      55.0661      0.00000
     22      55.5756      0.00000
     23      58.1957      0.00000
     24      59.1432      0.00000
     25      60.6946      0.00000
     26      61.5994      0.00000
     27      62.7717      0.00000
     28      63.6586      0.00000
     29      64.8280      0.00000
     30      65.5869      0.00000
     31      67.8459      0.00000
     32      71.8719      0.00000
     33      74.9341      0.00000
     34      79.2270      0.00000
     35      79.3617      0.00000
     36      83.4392      0.00000
     37      87.7275      0.00000
     38      88.9482      0.00000
     39      91.1437      0.00000
     40      92.6900      0.00000
     41      94.8795      0.00000
     42      95.4502      0.00000
     43      96.0354      0.00000
     44      98.1334      0.00000
     45      99.8562      0.00000
     46     100.4156      0.00000
     47     102.5714      0.00000
     48     106.0609      0.00000

 k-point   253 :      -0.3000    0.4500    0.2000
  band No.  band energies     occupation 
      1       6.3424      1.00000
      2       7.1831      1.00520
      3       8.4789     -0.00754
      4       9.6024      0.00000
      5      22.2220      0.00000
      6      24.0516      0.00000
      7      24.8431      0.00000
      8      27.0341      0.00000
      9      34.6667      0.00000
     10      38.9278      0.00000
     11      41.6992      0.00000
     12      42.2773      0.00000
     13      42.6889      0.00000
     14      43.4465      0.00000
     15      44.7798      0.00000
     16      46.3943      0.00000
     17      51.6352      0.00000
     18      52.9280      0.00000
     19      54.2504      0.00000
     20      54.9233      0.00000
     21      56.4024      0.00000
     22      57.4643      0.00000
     23      57.8618      0.00000
     24      59.1286      0.00000
     25      60.2965      0.00000
     26      60.5997      0.00000
     27      62.0653      0.00000
     28      62.9476      0.00000
     29      64.7170      0.00000
     30      65.0684      0.00000
     31      66.2524      0.00000
     32      72.8916      0.00000
     33      74.1816      0.00000
     34      78.3199      0.00000
     35      80.2062      0.00000
     36      82.4397      0.00000
     37      88.5269      0.00000
     38      89.0290      0.00000
     39      92.5588      0.00000
     40      93.3484      0.00000
     41      95.4137      0.00000
     42      96.3760      0.00000
     43      97.4586      0.00000
     44      97.9999      0.00000
     45      99.7601      0.00000
     46     100.2836      0.00000
     47     102.6982      0.00000
     48     103.2841      0.00000

 k-point   254 :      -0.2500    0.4500    0.2000
  band No.  band energies     occupation 
      1       6.0412      1.00000
      2       7.1903      1.00120
      3       8.5631     -0.00081
      4       9.8929      0.00000
      5      22.7482      0.00000
      6      23.8032      0.00000
      7      24.8733      0.00000
      8      26.7998      0.00000
      9      34.3622      0.00000
     10      38.3971      0.00000
     11      41.2440      0.00000
     12      41.4196      0.00000
     13      42.9372      0.00000
     14      44.1144      0.00000
     15      45.3415      0.00000
     16      47.1352      0.00000
     17      52.0588      0.00000
     18      52.2838      0.00000
     19      54.4445      0.00000
     20      54.8934      0.00000
     21      56.2931      0.00000
     22      57.4326      0.00000
     23      58.3374      0.00000
     24      59.3939      0.00000
     25      59.6810      0.00000
     26      60.3255      0.00000
     27      62.6885      0.00000
     28      63.3819      0.00000
     29      64.3639      0.00000
     30      65.5070      0.00000
     31      65.5929      0.00000
     32      72.4186      0.00000
     33      73.9037      0.00000
     34      78.8818      0.00000
     35      79.3897      0.00000
     36      83.6741      0.00000
     37      88.4685      0.00000
     38      88.8435      0.00000
     39      92.3167      0.00000
     40      93.7357      0.00000
     41      95.2003      0.00000
     42      95.4288      0.00000
     43      97.8010      0.00000
     44      98.2274      0.00000
     45      99.4937      0.00000
     46     100.2028      0.00000
     47     102.8763      0.00000
     48     103.9443      0.00000

 k-point   255 :      -0.3000    0.5000    0.2000
  band No.  band energies     occupation 
      1       6.3604      1.00000
      2       7.6842      1.00352
      3       8.0212      0.02486
      4       9.6211      0.00000
      5      21.3490      0.00000
      6      22.9350      0.00000
      7      26.2259      0.00000
      8      27.6485      0.00000
      9      34.9753      0.00000
     10      39.7770      0.00000
     11      41.9719      0.00000
     12      42.3411      0.00000
     13      42.8300      0.00000
     14      43.9807      0.00000
     15      44.0231      0.00000
     16      45.1169      0.00000
     17      51.0095      0.00000
     18      53.7144      0.00000
     19      53.8929      0.00000
     20      54.8947      0.00000
     21      56.3252      0.00000
     22      56.5746      0.00000
     23      57.5021      0.00000
     24      57.8681      0.00000
     25      59.7916      0.00000
     26      61.5234      0.00000
     27      62.6412      0.00000
     28      62.7999      0.00000
     29      65.2283      0.00000
     30      65.3574      0.00000
     31      67.5753      0.00000
     32      72.8472      0.00000
     33      75.3177      0.00000
     34      79.2241      0.00000
     35      79.3211      0.00000
     36      81.3604      0.00000
     37      88.2521      0.00000
     38      89.1884      0.00000
     39      91.1664      0.00000
     40      92.7834      0.00000
     41      95.2723      0.00000
     42      96.0377      0.00000
     43      97.0438      0.00000
     44      98.8351      0.00000
     45     101.2821      0.00000
     46     101.7549      0.00000
     47     101.9975      0.00000
     48     102.7034      0.00000

 k-point   256 :      -0.2500    0.5000    0.2500
  band No.  band energies     occupation 
      1       7.1072      1.00000
      2       7.1072      1.00000
      3       8.1261      0.00000
      4       9.0244      0.00000
      5      23.7262      0.00000
      6      23.7262      0.00000
      7      24.2522      0.00000
      8      26.2912      0.00000
      9      34.9972      0.00000
     10      39.7985      0.00000
     11      42.3423      0.00000
     12      42.3423      0.00000
     13      43.1562      0.00000
     14      43.1562      0.00000
     15      43.8799      0.00000
     16      44.9354      0.00000
     17      52.5094      0.00000
     18      52.5094      0.00000
     19      54.1796      0.00000
     20      54.8185      0.00000
     21      57.7025      0.00000
     22      57.7025      0.00000
     23      58.9401      0.00000
     24      59.2961      0.00000
     25      59.8730      0.00000
     26      60.2298      0.00000
     27      62.1212      0.00000
     28      62.1212      0.00000
     29      64.6196      0.00000
     30      64.6196      0.00000
     31      64.9198      0.00000
     32      73.0280      0.00000
     33      74.8253      0.00000
     34      79.3411      0.00000
     35      79.3411      0.00000
     36      80.9971      0.00000
     37      89.2508      0.00000
     38      89.2508      0.00000
     39      94.3662      0.00000
     40      94.5558      0.00000
     41      96.1692      0.00000
     42      96.3112      0.00000
     43      97.4401      0.00000
     44      97.4401      0.00000
     45      99.1016      0.00000
     46      99.1016      0.00000
     47     102.5106      0.00000
     48     102.5141      0.00000


--------------------------------------------------------------------------------------------------------


 soft charge-density along one line, spin component           1
         0         1         2         3         4         5         6         7         8         9
 total charge-density along one line

 soft charge-density along one line, spin component           2
         0         1         2         3         4         5         6         7         8         9
 total charge-density along one line

 pseudopotential strength for first ion, spin component:           1
  8.445  14.393  -0.000   0.000   0.000  -0.000   0.000   0.000
 14.393  24.530  -0.000   0.000  -0.000  -0.000   0.000   0.000
 -0.000  -0.000   1.987  -0.000  -0.000   5.730  -0.000  -0.000
  0.000   0.000  -0.000   1.987  -0.000  -0.000   5.730  -0.000
  0.000  -0.000  -0.000  -0.000   1.987  -0.000  -0.000   5.730
 -0.000  -0.000   5.730  -0.000  -0.000  16.434  -0.000  -0.000
  0.000   0.000  -0.000   5.730  -0.000  -0.000  16.434  -0.000
  0.000   0.000  -0.000  -0.000   5.730  -0.000  -0.000  16.434
 pseudopotential strength for first ion, spin component:           2
  8.445  14.393  -0.000   0.000  -0.000  -0.000   0.000   0.000
 14.393  24.530  -0.000   0.000  -0.000  -0.000   0.000  -0.000
 -0.000  -0.000   1.987  -0.000  -0.000   5.730  -0.000  -0.000
  0.000   0.000  -0.000   1.987  -0.000  -0.000   5.730  -0.000
 -0.000  -0.000  -0.000  -0.000   1.987  -0.000  -0.000   5.730
 -0.000  -0.000   5.730  -0.000  -0.000  16.434  -0.000  -0.000
  0.000   0.000  -0.000   5.730  -0.000  -0.000  16.434  -0.000
  0.000  -0.000  -0.000  -0.000   5.730  -0.000  -0.000  16.434
 total augmentation occupancy for first ion, spin component:           1
  3.358  -0.827   0.000   0.000   0.000   0.000   0.000   0.000
 -0.827   0.270   0.000   0.000   0.000   0.000   0.000   0.000
  0.000   0.000   1.098   0.000   0.000  -0.070   0.000   0.000
  0.000   0.000   0.000   1.098   0.000   0.000  -0.070  -0.000
  0.000   0.000   0.000   0.000   1.098   0.000   0.000  -0.070
  0.000   0.000  -0.070  -0.000   0.000   0.005   0.000   0.000
  0.000   0.000   0.000  -0.070  -0.000   0.000   0.005   0.000
  0.000   0.000   0.000   0.000  -0.070   0.000   0.000   0.005
 total augmentation occupancy for first ion, spin component:           2
  0.017  -0.006   0.000   0.000   0.000   0.000   0.000   0.000
 -0.006   0.002   0.000   0.000   0.000   0.000   0.000   0.000
  0.000   0.000   0.002   0.000   0.000  -0.000   0.000   0.000
  0.000   0.000   0.000   0.002   0.000   0.000  -0.000   0.000
  0.000   0.000   0.000   0.000   0.002   0.000   0.000  -0.000
  0.000   0.000  -0.000   0.000   0.000   0.000   0.000   0.000
  0.000   0.000   0.000  -0.000   0.000   0.000   0.000   0.000
  0.000   0.000   0.000   0.000  -0.000   0.000   0.000   0.000


------------------------ aborting loop because EDIFF is reached ----------------------------------------





 total charge

# of ion       s       p       d       tot
------------------------------------------
    1        0.427   0.338   0.000   0.765



 magnetization (x)

# of ion       s       p       d       tot
------------------------------------------
    1       -0.000  -0.000   0.000  -0.000

    CHARGE:  cpu time    0.0952: real time    0.0952
    FORLOC:  cpu time    0.0003: real time    0.0003
    FORNL :  cpu time    0.0182: real time    0.0184
    STRESS:  cpu time    0.2257: real time    0.2257
    FORCOR:  cpu time    0.0047: real time    0.0048
    FORHAR:  cpu time    0.0008: real time    0.0008
    MIXING:  cpu time    0.0003: real time    0.0003
    OFIELD:  cpu time    0.0000: real time    0.0000

  FORCE on cell =-STRESS in cart. coord.  units (eV):
  Direction    XX          YY          ZZ          XY          YZ          ZX
  --------------------------------------------------------------------------------------
  Alpha Z    -0.20255    -0.20255    -0.20255
  Ewald     -24.46432   -24.46432   -24.46432    -0.00000    -0.00000     0.00000
  Hartree     0.03470     0.03470     0.03470     0.00000     0.00000     0.00000
  E(xc)      -8.54984    -8.54984    -8.54984     0.00000     0.00000     0.00000
  Local       0.33917     0.33917     0.33917    -0.00000    -0.00000    -0.00000
  n-local    18.90324    18.58725    18.98349     0.46568    -0.59230     0.52542
  augment    -1.02825    -1.02825    -1.02825     0.00000     0.00000     0.00000
  Kinetic    12.29958    10.93486    21.66921    -9.61101     8.37304    -6.22390
  Fock        0.00000     0.00000     0.00000     0.00000     0.00000     0.00000
  -------------------------------------------------------------------------------------
  Total      -0.07855    -0.07855    -0.07855     0.00000     0.00000    -0.00000
  in kB      -7.58907    -7.58907    -7.58907     0.00000     0.00000    -0.00000
  external pressure =       -7.59 kB  Pullay stress =        0.00 kB


 VOLUME and BASIS-vectors are now :
 -----------------------------------------------------------------------------
  energy-cutoff  :      520.00
  volume of cell :       16.58
      direct lattice vectors                 reciprocal lattice vectors
     0.000000000  2.024000000  2.024000000    -0.247035573  0.247035573  0.247035573
     2.024000000  0.000000000  2.024000000     0.247035573 -0.247035573  0.247035573
     2.024000000  2.024000000  0.000000000     0.247035573  0.247035573 -0.247035573

  length of vectors
     2.862368250  2.862368250  2.862368250     0.427878164  0.427878164  0.427878164


 FORCES acting on ions
    electron-ion (+dipol)            ewald-force                    non-local-force                 convergence-correction
 -----------------------------------------------------------------------------------------------
   0.124E-14 0.360E-15 0.725E-15   0.817E-16 0.470E-16 -.229E-15   0.258E-25 0.258E-25 0.258E-25   0.664E-18 0.433E-17 0.405E-17
 -----------------------------------------------------------------------------------------------
   0.124E-14 0.360E-15 0.725E-15   0.817E-16 0.470E-16 -.229E-15   0.258E-25 0.258E-25 0.258E-25   0.664E-18 0.433E-17 0.405E-17


 POSITION                                       TOTAL-FORCE (eV/Angst)
 -----------------------------------------------------------------------------------
      0.00000      0.00000      0.00000         0.000000      0.000000      0.000000
 -----------------------------------------------------------------------------------
    total drift:                                0.000000      0.000000      0.000000


--------------------------------------------------------------------------------------------------------



  FREE ENERGIE OF THE ION-ELECTRON SYSTEM (eV)
  ---------------------------------------------------
  free  energy   TOTEN  =        -3.74503233 eV

  energy  without entropy=       -3.74503233  energy(sigma->0) =       -3.74503233



--------------------------------------------------------------------------------------------------------


    POTLOK:  cpu time    0.1162: real time    0.1163


--------------------------------------------------------------------------------------------------------


 stress matrix after NEB project (eV)
     -0.07855      0.00000     -0.00000
      0.00000     -0.07855      0.00000
      0.00000      0.00000     -0.07855
  FORCES: max atom, RMS     0.000000    0.000000
  FORCE total and by dimension    0.000000    0.000000
  Stress total and by dimension    0.136051    0.078549
     LOOP+:  cpu time  208.8735: real time  209.0066
 -----------------------------------------------------------------------------
|                                                                             |
|           W    W    AA    RRRRR   N    N  II  N    N   GGGG   !!!           |
|           W    W   A  A   R    R  NN   N  II  NN   N  G    G  !!!           |
|           W    W  A    A  R    R  N N  N  II  N N  N  G       !!!           |
|           W WW W  AAAAAA  RRRRR   N  N N  II  N  N N  G  GGG   !            |
|           WW  WW  A    A  R   R   N   NN  II  N   NN  G    G                |
|           W    W  A    A  R    R  N    N  II  N    N   GGGG   !!!           |
|                                                                             |
|     Tetrahedron method does not include variations of the Fermi             |
|     occupations, so forces and stress will be inaccurate. We suggest        |
|     using a different smearing scheme ISMEAR = 1 or 2 for metals in         |
|     relaxations.                                                            |
|                                                                             |
 -----------------------------------------------------------------------------

    4ORBIT:  cpu time    0.0000: real time    0.0000



 total charge

# of ion       s       p       d       tot
------------------------------------------
    1        0.427   0.338   0.000   0.765



 magnetization (x)

# of ion       s       p       d       tot
------------------------------------------
    1       -0.000  -0.000   0.000  -0.000

 BZINTS: Fermi energy:    7.984809;    3.000000 electrons
         Band energy: 0.106114E+02;  BLOECHL correction:   -0.038554

 total amount of memory used by VASP MPI-rank0    43648. kBytes
=======================================================================

   base      :      30000. kBytes
   nonl-proj :       7872. kBytes
   fftplans  :        150. kBytes
   grid      :       1295. kBytes
   one-center:          6. kBytes
   wavefun   :       4325. kBytes

  
  
 General timing and accounting informations for this job:
 ========================================================
  
                  Total CPU time used (sec):      283.777
                            User time (sec):      280.317
                          System time (sec):        3.460
                         Elapsed time (sec):      283.864
  
                   Maximum memory used (kb):       65544.
                   Average memory used (kb):          N/A
  
                          Minor page faults:        52738
                          Major page faults:          414
                 Voluntary context switches:         2584
