   1   1   1   0
  0.1658294E+02  0.2862368E-09  0.2862368E-09  0.2862368E-09  0.5000000E-15
   1.0000000000000000E-004
  CAR 
 unknown system                          
    115.06375276     -8.78346496  301      8.00219839      1.00000000
     -8.783  0.0000E+00  0.0000E+00  0.0000E+00  0.0000E+00
     -8.371  0.0000E+00  0.0000E+00  0.0000E+00  0.0000E+00
     -7.958  0.0000E+00  0.0000E+00  0.0000E+00  0.0000E+00
     -7.545  0.0000E+00  0.0000E+00  0.0000E+00  0.0000E+00
     -7.132  0.0000E+00  0.0000E+00  0.0000E+00  0.0000E+00
     -6.719  0.0000E+00  0.0000E+00  0.0000E+00  0.0000E+00
     -6.307  0.0000E+00  0.0000E+00  0.0000E+00  0.0000E+00
     -5.894  0.0000E+00  0.0000E+00  0.0000E+00  0.0000E+00
     -5.481  0.0000E+00  0.0000E+00  0.0000E+00  0.0000E+00
     -5.068  0.0000E+00  0.0000E+00  0.0000E+00  0.0000E+00
     -4.655  0.0000E+00  0.0000E+00  0.0000E+00  0.0000E+00
     -4.242  0.0000E+00  0.0000E+00  0.0000E+00  0.0000E+00
     -3.830  0.0000E+00  0.0000E+00  0.0000E+00  0.0000E+00
     -3.417  0.0000E+00  0.0000E+00  0.0000E+00  0.0000E+00
     -3.004  0.9984E-02  0.1022E-01  0.4939E-03  0.5113E-03
     -2.591  0.3862E-01  0.3871E-01  0.1239E-01  0.1246E-01
     -2.178  0.5492E-01  0.5492E-01  0.3249E-01  0.3258E-01
     -1.765  0.6625E-01  0.6630E-01  0.5724E-01  0.5735E-01
     -1.353  0.7744E-01  0.7747E-01  0.8723E-01  0.8737E-01
     -0.940  0.8518E-01  0.8521E-01  0.1208E+00  0.1210E+00
     -0.527  0.9426E-01  0.9430E-01  0.1578E+00  0.1579E+00
     -0.114  0.1032E+00  0.1032E+00  0.1987E+00  0.1989E+00
      0.299  0.1090E+00  0.1091E+00  0.2424E+00  0.2426E+00
      0.711  0.1158E+00  0.1159E+00  0.2888E+00  0.2890E+00
      1.124  0.1235E+00  0.1235E+00  0.3382E+00  0.3384E+00
      1.537  0.1302E+00  0.1303E+00  0.3907E+00  0.3909E+00
      1.950  0.1359E+00  0.1359E+00  0.4456E+00  0.4458E+00
      2.363  0.1463E+00  0.1464E+00  0.5034E+00  0.5037E+00
      2.776  0.1704E+00  0.1705E+00  0.5683E+00  0.5686E+00
      3.188  0.1650E+00  0.1649E+00  0.6392E+00  0.6395E+00
      3.601  0.1641E+00  0.1641E+00  0.7058E+00  0.7061E+00
      4.014  0.1659E+00  0.1659E+00  0.7754E+00  0.7757E+00
      4.427  0.1490E+00  0.1493E+00  0.8363E+00  0.8365E+00
      4.840  0.1951E+00  0.1953E+00  0.9094E+00  0.9097E+00
      5.253  0.1918E+00  0.1916E+00  0.9923E+00  0.9926E+00
      5.665  0.1469E+00  0.1470E+00  0.1065E+01  0.1065E+01
      6.078  0.1751E+00  0.1753E+00  0.1130E+01  0.1130E+01
      6.491  0.1869E+00  0.1869E+00  0.1205E+01  0.1205E+01
      6.904  0.1971E+00  0.1971E+00  0.1283E+01  0.1283E+01
      7.317  0.2050E+00  0.2050E+00  0.1366E+01  0.1367E+01
      7.729  0.1940E+00  0.1939E+00  0.1449E+01  0.1450E+01
      8.142  0.1770E+00  0.1777E+00  0.1524E+01  0.1524E+01
      8.555  0.2212E+00  0.2210E+00  0.1610E+01  0.1611E+01
      8.968  0.2253E+00  0.2253E+00  0.1704E+01  0.1704E+01
      9.381  0.2042E+00  0.2042E+00  0.1792E+01  0.1793E+01
      9.794  0.2044E+00  0.2046E+00  0.1875E+01  0.1876E+01
     10.206  0.2280E+00  0.2280E+00  0.1965E+01  0.1966E+01
     10.619  0.2427E+00  0.2427E+00  0.2063E+01  0.2063E+01
     11.032  0.2208E+00  0.2208E+00  0.2158E+01  0.2158E+01
     11.445  0.2292E+00  0.2293E+00  0.2250E+01  0.2250E+01
     11.858  0.2871E+00  0.2898E+00  0.2350E+01  0.2351E+01
     12.271  0.2647E+00  0.2647E+00  0.2462E+01  0.2463E+01
     12.683  0.2680E+00  0.2681E+00  0.2571E+01  0.2572E+01
     13.096  0.2759E+00  0.2761E+00  0.2683E+01  0.2684E+01
     13.509  0.2983E+00  0.2985E+00  0.2801E+01  0.2802E+01
     13.922  0.2988E+00  0.2987E+00  0.2929E+01  0.2930E+01
     14.335  0.2925E+00  0.2931E+00  0.3046E+01  0.3047E+01
     14.748  0.2678E+00  0.2677E+00  0.3162E+01  0.3163E+01
     15.160  0.2614E+00  0.2614E+00  0.3271E+01  0.3271E+01
     15.573  0.2701E+00  0.2702E+00  0.3380E+01  0.3380E+01
     15.986  0.2630E+00  0.2629E+00  0.3490E+01  0.3491E+01
     16.399  0.2558E+00  0.2558E+00  0.3597E+01  0.3598E+01
     16.812  0.2562E+00  0.2562E+00  0.3703E+01  0.3704E+01
     17.224  0.2591E+00  0.2592E+00  0.3809E+01  0.3810E+01
     17.637  0.2691E+00  0.2692E+00  0.3918E+01  0.3919E+01
     18.050  0.2798E+00  0.2800E+00  0.4032E+01  0.4032E+01
     18.463  0.2938E+00  0.2939E+00  0.4150E+01  0.4151E+01
     18.876  0.3139E+00  0.3140E+00  0.4275E+01  0.4276E+01
     19.289  0.3573E+00  0.3576E+00  0.4413E+01  0.4415E+01
     19.701  0.3881E+00  0.3884E+00  0.4567E+01  0.4568E+01
     20.114  0.3994E+00  0.3994E+00  0.4731E+01  0.4732E+01
     20.527  0.3475E+00  0.3464E+00  0.4891E+01  0.4892E+01
     20.940  0.2672E+00  0.2669E+00  0.5013E+01  0.5014E+01
     21.353  0.2409E+00  0.2414E+00  0.5114E+01  0.5114E+01
     21.766  0.2594E+00  0.2594E+00  0.5220E+01  0.5221E+01
     22.178  0.2688E+00  0.2692E+00  0.5326E+01  0.5327E+01
     22.591  0.3709E+00  0.3758E+00  0.5454E+01  0.5455E+01
     23.004  0.5136E+00  0.5153E+00  0.5631E+01  0.5633E+01
     23.417  0.3543E+00  0.3526E+00  0.5812E+01  0.5813E+01
     23.830  0.2897E+00  0.2901E+00  0.5933E+01  0.5934E+01
     24.242  0.2916E+00  0.2913E+00  0.6056E+01  0.6057E+01
     24.655  0.2749E+00  0.2752E+00  0.6171E+01  0.6172E+01
     25.068  0.3184E+00  0.3188E+00  0.6292E+01  0.6294E+01
     25.481  0.3695E+00  0.3698E+00  0.6433E+01  0.6435E+01
     25.894  0.4759E+00  0.4767E+00  0.6604E+01  0.6606E+01
     26.307  0.4509E+00  0.4511E+00  0.6799E+01  0.6800E+01
     26.719  0.4199E+00  0.4183E+00  0.6985E+01  0.6986E+01
     27.132  0.3328E+00  0.3329E+00  0.7135E+01  0.7136E+01
     27.545  0.2931E+00  0.2931E+00  0.7263E+01  0.7264E+01
     27.958  0.3151E+00  0.3150E+00  0.7390E+01  0.7392E+01
     28.371  0.3332E+00  0.3337E+00  0.7520E+01  0.7522E+01
     28.784  0.3772E+00  0.3778E+00  0.7667E+01  0.7669E+01
     29.196  0.4160E+00  0.4163E+00  0.7832E+01  0.7833E+01
     29.609  0.4672E+00  0.4660E+00  0.8012E+01  0.8014E+01
     30.022  0.5095E+00  0.5097E+00  0.8213E+01  0.8215E+01
     30.435  0.4468E+00  0.4447E+00  0.8408E+01  0.8409E+01
     30.848  0.3676E+00  0.3673E+00  0.8569E+01  0.8571E+01
     31.260  0.3864E+00  0.3870E+00  0.8722E+01  0.8724E+01
     31.673  0.4538E+00  0.4548E+00  0.8894E+01  0.8896E+01
     32.086  0.4163E+00  0.4162E+00  0.9069E+01  0.9071E+01
     32.499  0.3951E+00  0.3947E+00  0.9237E+01  0.9239E+01
     32.912  0.3494E+00  0.3494E+00  0.9389E+01  0.9391E+01
     33.325  0.3595E+00  0.3594E+00  0.9539E+01  0.9541E+01
     33.737  0.3478E+00  0.3454E+00  0.9699E+01  0.9701E+01
     34.150  0.2410E+00  0.2404E+00  0.9813E+01  0.9814E+01
     34.563  0.1966E+00  0.1959E+00  0.9903E+01  0.9904E+01
     34.976  0.1721E+00  0.1720E+00  0.9977E+01  0.9978E+01
     35.389  0.1768E+00  0.1768E+00  0.1005E+02  0.1005E+02
     35.802  0.1876E+00  0.1878E+00  0.1012E+02  0.1012E+02
     36.214  0.1957E+00  0.1958E+00  0.1020E+02  0.1020E+02
     36.627  0.2391E+00  0.2393E+00  0.1029E+02  0.1029E+02
     37.040  0.2888E+00  0.2888E+00  0.1040E+02  0.1040E+02
     37.453  0.2938E+00  0.2931E+00  0.1053E+02  0.1053E+02
     37.866  0.2986E+00  0.2987E+00  0.1065E+02  0.1065E+02
     38.278  0.3182E+00  0.3183E+00  0.1077E+02  0.1077E+02
     38.691  0.3352E+00  0.3352E+00  0.1091E+02  0.1091E+02
     39.104  0.3321E+00  0.3323E+00  0.1104E+02  0.1105E+02
     39.517  0.4450E+00  0.4450E+00  0.1121E+02  0.1121E+02
     39.930  0.5098E+00  0.5107E+00  0.1140E+02  0.1140E+02
     40.343  0.6406E+00  0.6370E+00  0.1168E+02  0.1168E+02
     40.755  0.4895E+00  0.4899E+00  0.1189E+02  0.1189E+02
     41.168  0.4992E+00  0.5002E+00  0.1209E+02  0.1209E+02
     41.581  0.4160E+00  0.4161E+00  0.1227E+02  0.1227E+02
     41.994  0.3678E+00  0.3677E+00  0.1243E+02  0.1243E+02
     42.407  0.4044E+00  0.4049E+00  0.1258E+02  0.1259E+02
     42.820  0.4460E+00  0.4484E+00  0.1276E+02  0.1277E+02
     43.232  0.5736E+00  0.5724E+00  0.1300E+02  0.1301E+02
     43.645  0.5186E+00  0.5192E+00  0.1322E+02  0.1322E+02
     44.058  0.3815E+00  0.3804E+00  0.1343E+02  0.1343E+02
     44.471  0.4001E+00  0.3997E+00  0.1359E+02  0.1359E+02
     44.884  0.4002E+00  0.4007E+00  0.1375E+02  0.1375E+02
     45.296  0.4619E+00  0.4623E+00  0.1392E+02  0.1393E+02
     45.709  0.5405E+00  0.5395E+00  0.1413E+02  0.1413E+02
     46.122  0.5514E+00  0.5513E+00  0.1436E+02  0.1436E+02
     46.535  0.4883E+00  0.4879E+00  0.1457E+02  0.1457E+02
     46.948  0.4217E+00  0.4197E+00  0.1478E+02  0.1478E+02
     47.361  0.4053E+00  0.4059E+00  0.1493E+02  0.1493E+02
     47.773  0.5186E+00  0.5190E+00  0.1513E+02  0.1513E+02
     48.186  0.4925E+00  0.4925E+00  0.1534E+02  0.1534E+02
     48.599  0.4654E+00  0.4651E+00  0.1554E+02  0.1554E+02
     49.012  0.4453E+00  0.4454E+00  0.1572E+02  0.1572E+02
     49.425  0.4714E+00  0.4716E+00  0.1591E+02  0.1591E+02
     49.838  0.4099E+00  0.4091E+00  0.1611E+02  0.1611E+02
     50.250  0.2534E+00  0.2538E+00  0.1623E+02  0.1623E+02
     50.663  0.4254E+00  0.4271E+00  0.1636E+02  0.1636E+02
     51.076  0.7177E+00  0.7157E+00  0.1666E+02  0.1666E+02
     51.489  0.5517E+00  0.5505E+00  0.1692E+02  0.1692E+02
     51.902  0.4115E+00  0.4111E+00  0.1711E+02  0.1711E+02
     52.314  0.4063E+00  0.4066E+00  0.1727E+02  0.1727E+02
     52.727  0.5027E+00  0.5029E+00  0.1747E+02  0.1747E+02
     53.140  0.5836E+00  0.5841E+00  0.1768E+02  0.1769E+02
     53.553  0.7946E+00  0.7940E+00  0.1798E+02  0.1798E+02
     53.966  0.8848E+00  0.8858E+00  0.1830E+02  0.1830E+02
     54.379  0.9707E+00  0.9714E+00  0.1871E+02  0.1872E+02
     54.791  0.9498E+00  0.9517E+00  0.1907E+02  0.1907E+02
     55.204  0.1033E+01  0.1034E+01  0.1951E+02  0.1951E+02
     55.617  0.1259E+01  0.1260E+01  0.1996E+02  0.1996E+02
     56.030  0.1665E+01  0.1666E+01  0.2060E+02  0.2060E+02
     56.443  0.1001E+01  0.1001E+01  0.2112E+02  0.2112E+02
     56.856  0.1322E+01  0.1327E+01  0.2156E+02  0.2156E+02
     57.268  0.8210E+00  0.8206E+00  0.2203E+02  0.2203E+02
     57.681  0.7601E+00  0.7525E+00  0.2238E+02  0.2239E+02
     58.094  0.5333E+00  0.5338E+00  0.2262E+02  0.2262E+02
     58.507  0.5518E+00  0.5522E+00  0.2284E+02  0.2284E+02
     58.920  0.6664E+00  0.6681E+00  0.2307E+02  0.2307E+02
     59.333  0.1101E+01  0.1100E+01  0.2345E+02  0.2346E+02
     59.745  0.6890E+00  0.6887E+00  0.2382E+02  0.2382E+02
     60.158  0.5007E+00  0.5008E+00  0.2404E+02  0.2405E+02
     60.571  0.5086E+00  0.5087E+00  0.2425E+02  0.2425E+02
     60.984  0.5432E+00  0.5436E+00  0.2447E+02  0.2447E+02
     61.397  0.7585E+00  0.7585E+00  0.2475E+02  0.2475E+02
     61.809  0.5967E+00  0.5951E+00  0.2505E+02  0.2505E+02
     62.222  0.4805E+00  0.4800E+00  0.2527E+02  0.2527E+02
     62.635  0.5315E+00  0.5339E+00  0.2546E+02  0.2546E+02
     63.048  0.5663E+00  0.5661E+00  0.2571E+02  0.2571E+02
     63.461  0.5417E+00  0.5415E+00  0.2593E+02  0.2593E+02
     63.874  0.5869E+00  0.5873E+00  0.2615E+02  0.2615E+02
     64.286  0.5231E+00  0.5232E+00  0.2639E+02  0.2639E+02
     64.699  0.4837E+00  0.4837E+00  0.2660E+02  0.2660E+02
     65.112  0.5148E+00  0.5145E+00  0.2680E+02  0.2680E+02
     65.525  0.4582E+00  0.4583E+00  0.2700E+02  0.2700E+02
     65.938  0.4644E+00  0.4644E+00  0.2719E+02  0.2719E+02
     66.351  0.4286E+00  0.4283E+00  0.2738E+02  0.2738E+02
     66.763  0.3902E+00  0.3900E+00  0.2755E+02  0.2755E+02
     67.176  0.3884E+00  0.3883E+00  0.2771E+02  0.2771E+02
     67.589  0.3950E+00  0.3950E+00  0.2787E+02  0.2787E+02
     68.002  0.4464E+00  0.4468E+00  0.2804E+02  0.2804E+02
     68.415  0.6948E+00  0.6948E+00  0.2828E+02  0.2828E+02
     68.827  0.6147E+00  0.6128E+00  0.2855E+02  0.2855E+02
     69.240  0.4336E+00  0.4332E+00  0.2876E+02  0.2876E+02
     69.653  0.4288E+00  0.4290E+00  0.2893E+02  0.2893E+02
     70.066  0.4906E+00  0.4902E+00  0.2912E+02  0.2912E+02
     70.479  0.4975E+00  0.4974E+00  0.2932E+02  0.2932E+02
     70.892  0.4778E+00  0.4777E+00  0.2952E+02  0.2952E+02
     71.304  0.5212E+00  0.5214E+00  0.2973E+02  0.2973E+02
     71.717  0.5286E+00  0.5287E+00  0.2995E+02  0.2995E+02
     72.130  0.5164E+00  0.5164E+00  0.3016E+02  0.3016E+02
     72.543  0.4132E+00  0.4127E+00  0.3036E+02  0.3036E+02
     72.956  0.4235E+00  0.4234E+00  0.3053E+02  0.3053E+02
     73.369  0.3719E+00  0.3717E+00  0.3070E+02  0.3070E+02
     73.781  0.3563E+00  0.3562E+00  0.3085E+02  0.3085E+02
     74.194  0.3784E+00  0.3785E+00  0.3100E+02  0.3100E+02
     74.607  0.4819E+00  0.4822E+00  0.3117E+02  0.3117E+02
     75.020  0.6221E+00  0.6214E+00  0.3141E+02  0.3141E+02
     75.433  0.4791E+00  0.4793E+00  0.3163E+02  0.3163E+02
     75.845  0.5048E+00  0.5050E+00  0.3182E+02  0.3183E+02
     76.258  0.5870E+00  0.5873E+00  0.3206E+02  0.3207E+02
     76.671  0.4721E+00  0.4712E+00  0.3229E+02  0.3229E+02
     77.084  0.5226E+00  0.5244E+00  0.3247E+02  0.3247E+02
     77.497  0.6166E+00  0.6163E+00  0.3272E+02  0.3272E+02
     77.910  0.5421E+00  0.5426E+00  0.3296E+02  0.3296E+02
     78.322  0.6307E+00  0.6325E+00  0.3319E+02  0.3319E+02
     78.735  0.7246E+00  0.7253E+00  0.3346E+02  0.3346E+02
     79.148  0.4647E+00  0.4632E+00  0.3371E+02  0.3371E+02
     79.561  0.3438E+00  0.3460E+00  0.3387E+02  0.3387E+02
     79.974  0.3833E+00  0.3840E+00  0.3402E+02  0.3402E+02
     80.387  0.4747E+00  0.4746E+00  0.3420E+02  0.3420E+02
     80.799  0.5607E+00  0.5609E+00  0.3441E+02  0.3441E+02
     81.212  0.6492E+00  0.6497E+00  0.3466E+02  0.3466E+02
     81.625  0.5698E+00  0.5676E+00  0.3493E+02  0.3493E+02
     82.038  0.5916E+00  0.5919E+00  0.3516E+02  0.3516E+02
     82.451  0.6979E+00  0.6973E+00  0.3541E+02  0.3542E+02
     82.863  0.5321E+00  0.5317E+00  0.3567E+02  0.3567E+02
     83.276  0.6092E+00  0.6097E+00  0.3589E+02  0.3589E+02
     83.689  0.6982E+00  0.6989E+00  0.3616E+02  0.3616E+02
     84.102  0.7308E+00  0.7305E+00  0.3647E+02  0.3647E+02
     84.515  0.5502E+00  0.5496E+00  0.3673E+02  0.3673E+02
     84.928  0.4050E+00  0.4047E+00  0.3693E+02  0.3693E+02
     85.340  0.3786E+00  0.3787E+00  0.3709E+02  0.3709E+02
     85.753  0.4073E+00  0.4077E+00  0.3725E+02  0.3725E+02
     86.166  0.4460E+00  0.4453E+00  0.3743E+02  0.3744E+02
     86.579  0.4468E+00  0.4465E+00  0.3762E+02  0.3762E+02
     86.992  0.4941E+00  0.4942E+00  0.3782E+02  0.3782E+02
     87.405  0.6425E+00  0.6427E+00  0.3805E+02  0.3805E+02
     87.817  0.5266E+00  0.5260E+00  0.3831E+02  0.3831E+02
     88.230  0.4732E+00  0.4722E+00  0.3851E+02  0.3851E+02
     88.643  0.6224E+00  0.6219E+00  0.3874E+02  0.3874E+02
     89.056  0.5870E+00  0.5871E+00  0.3899E+02  0.3899E+02
     89.469  0.6801E+00  0.6802E+00  0.3925E+02  0.3925E+02
     89.881  0.5099E+00  0.5098E+00  0.3949E+02  0.3949E+02
     90.294  0.5694E+00  0.5694E+00  0.3972E+02  0.3972E+02
     90.707  0.6181E+00  0.6177E+00  0.3997E+02  0.3997E+02
     91.120  0.5813E+00  0.5815E+00  0.4021E+02  0.4021E+02
     91.533  0.6062E+00  0.6062E+00  0.4046E+02  0.4046E+02
     91.946  0.5331E+00  0.5330E+00  0.4069E+02  0.4069E+02
     92.358  0.6545E+00  0.6557E+00  0.4092E+02  0.4092E+02
     92.771  0.5438E+00  0.5439E+00  0.4117E+02  0.4117E+02
     93.184  0.5139E+00  0.5137E+00  0.4139E+02  0.4139E+02
     93.597  0.3901E+00  0.3896E+00  0.4158E+02  0.4158E+02
     94.010  0.4631E+00  0.4635E+00  0.4175E+02  0.4175E+02
     94.423  0.5639E+00  0.5644E+00  0.4196E+02  0.4196E+02
     94.835  0.6336E+00  0.6333E+00  0.4222E+02  0.4222E+02
     95.248  0.5768E+00  0.5755E+00  0.4248E+02  0.4248E+02
     95.661  0.6226E+00  0.6241E+00  0.4272E+02  0.4272E+02
     96.074  0.6311E+00  0.6312E+00  0.4300E+02  0.4300E+02
     96.487  0.6222E+00  0.6218E+00  0.4326E+02  0.4326E+02
     96.899  0.5755E+00  0.5756E+00  0.4349E+02  0.4350E+02
     97.312  0.6074E+00  0.6072E+00  0.4374E+02  0.4374E+02
     97.725  0.5538E+00  0.5534E+00  0.4399E+02  0.4399E+02
     98.138  0.5035E+00  0.5034E+00  0.4420E+02  0.4420E+02
     98.551  0.5491E+00  0.5502E+00  0.4441E+02  0.4441E+02
     98.964  0.5596E+00  0.5602E+00  0.4464E+02  0.4464E+02
     99.376  0.5139E+00  0.5138E+00  0.4486E+02  0.4486E+02
     99.789  0.4726E+00  0.4724E+00  0.4506E+02  0.4506E+02
    100.202  0.6532E+00  0.6540E+00  0.4529E+02  0.4529E+02
    100.615  0.7223E+00  0.7227E+00  0.4558E+02  0.4558E+02
    101.028  0.6784E+00  0.6777E+00  0.4589E+02  0.4589E+02
    101.441  0.6197E+00  0.6201E+00  0.4615E+02  0.4615E+02
    101.853  0.6220E+00  0.6217E+00  0.4640E+02  0.4640E+02
    102.266  0.4753E+00  0.4748E+00  0.4664E+02  0.4664E+02
    102.679  0.4038E+00  0.4038E+00  0.4681E+02  0.4681E+02
    103.092  0.4192E+00  0.4196E+00  0.4698E+02  0.4698E+02
    103.505  0.5167E+00  0.5179E+00  0.4715E+02  0.4715E+02
    103.918  0.3190E+00  0.3190E+00  0.4736E+02  0.4736E+02
    104.330  0.2622E+00  0.2622E+00  0.4747E+02  0.4747E+02
    104.743  0.2381E+00  0.2381E+00  0.4757E+02  0.4757E+02
    105.156  0.2508E+00  0.2508E+00  0.4767E+02  0.4767E+02
    105.569  0.2425E+00  0.2424E+00  0.4778E+02  0.4778E+02
    105.982  0.1855E+00  0.1852E+00  0.4787E+02  0.4787E+02
    106.394  0.1009E+00  0.1006E+00  0.4793E+02  0.4793E+02
    106.807  0.4449E-01  0.4429E-01  0.4796E+02  0.4796E+02
    107.220  0.1774E-01  0.1774E-01  0.4797E+02  0.4797E+02
    107.633  0.2072E-01  0.2079E-01  0.4797E+02  0.4798E+02
    108.046  0.3367E-01  0.3353E-01  0.4799E+02  0.4799E+02
    108.459  0.1345E-01  0.1338E-01  0.4800E+02  0.4800E+02
    108.871  0.4058E-02  0.4032E-02  0.4800E+02  0.4800E+02
    109.284  0.2886E-03  0.2824E-03  0.4800E+02  0.4800E+02
    109.697  0.0000E+00  0.0000E+00  0.4800E+02  0.4800E+02
    110.110  0.0000E+00  0.0000E+00  0.4800E+02  0.4800E+02
    110.523  0.0000E+00  0.0000E+00  0.4800E+02  0.4800E+02
    110.936  0.0000E+00  0.0000E+00  0.4800E+02  0.4800E+02
    111.348  0.0000E+00  0.0000E+00  0.4800E+02  0.4800E+02
    111.761  0.0000E+00  0.0000E+00  0.4800E+02  0.4800E+02
    112.174  0.0000E+00  0.0000E+00  0.4800E+02  0.4800E+02
    112.587  0.0000E+00  0.0000E+00  0.4800E+02  0.4800E+02
    113.000  0.0000E+00  0.0000E+00  0.4800E+02  0.4800E+02
    113.412  0.0000E+00  0.0000E+00  0.4800E+02  0.4800E+02
    113.825  0.0000E+00  0.0000E+00  0.4800E+02  0.4800E+02
    114.238  0.0000E+00  0.0000E+00  0.4800E+02  0.4800E+02
    114.651  0.0000E+00  0.0000E+00  0.4800E+02  0.4800E+02
    115.064  0.0000E+00  0.0000E+00  0.4800E+02  0.4800E+02
    115.06375276     -8.78346496  301      8.00219839      1.00000000
     -8.783  0.0000E+00  0.0000E+00  0.0000E+00  0.0000E+00  0.0000E+00  0.0000E+00  0.0000E+00  0.0000E+00  0.0000E+00  0.0000E+00  0.0000E+00  0.0000E+00  0.0000E+00  0.0000E+00  0.0000E+00  0.0000E+00  0.0000E+00  0.0000E+00
     -8.371  0.0000E+00  0.0000E+00  0.0000E+00  0.0000E+00  0.0000E+00  0.0000E+00  0.0000E+00  0.0000E+00  0.0000E+00  0.0000E+00  0.0000E+00  0.0000E+00  0.0000E+00  0.0000E+00  0.0000E+00  0.0000E+00  0.0000E+00  0.0000E+00
     -7.958  0.0000E+00  0.0000E+00  0.0000E+00  0.0000E+00  0.0000E+00  0.0000E+00  0.0000E+00  0.0000E+00  0.0000E+00  0.0000E+00  0.0000E+00  0.0000E+00  0.0000E+00  0.0000E+00  0.0000E+00  0.0000E+00  0.0000E+00  0.0000E+00
     -7.545  0.0000E+00  0.0000E+00  0.0000E+00  0.0000E+00  0.0000E+00  0.0000E+00  0.0000E+00  0.0000E+00  0.0000E+00  0.0000E+00  0.0000E+00  0.0000E+00  0.0000E+00  0.0000E+00  0.0000E+00  0.0000E+00  0.0000E+00  0.0000E+00
     -7.132  0.0000E+00  0.0000E+00  0.0000E+00  0.0000E+00  0.0000E+00  0.0000E+00  0.0000E+00  0.0000E+00  0.0000E+00  0.0000E+00  0.0000E+00  0.0000E+00  0.0000E+00  0.0000E+00  0.0000E+00  0.0000E+00  0.0000E+00  0.0000E+00
     -6.719  0.0000E+00  0.0000E+00  0.0000E+00  0.0000E+00  0.0000E+00  0.0000E+00  0.0000E+00  0.0000E+00  0.0000E+00  0.0000E+00  0.0000E+00  0.0000E+00  0.0000E+00  0.0000E+00  0.0000E+00  0.0000E+00  0.0000E+00  0.0000E+00
     -6.307  0.0000E+00  0.0000E+00  0.0000E+00  0.0000E+00  0.0000E+00  0.0000E+00  0.0000E+00  0.0000E+00  0.0000E+00  0.0000E+00  0.0000E+00  0.0000E+00  0.0000E+00  0.0000E+00  0.0000E+00  0.0000E+00  0.0000E+00  0.0000E+00
     -5.894  0.0000E+00  0.0000E+00  0.0000E+00  0.0000E+00  0.0000E+00  0.0000E+00  0.0000E+00  0.0000E+00  0.0000E+00  0.0000E+00  0.0000E+00  0.0000E+00  0.0000E+00  0.0000E+00  0.0000E+00  0.0000E+00  0.0000E+00  0.0000E+00
     -5.481  0.0000E+00  0.0000E+00  0.0000E+00  0.0000E+00  0.0000E+00  0.0000E+00  0.0000E+00  0.0000E+00  0.0000E+00  0.0000E+00  0.0000E+00  0.0000E+00  0.0000E+00  0.0000E+00  0.0000E+00  0.0000E+00  0.0000E+00  0.0000E+00
     -5.068  0.0000E+00  0.0000E+00  0.0000E+00  0.0000E+00  0.0000E+00  0.0000E+00  0.0000E+00  0.0000E+00  0.0000E+00  0.0000E+00  0.0000E+00  0.0000E+00  0.0000E+00  0.0000E+00  0.0000E+00  0.0000E+00  0.0000E+00  0.0000E+00
     -4.655  0.0000E+00  0.0000E+00  0.0000E+00  0.0000E+00  0.0000E+00  0.0000E+00  0.0000E+00  0.0000E+00  0.0000E+00  0.0000E+00  0.0000E+00  0.0000E+00  0.0000E+00  0.0000E+00  0.0000E+00  0.0000E+00  0.0000E+00  0.0000E+00
     -4.242  0.0000E+00  0.0000E+00  0.0000E+00  0.0000E+00  0.0000E+00  0.0000E+00  0.0000E+00  0.0000E+00  0.0000E+00  0.0000E+00  0.0000E+00  0.0000E+00  0.0000E+00  0.0000E+00  0.0000E+00  0.0000E+00  0.0000E+00  0.0000E+00
     -3.830  0.0000E+00  0.0000E+00  0.0000E+00  0.0000E+00  0.0000E+00  0.0000E+00  0.0000E+00  0.0000E+00  0.0000E+00  0.0000E+00  0.0000E+00  0.0000E+00  0.0000E+00  0.0000E+00  0.0000E+00  0.0000E+00  0.0000E+00  0.0000E+00
     -3.417  0.0000E+00  0.0000E+00  0.0000E+00  0.0000E+00  0.0000E+00  0.0000E+00  0.0000E+00  0.0000E+00  0.0000E+00  0.0000E+00  0.0000E+00  0.0000E+00  0.0000E+00  0.0000E+00  0.0000E+00  0.0000E+00  0.0000E+00  0.0000E+00
     -3.004  0.2644E-02  0.2707E-02  0.1518E-04  0.1554E-04  0.1518E-04  0.1554E-04  0.1518E-04  0.1554E-04  0.0000E+00  0.0000E+00  0.0000E+00  0.0000E+00  0.0000E+00  0.0000E+00  0.0000E+00  0.0000E+00  0.0000E+00  0.0000E+00
     -2.591  0.9919E-02  0.9949E-02  0.1617E-03  0.1625E-03  0.1617E-03  0.1625E-03  0.1617E-03  0.1625E-03  0.0000E+00  0.0000E+00  0.0000E+00  0.0000E+00  0.0000E+00  0.0000E+00  0.0000E+00  0.0000E+00  0.0000E+00  0.0000E+00
     -2.178  0.1367E-01  0.1368E-01  0.3740E-03  0.3754E-03  0.3740E-03  0.3754E-03  0.3740E-03  0.3754E-03  0.0000E+00  0.0000E+00  0.0000E+00  0.0000E+00  0.0000E+00  0.0000E+00  0.0000E+00  0.0000E+00  0.0000E+00  0.0000E+00
     -1.765  0.1596E-01  0.1599E-01  0.6246E-03  0.6259E-03  0.6246E-03  0.6259E-03  0.6246E-03  0.6259E-03  0.0000E+00  0.0000E+00  0.0000E+00  0.0000E+00  0.0000E+00  0.0000E+00  0.0000E+00  0.0000E+00  0.0000E+00  0.0000E+00
     -1.353  0.1808E-01  0.1810E-01  0.9161E-03  0.9178E-03  0.9161E-03  0.9178E-03  0.9161E-03  0.9178E-03  0.0000E+00  0.0000E+00  0.0000E+00  0.0000E+00  0.0000E+00  0.0000E+00  0.0000E+00  0.0000E+00  0.0000E+00  0.0000E+00
     -0.940  0.1911E-01  0.1913E-01  0.1258E-02  0.1260E-02  0.1258E-02  0.1260E-02  0.1258E-02  0.1260E-02  0.0000E+00  0.0000E+00  0.0000E+00  0.0000E+00  0.0000E+00  0.0000E+00  0.0000E+00  0.0000E+00  0.0000E+00  0.0000E+00
     -0.527  0.2048E-01  0.2050E-01  0.1600E-02  0.1602E-02  0.1600E-02  0.1602E-02  0.1600E-02  0.1602E-02  0.0000E+00  0.0000E+00  0.0000E+00  0.0000E+00  0.0000E+00  0.0000E+00  0.0000E+00  0.0000E+00  0.0000E+00  0.0000E+00
     -0.114  0.2171E-01  0.2173E-01  0.1970E-02  0.1973E-02  0.1970E-02  0.1973E-02  0.1970E-02  0.1973E-02  0.0000E+00  0.0000E+00  0.0000E+00  0.0000E+00  0.0000E+00  0.0000E+00  0.0000E+00  0.0000E+00  0.0000E+00  0.0000E+00
      0.299  0.2187E-01  0.2189E-01  0.2407E-02  0.2410E-02  0.2407E-02  0.2410E-02  0.2407E-02  0.2410E-02  0.0000E+00  0.0000E+00  0.0000E+00  0.0000E+00  0.0000E+00  0.0000E+00  0.0000E+00  0.0000E+00  0.0000E+00  0.0000E+00
      0.711  0.2228E-01  0.2230E-01  0.2842E-02  0.2845E-02  0.2842E-02  0.2845E-02  0.2842E-02  0.2845E-02  0.0000E+00  0.0000E+00  0.0000E+00  0.0000E+00  0.0000E+00  0.0000E+00  0.0000E+00  0.0000E+00  0.0000E+00  0.0000E+00
      1.124  0.2288E-01  0.2291E-01  0.3280E-02  0.3283E-02  0.3280E-02  0.3283E-02  0.3280E-02  0.3283E-02  0.0000E+00  0.0000E+00  0.0000E+00  0.0000E+00  0.0000E+00  0.0000E+00  0.0000E+00  0.0000E+00  0.0000E+00  0.0000E+00
      1.537  0.2302E-01  0.2304E-01  0.3778E-02  0.3781E-02  0.3778E-02  0.3781E-02  0.3778E-02  0.3781E-02  0.0000E+00  0.0000E+00  0.0000E+00  0.0000E+00  0.0000E+00  0.0000E+00  0.0000E+00  0.0000E+00  0.0000E+00  0.0000E+00
      1.950  0.2244E-01  0.2246E-01  0.4369E-02  0.4373E-02  0.4369E-02  0.4373E-02  0.4369E-02  0.4373E-02  0.0000E+00  0.0000E+00  0.0000E+00  0.0000E+00  0.0000E+00  0.0000E+00  0.0000E+00  0.0000E+00  0.0000E+00  0.0000E+00
      2.363  0.2204E-01  0.2206E-01  0.5242E-02  0.5247E-02  0.5242E-02  0.5247E-02  0.5242E-02  0.5247E-02  0.0000E+00  0.0000E+00  0.0000E+00  0.0000E+00  0.0000E+00  0.0000E+00  0.0000E+00  0.0000E+00  0.0000E+00  0.0000E+00
      2.776  0.2317E-01  0.2320E-01  0.6718E-02  0.6726E-02  0.6718E-02  0.6726E-02  0.6718E-02  0.6726E-02  0.0000E+00  0.0000E+00  0.0000E+00  0.0000E+00  0.0000E+00  0.0000E+00  0.0000E+00  0.0000E+00  0.0000E+00  0.0000E+00
      3.188  0.2116E-01  0.2117E-01  0.6833E-02  0.6834E-02  0.6833E-02  0.6834E-02  0.6833E-02  0.6834E-02  0.0000E+00  0.0000E+00  0.0000E+00  0.0000E+00  0.0000E+00  0.0000E+00  0.0000E+00  0.0000E+00  0.0000E+00  0.0000E+00
      3.601  0.1867E-01  0.1869E-01  0.7379E-02  0.7387E-02  0.7379E-02  0.7387E-02  0.7379E-02  0.7387E-02  0.0000E+00  0.0000E+00  0.0000E+00  0.0000E+00  0.0000E+00  0.0000E+00  0.0000E+00  0.0000E+00  0.0000E+00  0.0000E+00
      4.014  0.1695E-01  0.1696E-01  0.7947E-02  0.7948E-02  0.7947E-02  0.7948E-02  0.7947E-02  0.7948E-02  0.0000E+00  0.0000E+00  0.0000E+00  0.0000E+00  0.0000E+00  0.0000E+00  0.0000E+00  0.0000E+00  0.0000E+00  0.0000E+00
      4.427  0.1472E-01  0.1478E-01  0.7367E-02  0.7379E-02  0.7367E-02  0.7379E-02  0.7367E-02  0.7379E-02  0.0000E+00  0.0000E+00  0.0000E+00  0.0000E+00  0.0000E+00  0.0000E+00  0.0000E+00  0.0000E+00  0.0000E+00  0.0000E+00
      4.840  0.2063E-01  0.2066E-01  0.9405E-02  0.9420E-02  0.9405E-02  0.9420E-02  0.9405E-02  0.9420E-02  0.0000E+00  0.0000E+00  0.0000E+00  0.0000E+00  0.0000E+00  0.0000E+00  0.0000E+00  0.0000E+00  0.0000E+00  0.0000E+00
      5.253  0.1903E-01  0.1903E-01  0.9552E-02  0.9549E-02  0.9552E-02  0.9549E-02  0.9552E-02  0.9549E-02  0.0000E+00  0.0000E+00  0.0000E+00  0.0000E+00  0.0000E+00  0.0000E+00  0.0000E+00  0.0000E+00  0.0000E+00  0.0000E+00
      5.665  0.1770E-01  0.1774E-01  0.6591E-02  0.6596E-02  0.6591E-02  0.6596E-02  0.6591E-02  0.6596E-02  0.0000E+00  0.0000E+00  0.0000E+00  0.0000E+00  0.0000E+00  0.0000E+00  0.0000E+00  0.0000E+00  0.0000E+00  0.0000E+00
      6.078  0.1883E-01  0.1885E-01  0.8379E-02  0.8397E-02  0.8379E-02  0.8397E-02  0.8379E-02  0.8397E-02  0.0000E+00  0.0000E+00  0.0000E+00  0.0000E+00  0.0000E+00  0.0000E+00  0.0000E+00  0.0000E+00  0.0000E+00  0.0000E+00
      6.491  0.1951E-01  0.1952E-01  0.9059E-02  0.9067E-02  0.9059E-02  0.9067E-02  0.9059E-02  0.9067E-02  0.0000E+00  0.0000E+00  0.0000E+00  0.0000E+00  0.0000E+00  0.0000E+00  0.0000E+00  0.0000E+00  0.0000E+00  0.0000E+00
      6.904  0.1851E-01  0.1854E-01  0.9725E-02  0.9730E-02  0.9725E-02  0.9730E-02  0.9725E-02  0.9730E-02  0.0000E+00  0.0000E+00  0.0000E+00  0.0000E+00  0.0000E+00  0.0000E+00  0.0000E+00  0.0000E+00  0.0000E+00  0.0000E+00
      7.317  0.1984E-01  0.1986E-01  0.9555E-02  0.9560E-02  0.9555E-02  0.9560E-02  0.9555E-02  0.9560E-02  0.0000E+00  0.0000E+00  0.0000E+00  0.0000E+00  0.0000E+00  0.0000E+00  0.0000E+00  0.0000E+00  0.0000E+00  0.0000E+00
      7.729  0.1687E-01  0.1686E-01  0.9295E-02  0.9298E-02  0.9295E-02  0.9298E-02  0.9295E-02  0.9298E-02  0.0000E+00  0.0000E+00  0.0000E+00  0.0000E+00  0.0000E+00  0.0000E+00  0.0000E+00  0.0000E+00  0.0000E+00  0.0000E+00
      8.142  0.1482E-01  0.1496E-01  0.8819E-02  0.8849E-02  0.8819E-02  0.8849E-02  0.8819E-02  0.8849E-02  0.0000E+00  0.0000E+00  0.0000E+00  0.0000E+00  0.0000E+00  0.0000E+00  0.0000E+00  0.0000E+00  0.0000E+00  0.0000E+00
      8.555  0.2064E-01  0.2060E-01  0.1066E-01  0.1066E-01  0.1066E-01  0.1066E-01  0.1066E-01  0.1066E-01  0.0000E+00  0.0000E+00  0.0000E+00  0.0000E+00  0.0000E+00  0.0000E+00  0.0000E+00  0.0000E+00  0.0000E+00  0.0000E+00
      8.968  0.2113E-01  0.2116E-01  0.1073E-01  0.1073E-01  0.1073E-01  0.1073E-01  0.1073E-01  0.1073E-01  0.0000E+00  0.0000E+00  0.0000E+00  0.0000E+00  0.0000E+00  0.0000E+00  0.0000E+00  0.0000E+00  0.0000E+00  0.0000E+00
      9.381  0.1885E-01  0.1886E-01  0.9651E-02  0.9659E-02  0.9651E-02  0.9659E-02  0.9651E-02  0.9659E-02  0.0000E+00  0.0000E+00  0.0000E+00  0.0000E+00  0.0000E+00  0.0000E+00  0.0000E+00  0.0000E+00  0.0000E+00  0.0000E+00
      9.794  0.2094E-01  0.2101E-01  0.9540E-02  0.9558E-02  0.9540E-02  0.9558E-02  0.9540E-02  0.9558E-02  0.0000E+00  0.0000E+00  0.0000E+00  0.0000E+00  0.0000E+00  0.0000E+00  0.0000E+00  0.0000E+00  0.0000E+00  0.0000E+00
     10.206  0.2310E-01  0.2313E-01  0.1086E-01  0.1088E-01  0.1086E-01  0.1088E-01  0.1086E-01  0.1088E-01  0.0000E+00  0.0000E+00  0.0000E+00  0.0000E+00  0.0000E+00  0.0000E+00  0.0000E+00  0.0000E+00  0.0000E+00  0.0000E+00
     10.619  0.2297E-01  0.2297E-01  0.1188E-01  0.1190E-01  0.1188E-01  0.1190E-01  0.1188E-01  0.1190E-01  0.0000E+00  0.0000E+00  0.0000E+00  0.0000E+00  0.0000E+00  0.0000E+00  0.0000E+00  0.0000E+00  0.0000E+00  0.0000E+00
     11.032  0.2053E-01  0.2054E-01  0.1085E-01  0.1086E-01  0.1085E-01  0.1086E-01  0.1085E-01  0.1086E-01  0.0000E+00  0.0000E+00  0.0000E+00  0.0000E+00  0.0000E+00  0.0000E+00  0.0000E+00  0.0000E+00  0.0000E+00  0.0000E+00
     11.445  0.2142E-01  0.2145E-01  0.1157E-01  0.1159E-01  0.1157E-01  0.1159E-01  0.1157E-01  0.1159E-01  0.0000E+00  0.0000E+00  0.0000E+00  0.0000E+00  0.0000E+00  0.0000E+00  0.0000E+00  0.0000E+00  0.0000E+00  0.0000E+00
     11.858  0.2861E-01  0.2895E-01  0.1545E-01  0.1564E-01  0.1545E-01  0.1564E-01  0.1545E-01  0.1564E-01  0.0000E+00  0.0000E+00  0.0000E+00  0.0000E+00  0.0000E+00  0.0000E+00  0.0000E+00  0.0000E+00  0.0000E+00  0.0000E+00