    1    1    1    2
  0.1658294E+02  0.2862368E-09  0.2862368E-09  0.2862368E-09  0.5000000E-15
   1.0000000000000000E-004
  CAR 
 unknown system                          
      3     47     48

  0.1262379E-14  0.1262379E-14  0.1262379E-14  0.1000000E-02
    1       -3.152323     -3.154046   1.000000   1.000000
    2       20.539112     20.537734   0.000000   0.000000
    3       20.539112     20.537734   0.000000   0.000000
    4       20.539112     20.537734   0.000000   0.000000
    5       21.993235     21.987450   0.000000   0.000000
    6       21.993235     21.987450   0.000000   0.000000
    7       21.993235     21.987451   0.000000   0.000000
    8       24.375450     24.376140   0.000000   0.000000
    9       27.313827     27.309603   0.000000   0.000000
   10       27.313827     27.309603   0.000000   0.000000
   11       30.161285     30.159053   0.000000   0.000000
   12       32.510626     32.509887   0.000000   0.000000
   13       32.510626     32.509887   0.000000   0.000000
   14       32.510626     32.509888   0.000000   0.000000
   15       41.058590     41.056147   0.000000   0.000000
   16       56.009747     56.008336   0.000000   0.000000
   17       56.009748     56.008337   0.000000   0.000000
   18       56.009748     56.008337   0.000000   0.000000
   19       56.045805     56.045560   0.000000   0.000000
   20       59.211694     59.208874   0.000000   0.000000
   21       59.211694     59.208875   0.000000   0.000000
   22       59.211694     59.208875   0.000000   0.000000
   23       62.831988     62.831425   0.000000   0.000000
   24       62.831988     62.831425   0.000000   0.000000
   25       65.076699     65.072298   0.000000   0.000000
   26       65.076699     65.072298   0.000000   0.000000
   27       65.076699     65.072298   0.000000   0.000000
   28       73.176345     73.175573   0.000000   0.000000
   29       73.176345     73.175573   0.000000   0.000000
   30       73.176346     73.175574   0.000000   0.000000
   31       80.818118     80.817668   0.000000   0.000000
   32       83.077139     83.075250   0.000000   0.000000
   33       83.077139     83.075250   0.000000   0.000000
   34       87.204371     87.204583   0.000000   0.000000
   35       87.204371     87.204584   0.000000   0.000000
   36       87.204371     87.204587   0.000000   0.000000
   37       90.087816     90.081266   0.000000   0.000000
   38       90.087816     90.081266   0.000000   0.000000
   39       90.087816     90.081266   0.000000   0.000000
   40       90.894896     90.887362   0.000000   0.000000
   41       93.460161     93.459963   0.000000   0.000000
   42       93.460161     93.459963   0.000000   0.000000
   43       93.460161     93.459963   0.000000   0.000000
   44       93.935085     93.931003   0.000000   0.000000
   45       93.935085     93.931004   0.000000   0.000000
   46       93.935085     93.931004   0.000000   0.000000
   47       96.373268     96.373920   0.000000   0.000000
   48       96.373268     96.373921   0.000000   0.000000

  0.1000000E+00  0.1265938E-14  0.1265938E-14  0.8000000E-02
    1       -2.881531     -2.883254   1.000000   1.000000
    2       17.250531     17.248426   0.000000   0.000000
    3       19.808248     19.805754   0.000000   0.000000
    4       19.808248     19.805754   0.000000   0.000000
    5       22.661619     22.658137   0.000000   0.000000
    6       23.128613     23.123702   0.000000   0.000000
    7       23.128613     23.123703   0.000000   0.000000
    8       26.028692     26.025422   0.000000   0.000000
    9       26.028692     26.025422   0.000000   0.000000
   10       26.812090     26.811400   0.000000   0.000000
   11       29.276413     29.274299   0.000000   0.000000
   12       33.815964     33.814699   0.000000   0.000000
   13       34.353991     34.352469   0.000000   0.000000
   14       34.353991     34.352470   0.000000   0.000000
   15       42.106397     42.104140   0.000000   0.000000
   16       55.171503     55.170646   0.000000   0.000000
   17       55.365214     55.363352   0.000000   0.000000
   18       55.365214     55.363352   0.000000   0.000000
   19       56.373210     56.372292   0.000000   0.000000
   20       56.948557     56.946108   0.000000   0.000000
   21       56.948557     56.946109   0.000000   0.000000
   22       59.192645     59.189983   0.000000   0.000000
   23       61.552994     61.551506   0.000000   0.000000
   24       61.552994     61.551508   0.000000   0.000000
   25       65.319486     65.315026   0.000000   0.000000
   26       69.398544     69.395375   0.000000   0.000000
   27       69.398545     69.395375   0.000000   0.000000
   28       71.269048     71.268482   0.000000   0.000000
   29       72.944494     72.943325   0.000000   0.000000
   30       72.944494     72.943326   0.000000   0.000000
   31       81.558340     81.555892   0.000000   0.000000
   32       81.558340     81.555892   0.000000   0.000000
   33       82.173926     82.172142   0.000000   0.000000
   34       84.112945     84.110389   0.000000   0.000000
   35       85.568843     85.568925   0.000000   0.000000
   36       85.568844     85.568925   0.000000   0.000000
   37       87.689555     87.687155   0.000000   0.000000
   38       87.689555     87.687156   0.000000   0.000000
   39       88.565096     88.563219   0.000000   0.000000
   40       90.020253     90.013945   0.000000   0.000000
   41       91.119030     91.117081   0.000000   0.000000
   42       91.119030     91.117081   0.000000   0.000000
   43       92.788179     92.787222   0.000000   0.000000
   44       94.216733     94.217885   0.000000   0.000000
   45       95.839720     95.840376   0.000000   0.000000
   46       95.839720     95.840376   0.000000   0.000000
   47       97.444224     97.440217   0.000000   0.000000
   48       97.444234     97.440218   0.000000   0.000000

  0.2000000E+00  0.1261337E-14  0.1261337E-14  0.8000000E-02
    1       -2.072270     -2.073993   1.000000   1.000000
    2       13.265297     13.263329   0.000000   0.000000
    3       19.049291     19.046450   0.000000   0.000000
    4       19.049291     19.046450   0.000000   0.000000
    5       22.378473     22.375710   0.000000   0.000000
    6       23.540066     23.535909   0.000000   0.000000
    7       23.540066     23.535909   0.000000   0.000000
    8       25.625222     25.621930   0.000000   0.000000
    9       25.625222     25.621930   0.000000   0.000000
   10       27.560836     27.558673   0.000000   0.000000
   11       30.663820     30.662599   0.000000   0.000000
   12       37.166442     37.164345   0.000000   0.000000
   13       37.943419     37.941244   0.000000   0.000000
   14       37.943419     37.941244   0.000000   0.000000
   15       44.683927     44.682121   0.000000   0.000000
   16       50.796141     50.793761   0.000000   0.000000
   17       50.796141     50.793762   0.000000   0.000000
   18       53.513959     53.513123   0.000000   0.000000
   19       56.377655     56.376015   0.000000   0.000000
   20       56.377655     56.376015   0.000000   0.000000
   21       56.584611     56.583523   0.000000   0.000000
   22       58.721137     58.718974   0.000000   0.000000
   23       61.804945     61.803264   0.000000   0.000000
   24       61.804945     61.803265   0.000000   0.000000
   25       66.029947     66.025278   0.000000   0.000000
   26       68.382119     68.381062   0.000000   0.000000
   27       70.657635     70.655286   0.000000   0.000000
   28       70.657636     70.655286   0.000000   0.000000
   29       74.347743     74.345788   0.000000   0.000000
   30       74.347743     74.345789   0.000000   0.000000
   31       78.164056     78.160058   0.000000   0.000000
   32       78.727446     78.725151   0.000000   0.000000
   33       78.727446     78.725151   0.000000   0.000000
   34       82.136181     82.136646   0.000000   0.000000
   35       82.136181     82.136647   0.000000   0.000000
   36       84.047982     84.046355   0.000000   0.000000
   37       84.118495     84.118987   0.000000   0.000000
   38       86.673497     86.672171   0.000000   0.000000
   39       86.673497     86.672171   0.000000   0.000000
   40       88.155774     88.154797   0.000000   0.000000
   41       89.394531     89.388972   0.000000   0.000000
   42       89.871724     89.869367   0.000000   0.000000
   43       89.871724     89.869369   0.000000   0.000000
   44       93.750927     93.751929   0.000000   0.000000
   45       97.334679     97.334112   0.000000   0.000000
   46       97.334680     97.334112   0.000000   0.000000
   47      100.018680    100.017844   0.000000   0.000000
   48      100.018680    100.017845   0.000000   0.000000

  0.3000000E+00  0.1228980E-14  0.1228980E-14  0.8000000E-02
    1       -0.733533     -0.735258   1.000000   1.000000
    2        9.581376      9.579497  -0.045223  -0.045009
    3       18.698393     18.695428   0.000000   0.000000
    4       18.698393     18.695428   0.000000   0.000000
    5       21.794833     21.791492   0.000000   0.000000
    6       21.794833     21.791492   0.000000   0.000000
    7       22.209590     22.207138   0.000000   0.000000
    8       25.774739     25.772488   0.000000   0.000000
    9       28.094542     28.090510   0.000000   0.000000
   10       28.094542     28.090511   0.000000   0.000000
   11       34.273577     34.272002   0.000000   0.000000
   12       41.812479     41.809536   0.000000   0.000000
   13       41.812479     41.809536   0.000000   0.000000
   14       41.877694     41.874727   0.000000   0.000000
   15       46.341828     46.340169   0.000000   0.000000
   16       46.341828     46.340169   0.000000   0.000000
   17       47.869534     47.868236   0.000000   0.000000
   18       51.349189     51.348823   0.000000   0.000000
   19       56.338109     56.336526   0.000000   0.000000
   20       56.338110     56.336526   0.000000   0.000000
   21       56.851765     56.850448   0.000000   0.000000
   22       57.524425     57.522963   0.000000   0.000000
   23       62.228056     62.225908   0.000000   0.000000
   24       62.228056     62.225908   0.000000   0.000000
   25       65.539325     65.536621   0.000000   0.000000
   26       66.554841     66.552367   0.000000   0.000000
   27       66.554841     66.552368   0.000000   0.000000
   28       67.140865     67.135751   0.000000   0.000000
   29       74.188100     74.187614   0.000000   0.000000
   30       74.188101     74.187616   0.000000   0.000000
   31       74.318633     74.316109   0.000000   0.000000
   32       77.188268     77.188183   0.000000   0.000000
   33       78.560306     78.560647   0.000000   0.000000
   34       78.560307     78.560647   0.000000   0.000000
   35       80.065622     80.063774   0.000000   0.000000
   36       80.065626     80.063775   0.000000   0.000000
   37       80.212941     80.211800   0.000000   0.000000
   38       88.659267     88.655238   0.000000   0.000000
   39       89.165236     89.163448   0.000000   0.000000
   40       89.165237     89.163449   0.000000   0.000000
   41       89.388994     89.386698   0.000000   0.000000
   42       89.389005     89.386698   0.000000   0.000000
   43       91.309039     91.308661   0.000000   0.000000
   44       93.274572     93.274050   0.000000   0.000000
   45       97.766044     97.764702   0.000000   0.000000
   46       97.766059     97.764711   0.000000   0.000000
   47      101.588751    101.586857   0.000000   0.000000
   48      103.221923    103.221771   0.000000   0.000000

  0.4000000E+00  0.1224712E-14  0.1224712E-14  0.8000000E-02
    1        1.120158      1.118436   1.000000   1.000000
    2        6.304755      6.302918   1.057480   1.057746
    3       18.793414     18.790343   0.000000   0.000000
    4       18.793414     18.790344   0.000000   0.000000
    5       20.351253     20.348175   0.000000   0.000000
    6       20.351253     20.348175   0.000000   0.000000
    7       22.424110     22.421883   0.000000   0.000000
    8       24.241381     24.239003   0.000000   0.000000
    9       30.907161     30.902433   0.000000   0.000000
   10       30.907161     30.902434   0.000000   0.000000
   11       37.597127     37.594851   0.000000   0.000000
   12       40.780523     40.778297   0.000000   0.000000
   13       40.780523     40.778297   0.000000   0.000000
   14       46.336498     46.334229   0.000000   0.000000
   15       47.892339     47.890363   0.000000   0.000000
   16       47.892339     47.890363   0.000000   0.000000
   17       47.997579     47.995708   0.000000   0.000000
   18       53.133557     53.133782   0.000000   0.000000
   19       55.603770     55.602466   0.000000   0.000000
   20       56.151100     56.149550   0.000000   0.000000
   21       56.151100     56.149550   0.000000   0.000000
   22       57.205654     57.204092   0.000000   0.000000
   23       59.895420     59.892206   0.000000   0.000000
   24       59.895421     59.892206   0.000000   0.000000
   25       62.857377     62.853641   0.000000   0.000000
   26       64.170571     64.169356   0.000000   0.000000
   27       64.170571     64.169356   0.000000   0.000000
   28       67.006976     67.006762   0.000000   0.000000
   29       68.422867     68.416914   0.000000   0.000000
   30       73.704002     73.703678   0.000000   0.000000
   31       73.704003     73.703680   0.000000   0.000000
   32       76.246570     76.246458   0.000000   0.000000
   33       76.246570     76.246458   0.000000   0.000000
   34       76.639830     76.638228   0.000000   0.000000
   35       77.296154     77.295875   0.000000   0.000000
   36       80.511671     80.510988   0.000000   0.000000
   37       80.511671     80.510990   0.000000   0.000000
   38       88.528749     88.524671   0.000000   0.000000
   39       89.003442     89.001297   0.000000   0.000000
   40       89.003450     89.001308   0.000000   0.000000
   41       89.896476     89.896917   0.000000   0.000000
   42       93.520540     93.518556   0.000000   0.000000
   43       93.520538     93.518560   0.000000   0.000000
   44       94.341037     94.340599   0.000000   0.000000
   45       99.994326     99.992423   0.000000   0.000000
   46       99.994513     99.992502   0.000000   0.000000
   47      103.406740    103.403846   0.000000   0.000000
   48      104.156372    104.155391   0.000000   0.000000

  0.5000000E+00  0.1247534E-14  0.1247534E-14  0.4000000E-02
    1        3.374478      3.373488   1.000000   1.000000
    2        3.574309      3.571757   1.000000   1.000000
    3       19.303485     19.298887   0.000000   0.000000
    4       19.303485     19.298888   0.000000   0.000000
    5       19.386232     19.384722   0.000000   0.000000
    6       19.386233     19.384723   0.000000   0.000000
    7       23.042838     23.042857   0.000000   0.000000
    8       23.163092     23.158497   0.000000   0.000000
    9       32.670142     32.664398   0.000000   0.000000
   10       32.670142     32.664399   0.000000   0.000000
   11       38.688726     38.687691   0.000000   0.000000
   12       38.688726     38.687691   0.000000   0.000000
   13       39.483605     39.480375   0.000000   0.000000
   14       45.403271     45.403844   0.000000   0.000000
   15       50.563892     50.559763   0.000000   0.000000
   16       51.533657     51.531246   0.000000   0.000000
   17       51.533657     51.531246   0.000000   0.000000
   18       53.495052     53.493638   0.000000   0.000000
   19       54.647182     54.645295   0.000000   0.000000
   20       54.647182     54.645295   0.000000   0.000000
   21       56.239096     56.238458   0.000000   0.000000
   22       57.496696     57.494150   0.000000   0.000000
   23       57.496696     57.494151   0.000000   0.000000
   24       58.420868     58.419354   0.000000   0.000000
   25       60.611157     60.611162   0.000000   0.000000
   26       62.624827     62.622125   0.000000   0.000000
   27       64.272526     64.271251   0.000000   0.000000
   28       64.272526     64.271251   0.000000   0.000000
   29       69.122284     69.115578   0.000000   0.000000
   30       73.578253     73.577996   0.000000   0.000000
   31       73.578254     73.577996   0.000000   0.000000
   32       75.333021     75.332726   0.000000   0.000000
   33       75.333021     75.332726   0.000000   0.000000
   34       76.052358     76.052841   0.000000   0.000000
   35       76.947561     76.945863   0.000000   0.000000
   36       80.542787     80.542413   0.000000   0.000000
   37       80.542788     80.542415   0.000000   0.000000
   38       88.685651     88.679675   0.000000   0.000000
   39       88.847364     88.845297   0.000000   0.000000
   40       88.847365     88.845298   0.000000   0.000000
   41       88.939741     88.942082   0.000000   0.000000
   42       94.130156     94.129894   0.000000   0.000000
   43       95.544756     95.542904   0.000000   0.000000
   44       95.544757     95.542905   0.000000   0.000000
   45      101.357505    101.356810   0.000000   0.000000
   46      101.357506    101.356810   0.000000   0.000000
   47      107.179057    107.175540   0.000000   0.000000
   48      107.179058    107.175544   0.000000   0.000000

  0.1000000E+00  0.1000000E+00  0.1262379E-14  0.6000000E-02
    1       -2.791374     -2.793097   1.000000   1.000000
    2       18.411123     18.408406   0.000000   0.000000
    3       18.411123     18.408407   0.000000   0.000000
    4       18.703072     18.702282   0.000000   0.000000
    5       21.204576     21.199009   0.000000   0.000000
    6       23.832435     23.829708   0.000000   0.000000
    7       24.641898     24.637197   0.000000   0.000000
    8       24.641898     24.637198   0.000000   0.000000
    9       26.933070     26.933153   0.000000   0.000000
   10       27.647672     27.643385   0.000000   0.000000
   11       30.742557     30.739748   0.000000   0.000000
   12       32.931098     32.930570   0.000000   0.000000
   13       32.931098     32.930571   0.000000   0.000000
   14       35.939065     35.936863   0.000000   0.000000
   15       42.659020     42.656849   0.000000   0.000000
   16       54.942955     54.940933   0.000000   0.000000
   17       54.942955     54.940933   0.000000   0.000000
   18       55.336790     55.336325   0.000000   0.000000
   19       56.572136     56.570986   0.000000   0.000000
   20       57.291617     57.289651   0.000000   0.000000
   21       57.318130     57.315605   0.000000   0.000000
   22       57.318130     57.315605   0.000000   0.000000
   23       59.447684     59.444843   0.000000   0.000000
   24       62.722609     62.722008   0.000000   0.000000
   25       67.808513     67.804577   0.000000   0.000000
   26       67.808513     67.804578   0.000000   0.000000
   27       69.979786     69.978483   0.000000   0.000000
   28       71.066382     71.063631   0.000000   0.000000
   29       73.477591     73.477082   0.000000   0.000000
   30       73.477592     73.477082   0.000000   0.000000
   31       80.348664     80.346551   0.000000   0.000000
   32       82.009822     82.007006   0.000000   0.000000
   33       82.009822     82.007006   0.000000   0.000000
   34       82.498889     82.496799   0.000000   0.000000
   35       82.781807     82.778353   0.000000   0.000000
   36       84.553249     84.552512   0.000000   0.000000
   37       88.195513     88.198326   0.000000   0.000000
   38       89.804853     89.802290   0.000000   0.000000
   39       89.804853     89.802290   0.000000   0.000000
   40       90.221434     90.219931   0.000000   0.000000
   41       90.221434     90.219931   0.000000   0.000000
   42       91.889751     91.887509   0.000000   0.000000
   43       93.611976     93.606368   0.000000   0.000000
   44       94.742836     94.738716   0.000000   0.000000
   45       95.058780     95.058605   0.000000   0.000000
   46       97.317961     97.317113   0.000000   0.000000
   47       97.346450     97.346718   0.000000   0.000000
   48       97.346451     97.346719   0.000000   0.000000

  0.2000000E+00  0.1000000E+00  0.1265605E-14  0.2400000E-01
    1       -2.161939     -2.163663   1.000000   1.000000
    2       14.730623     14.728687   0.000000   0.000000
    3       17.435399     17.432627   0.000000   0.000000
    4       18.838109     18.836047   0.000000   0.000000
    5       21.240434     21.236068   0.000000   0.000000
    6       22.043004     22.040001   0.000000   0.000000
    7       25.026521     25.022965   0.000000   0.000000
    8       25.962624     25.957555   0.000000   0.000000
    9       27.307857     27.304486   0.000000   0.000000
   10       29.737313     29.734912   0.000000   0.000000
   11       30.404565     30.403575   0.000000   0.000000
   12       35.134587     35.133359   0.000000   0.000000
   13       35.593507     35.592107   0.000000   0.000000
   14       38.464741     38.461941   0.000000   0.000000
   15       45.100528     45.098661   0.000000   0.000000
   16       50.788881     50.786562   0.000000   0.000000
   17       52.099689     52.097450   0.000000   0.000000
   18       55.320400     55.319370   0.000000   0.000000
   19       55.497572     55.496452   0.000000   0.000000
   20       56.012707     56.011089   0.000000   0.000000
   21       57.047028     57.045276   0.000000   0.000000
   22       57.705329     57.702841   0.000000   0.000000
   23       59.369984     59.367375   0.000000   0.000000
   24       62.306086     62.305088   0.000000   0.000000
   25       66.849241     66.847371   0.000000   0.000000
   26       68.812098     68.808343   0.000000   0.000000
   27       71.271985     71.269664   0.000000   0.000000
   28       72.546576     72.545789   0.000000   0.000000
   29       72.679281     72.677521   0.000000   0.000000
   30       75.556173     75.554632   0.000000   0.000000
   31       76.498439     76.495743   0.000000   0.000000
   32       77.524109     77.520428   0.000000   0.000000
   33       80.119368     80.116620   0.000000   0.000000
   34       81.289628     81.288138   0.000000   0.000000
   35       82.289745     82.288012   0.000000   0.000000
   36       83.333853     83.332989   0.000000   0.000000
   37       85.933201     85.931105   0.000000   0.000000
   38       86.383194     86.382173   0.000000   0.000000
   39       88.173488     88.173509   0.000000   0.000000
   40       89.307090     89.306139   0.000000   0.000000
   41       89.890958     89.889659   0.000000   0.000000
   42       91.292072     91.291396   0.000000   0.000000
   43       93.514465     93.512376   0.000000   0.000000
   44       94.643548     94.642041   0.000000   0.000000
   45       94.811763     94.808713   0.000000   0.000000
   46       95.893970     95.893232   0.000000   0.000000
   47       97.006111     97.005908   0.000000   0.000000
   48       98.262153     98.260203   0.000000   0.000000

  0.3000000E+00  0.1000000E+00  0.1261337E-14  0.2400000E-01
    1       -1.000310     -1.002034   1.000000   1.000000
    2       10.971337     10.969461  -0.009240  -0.009315
    3       16.911673     16.908873   0.000000   0.000000
    4       18.507555     18.505357   0.000000   0.000000
    5       19.231667     19.228397   0.000000   0.000000
    6       24.075966     24.071491   0.000000   0.000000
    7       24.565684     24.561817   0.000000   0.000000
    8       25.015900     25.013324   0.000000   0.000000
    9       28.064821     28.062693   0.000000   0.000000
   10       29.335380     29.331050   0.000000   0.000000
   11       34.080814     34.079162   0.000000   0.000000
   12       38.913726     38.911726   0.000000   0.000000
   13       40.256569     40.254372   0.000000   0.000000
   14       41.755061     41.751866   0.000000   0.000000
   15       45.885456     45.883630   0.000000   0.000000
   16       48.004802     48.002846   0.000000   0.000000
   17       48.422694     48.421113   0.000000   0.000000
   18       53.302627     53.301629   0.000000   0.000000
   19       55.472378     55.471536   0.000000   0.000000
   20       56.123094     56.121543   0.000000   0.000000
   21       57.161729     57.159806   0.000000   0.000000
   22       58.327568     58.324896   0.000000   0.000000
   23       58.370916     58.369122   0.000000   0.000000
   24       62.663240     62.661998   0.000000   0.000000
   25       63.981622     63.978769   0.000000   0.000000
   26       67.804128     67.801303   0.000000   0.000000
   27       68.801393     68.797807   0.000000   0.000000
   28       71.070638     71.070261   0.000000   0.000000
   29       71.235758     71.235078   0.000000   0.000000
   30       72.713413     72.709757   0.000000   0.000000
   31       76.954412     76.954213   0.000000   0.000000
   32       77.249399     77.247786   0.000000   0.000000
   33       77.460070     77.457802   0.000000   0.000000
   34       79.417466     79.417149   0.000000   0.000000
   35       80.889538     80.887790   0.000000   0.000000
   36       81.520104     81.518270   0.000000   0.000000
   37       82.421060     82.420033   0.000000   0.000000
   38       86.687987     86.685835   0.000000   0.000000
   39       86.810231     86.809746   0.000000   0.000000
   40       87.515650     87.513105   0.000000   0.000000
   41       91.283177     91.282285   0.000000   0.000000
   42       92.852236     92.851974   0.000000   0.000000
   43       92.890471     92.888253   0.000000   0.000000
   44       94.457229     94.454352   0.000000   0.000000
   45       94.498589     94.497135   0.000000   0.000000
   46       97.456325     97.455630   0.000000   0.000000
   47      100.097243    100.096224   0.000000   0.000000
   48      101.545670    101.545380   0.000000   0.000000

  0.4000000E+00  0.1000000E+00  0.1228980E-14  0.2400000E-01
    1        0.680719      0.678997   1.000000   1.000000
    2        7.568342      7.566507   0.642364   0.643088
    3       16.845878     16.843039   0.000000   0.000000
    4       17.551936     17.549499   0.000000   0.000000
    5       18.518472     18.515499   0.000000   0.000000
    6       23.049088     23.045600   0.000000   0.000000
    7       24.781558     24.777344   0.000000   0.000000
    8       26.101744     26.100181   0.000000   0.000000
    9       27.638796     27.635275   0.000000   0.000000
   10       31.840874     31.835715   0.000000   0.000000
   11       37.548904     37.546664   0.000000   0.000000
   12       40.341823     40.339872   0.000000   0.000000
   13       42.566077     42.563290   0.000000   0.000000
   14       44.797001     44.795488   0.000000   0.000000
   15       45.361624     45.358096   0.000000   0.000000
   16       47.151929     47.150629   0.000000   0.000000
   17       49.671381     49.670016   0.000000   0.000000
   18       53.244027     53.243701   0.000000   0.000000
   19       55.513561     55.512600   0.000000   0.000000
   20       55.907766     55.905929   0.000000   0.000000
   21       56.223038     56.221539   0.000000   0.000000
   22       57.542066     57.540511   0.000000   0.000000
   23       58.876340     58.873270   0.000000   0.000000
   24       60.392796     60.389909   0.000000   0.000000
   25       63.466426     63.465142   0.000000   0.000000
   26       63.620809     63.617092   0.000000   0.000000
   27       65.092599     65.089747   0.000000   0.000000
   28       69.428237     69.427705   0.000000   0.000000
   29       69.707465     69.707706   0.000000   0.000000
   30       70.250707     70.249865   0.000000   0.000000
   31       71.887490     71.883439   0.000000   0.000000
   32       75.674507     75.674022   0.000000   0.000000
   33       76.554196     76.553528   0.000000   0.000000
   34       77.810238     77.809813   0.000000   0.000000
   35       80.528562     80.527912   0.000000   0.000000
   36       81.886649     81.885315   0.000000   0.000000
   37       83.341864     83.338581   0.000000   0.000000
   38       84.479569     84.479297   0.000000   0.000000
   39       87.499207     87.497850   0.000000   0.000000
   40       88.679934     88.677664   0.000000   0.000000
   41       92.854889     92.854484   0.000000   0.000000
   42       94.327665     94.324956   0.000000   0.000000
   43       94.776489     94.774987   0.000000   0.000000
   44       94.945352     94.944131   0.000000   0.000000
   45       97.709152     97.705914   0.000000   0.000000
   46       98.642220     98.640309   0.000000   0.000000
   47      101.765020    101.765120   0.000000   0.000000
   48      103.142532    103.142266   0.000000   0.000000

  0.5000000E+00  0.1000000E+00  0.1224379E-14  0.2400000E-01
    1        2.860322      2.858655   1.000000   1.000000
    2        4.599452      4.597582   1.000000   1.000000
    3       16.357474     16.354931   0.000000   0.000000
    4       17.240379     17.237469   0.000000   0.000000
    5       18.957786     18.954936   0.000000   0.000000
    6       21.914991     21.911718   0.000000   0.000000
    7       24.800080     24.795690   0.000000   0.000000
    8       25.545637     25.544542   0.000000   0.000000
    9       30.442546     30.437987   0.000000   0.000000
   10       32.751222     32.745487   0.000000   0.000000
   11       39.017432     39.015750   0.000000   0.000000
   12       39.027331     39.026233   0.000000   0.000000
   13       40.471531     40.468269   0.000000   0.000000
   14       46.853030     46.852859   0.000000   0.000000
   15       49.346203     49.343998   0.000000   0.000000
   16       49.786311     49.782492   0.000000   0.000000
   17       50.806129     50.803986   0.000000   0.000000
   18       53.733879     53.732337   0.000000   0.000000
   19       54.634157     54.632624   0.000000   0.000000
   20       55.984699     55.983224   0.000000   0.000000
   21       56.186449     56.185500   0.000000   0.000000
   22       56.648565     56.647378   0.000000   0.000000