 vasp.6.2.1 16May21 (build Aug 15 2022 14:47:30) complex                         
 executed on             LinuxGNU date 2025.12.11  13:45:28
 running on   48 total cores
 distrk:  each k-point on   48 cores,    1 groups
 distr:  one band on NCORE=   1 cores,   48 groups


--------------------------------------------------------------------------------------------------------


 INCAR:
   ALGO = Fast
   EDIFF = 5e-05
   ENCUT = 520.0
   ISMEAR = -5
   ISPIN = 2
   LASPH = True
   LCHARG = True
   LORBIT = 11
   LREAL = False
   LWAVE = False
   MAGMOM = 1*0.6
   NELM = 100
   NSW = 0
   PREC = Accurate
   SIGMA = 0.05

 POTCAR:    PAW_PBE Al 04Jan2001                  
 -----------------------------------------------------------------------------
|                                                                             |
|           W    W    AA    RRRRR   N    N  II  N    N   GGGG   !!!           |
|           W    W   A  A   R    R  NN   N  II  NN   N  G    G  !!!           |
|           W    W  A    A  R    R  N N  N  II  N N  N  G       !!!           |
|           W WW W  AAAAAA  RRRRR   N  N N  II  N  N N  G  GGG   !            |
|           WW  WW  A    A  R   R   N   NN  II  N   NN  G    G                |
|           W    W  A    A  R    R  N    N  II  N    N   GGGG   !!!           |
|                                                                             |
|     For optimal performance we recommend to set                             |
|       NCORE = 2 up to number-of-cores-per-socket                            |
|     NCORE specifies how many cores store one orbital (NPAR=cpu/NCORE).      |
|     This setting can greatly improve the performance of VASP for DFT.       |
|     The default, NCORE=1 might be grossly inefficient on modern             |
|     multi-core architectures or massively parallel machines. Do your        |
|     own testing! More info at https://www.vasp.at/wiki/index.php/NCORE      |
|     Unfortunately you need to use the default for GW and RPA                |
|     calculations (for HF NCORE is supported but not extensively tested      |
|     yet).                                                                   |
|                                                                             |
 -----------------------------------------------------------------------------

 POTCAR:    PAW_PBE Al 04Jan2001                  
   VRHFIN =Al: s2p1                                                                                 
   LEXCH  = PE                                                                                      
   EATOM  =    53.5387 eV,    3.9350 Ry                                                             
                                                                                                    
   TITEL  = PAW_PBE Al 04Jan2001                                                                    
   LULTRA =        F    use ultrasoft PP ?                                                          
   IUNSCR =        1    unscreen: 0-lin 1-nonlin 2-no                                               
   RPACOR =    1.500    partial core radius                                                         
   POMASS =   26.981; ZVAL   =    3.000    mass and valenz                                          
   RCORE  =    1.900    outmost cutoff radius                                                       
   RWIGS  =    2.650; RWIGS  =    1.402    wigner-seitz radius (au A)                               
   ENMAX  =  240.300; ENMIN  =  180.225 eV                                                          
   ICORE  =        2    local potential                                                             
   LCOR   =        T    correct aug charges                                                         
   LPAW   =        T    paw PP                                                                      
   EAUG   =  291.052                                                                                
   DEXC   =    0.000                                                                                
   RMAX   =    1.939    core radius for proj-oper                                                   
   RAUG   =    1.300    factor for augmentation sphere                                              
   RDEP   =    1.966    radius for radial grids                                                     
   RDEPT  =    1.856    core radius for aug-charge                                                  
                                                                                                    
   Atomic configuration                                                                             
    6 entries                                                                                       
     n  l   j            E        occ.                                                              
     1  0  0.50     -1511.1048   2.0000                                                             
     2  0  0.50      -108.1629   2.0000                                                             
     2  1  1.50       -69.6402   6.0000                                                             
     3  0  0.50        -7.7528   2.0000                                                             
     3  1  1.50        -2.7121   1.0000                                                             
     3  2  2.50        -2.7212   0.0000                                                             
   Description                                                                                      
     l       E           TYP  RCUT    TYP  RCUT                                                     
     0     -7.7528455     23  1.900                                                                 
     0     -3.3096929     23  1.900                                                                 
     1     -2.7120682     23  1.900                                                                 
     1     13.6058260     23  1.900                                                                 
     2     -2.7211652      7  1.900                                                                 
  local pseudopotential read in
  partial core-charges read in
  partial kinetic energy density read in
  atomic valenz-charges read in
  non local Contribution for L=           0  read in
    real space projection operators read in
  non local Contribution for L=           0  read in
    real space projection operators read in
  non local Contribution for L=           1  read in
    real space projection operators read in
  non local Contribution for L=           1  read in
    real space projection operators read in
    PAW grid and wavefunctions read in

   number of l-projection  operators is LMAX  =           4
   number of lm-projection operators is LMMAX =           8

  PAW_PBE Al 04Jan2001                  :
 energy of atom  1       EATOM=  -53.5387
 kinetic energy error for atom=    0.0002 (will be added to EATOM!!)


 POSCAR: # Generated by Masgent for k-point conve
  positions in direct lattice
  No initial velocities read in
 exchange correlation table for  LEXCH =        8
   RHO(1)=    0.500       N(1)  =     2000
   RHO(2)=  100.500       N(2)  =     4000

 VTST: version 4.2, (08/11/21)

 CHAIN: initializing optimizer
 
 OPT: Using VASP Dynamics algorithm
 CHAIN: Read ICHAIN            0

 POSCAR: # Generated by Masgent for k-point conve
  positions in direct lattice
  No initial velocities read in



--------------------------------------------------------------------------------------------------------


 ion  position               nearest neighbor table
   1  0.000  0.000  0.000-

  LATTYP: Found a face centered cubic cell.
 ALAT       =     4.0480000000
  
  Lattice vectors:
  
 A1 = (   0.0000000000,   2.0240000000,   2.0240000000)
 A2 = (   2.0240000000,   0.0000000000,   2.0240000000)
 A3 = (   2.0240000000,   2.0240000000,   0.0000000000)


Analysis of symmetry for initial positions (statically):
=====================================================================
 Subroutine PRICEL returns:
 Original cell was already a primitive cell.
 

 Routine SETGRP: Setting up the symmetry group for a 
 face centered cubic supercell.


 Subroutine GETGRP returns: Found 48 space group operations
 (whereof 48 operations were pure point group operations)
 out of a pool of 48 trial point group operations.


The static configuration has the point symmetry O_h .


Analysis of symmetry for dynamics (positions and initial velocities):
=====================================================================
 Subroutine PRICEL returns:
 Original cell was already a primitive cell.
 

 Routine SETGRP: Setting up the symmetry group for a 
 face centered cubic supercell.


 Subroutine GETGRP returns: Found 48 space group operations
 (whereof 48 operations were pure point group operations)
 out of a pool of 48 trial point group operations.


The dynamic configuration has the point symmetry O_h .


Analysis of structural, dynamic, and magnetic symmetry:
=====================================================================
 Subroutine PRICEL returns:
 Original cell was already a primitive cell.
 

 Routine SETGRP: Setting up the symmetry group for a 
 face centered cubic supercell.


 Subroutine GETGRP returns: Found 48 space group operations
 (whereof 48 operations were pure point group operations)
 out of a pool of 48 trial point group operations.


The overall configuration has the point symmetry O_h .


 Subroutine INISYM returns: Found 48 space group operations
 (whereof 48 operations are pure point group operations),
 and found     1 'primitive' translations


----------------------------------------------------------------------------------------

                                     Primitive cell                                     

  volume of cell :      16.5829

  direct lattice vectors                    reciprocal lattice vectors
     0.000000000  2.024000000  2.024000000    -0.247035573  0.247035573  0.247035573
     2.024000000  0.000000000  2.024000000     0.247035573 -0.247035573  0.247035573
     2.024000000  2.024000000  0.000000000     0.247035573  0.247035573 -0.247035573

  length of vectors
     2.862368250  2.862368250  2.862368250     0.427878164  0.427878164  0.427878164

  position of ions in fractional coordinates (direct lattice)
     0.000000000  0.000000000  0.000000000

  ion indices of the primitive-cell ions
   primitive index   ion index
                 1           1

----------------------------------------------------------------------------------------



 KPOINTS: # Generated by Masgent for k-point conve

Automatic generation of k-mesh.
 Grid dimensions read from file:
 generate k-points for:   10   10   10

 Generating k-lattice:

  Cartesian coordinates                     Fractional coordinates (reciprocal lattice)
    -0.024703557  0.024703557  0.024703557     0.100000000  0.000000000  0.000000000
     0.024703557 -0.024703557  0.024703557     0.000000000  0.100000000  0.000000000
     0.024703557  0.024703557 -0.024703557     0.000000000  0.000000000  0.100000000

  Length of vectors
     0.042787816  0.042787816  0.042787816

  Shift w.r.t. Gamma in fractional coordinates (k-lattice)
     0.000000000  0.000000000  0.000000000

 TETIRR: Found    148 inequivalent tetrahedra from     6000
 
 Subroutine IBZKPT returns following result:
 ===========================================
 
 Found     47 irreducible k-points:
 
 Following reciprocal coordinates:
            Coordinates               Weight
  0.000000  0.000000  0.000000      1.000000
  0.100000  0.000000  0.000000      8.000000
  0.200000  0.000000  0.000000      8.000000
  0.300000  0.000000  0.000000      8.000000
  0.400000  0.000000  0.000000      8.000000
  0.500000  0.000000  0.000000      4.000000
  0.100000  0.100000  0.000000      6.000000
  0.200000  0.100000  0.000000     24.000000
  0.300000  0.100000  0.000000     24.000000
  0.400000  0.100000  0.000000     24.000000
  0.500000  0.100000  0.000000     24.000000
 -0.400000  0.100000  0.000000     24.000000
 -0.300000  0.100000  0.000000     24.000000
 -0.200000  0.100000  0.000000     24.000000
 -0.100000  0.100000  0.000000     12.000000
  0.200000  0.200000  0.000000      6.000000
  0.300000  0.200000  0.000000     24.000000
  0.400000  0.200000  0.000000     24.000000
  0.500000  0.200000  0.000000     24.000000
 -0.400000  0.200000  0.000000     24.000000
 -0.300000  0.200000  0.000000     24.000000
 -0.200000  0.200000  0.000000     12.000000
  0.300000  0.300000  0.000000      6.000000
  0.400000  0.300000  0.000000     24.000000
  0.500000  0.300000  0.000000     24.000000
 -0.400000  0.300000  0.000000     24.000000
 -0.300000  0.300000  0.000000     12.000000
  0.400000  0.400000  0.000000      6.000000
  0.500000  0.400000  0.000000     24.000000
 -0.400000  0.400000  0.000000     12.000000
  0.500000  0.500000  0.000000      3.000000
  0.300000  0.200000  0.100000     24.000000
  0.400000  0.200000  0.100000     48.000000
  0.500000  0.200000  0.100000     48.000000
 -0.400000  0.200000  0.100000     24.000000
  0.400000  0.300000  0.100000     24.000000
  0.500000  0.300000  0.100000     48.000000
 -0.400000  0.300000  0.100000     48.000000
 -0.300000  0.300000  0.100000     48.000000
 -0.200000  0.300000  0.100000     24.000000
  0.500000  0.400000  0.100000     24.000000
 -0.400000  0.400000  0.100000     48.000000
 -0.300000  0.400000  0.100000     24.000000
 -0.400000  0.500000  0.100000     12.000000
 -0.400000  0.400000  0.200000     24.000000
 -0.300000  0.400000  0.200000     24.000000
 -0.300000  0.500000  0.200000     12.000000
 
 Following cartesian coordinates:
            Coordinates               Weight
  0.000000  0.000000  0.000000      1.000000
 -0.024704  0.024704  0.024704      8.000000
 -0.049407  0.049407  0.049407      8.000000
 -0.074111  0.074111  0.074111      8.000000
 -0.098814  0.098814  0.098814      8.000000
 -0.123518  0.123518  0.123518      4.000000
  0.000000  0.000000  0.049407      6.000000
 -0.024704  0.024704  0.074111     24.000000
 -0.049407  0.049407  0.098814     24.000000
 -0.074111  0.074111  0.123518     24.000000
 -0.098814  0.098814  0.148221     24.000000
  0.123518 -0.123518 -0.074111     24.000000
  0.098814 -0.098814 -0.049407     24.000000
  0.074111 -0.074111 -0.024704     24.000000
  0.049407 -0.049407  0.000000     12.000000
  0.000000  0.000000  0.098814      6.000000
 -0.024704  0.024704  0.123518     24.000000
 -0.049407  0.049407  0.148221     24.000000
 -0.074111  0.074111  0.172925     24.000000
  0.148221 -0.148221 -0.049407     24.000000
  0.123518 -0.123518 -0.024704     24.000000
  0.098814 -0.098814  0.000000     12.000000
  0.000000  0.000000  0.148221      6.000000
 -0.024704  0.024704  0.172925     24.000000
 -0.049407  0.049407  0.197628     24.000000
  0.172925 -0.172925 -0.024704     24.000000
  0.148221 -0.148221  0.000000     12.000000
  0.000000  0.000000  0.197628      6.000000
 -0.024704  0.024704  0.222332     24.000000
  0.197628 -0.197628  0.000000     12.000000
  0.000000  0.000000  0.247036      3.000000
  0.000000  0.049407  0.098814     24.000000
 -0.024704  0.074111  0.123518     48.000000
 -0.049407  0.098814  0.148221     48.000000
  0.172925 -0.123518 -0.074111     24.000000
  0.000000  0.049407  0.148221     24.000000
 -0.024704  0.074111  0.172925     48.000000
  0.197628 -0.148221 -0.049407     48.000000
  0.172925 -0.123518 -0.024704     48.000000
  0.148221 -0.098814 -0.000000     24.000000
  0.000000  0.049407  0.197628     24.000000
  0.222332 -0.172925 -0.024704     48.000000
  0.197628 -0.148221  0.000000     24.000000
  0.247036 -0.197628  0.000000     12.000000
  0.247036 -0.148221 -0.049407     24.000000
  0.222332 -0.123518 -0.024704     24.000000
  0.247036 -0.148221  0.000000     12.000000
 


--------------------------------------------------------------------------------------------------------




 Dimension of arrays:
   k-points           NKPTS =     47   k-points in BZ     NKDIM =     47   number of bands    NBANDS=     48
   number of dos      NEDOS =    301   number of ions     NIONS =      1
   non local maximal  LDIM  =      4   non local SUM 2l+1 LMDIM =      8
   total plane-waves  NPLWV =  13824
   max r-space proj   IRMAX =      1   max aug-charges    IRDMAX=  32640
   dimension x,y,z NGX =    24 NGY =   24 NGZ =   24
   dimension x,y,z NGXF=    48 NGYF=   48 NGZF=   48
   support grid    NGXF=    48 NGYF=   48 NGZF=   48
   ions per type =               1
   NGX,Y,Z   is equivalent  to a cutoff of  13.94, 13.94, 13.94 a.u.
   NGXF,Y,Z  is equivalent  to a cutoff of  27.88, 27.88, 27.88 a.u.

 SYSTEM =  unknown system                          
 POSCAR =  # Generated by Masgent for k-point conve

 Startparameter for this run:
   NWRITE =      2    write-flag & timer
   PREC   = accura    normal or accurate (medium, high low for compatibility)
   ISTART =      0    job   : 0-new  1-cont  2-samecut
   ICHARG =      2    charge: 1-file 2-atom 10-const
   ISPIN  =      2    spin polarized calculation?
   LNONCOLLINEAR =      F non collinear calculations
   LSORBIT =      F    spin-orbit coupling
   INIWAV =      1    electr: 0-lowe 1-rand  2-diag
   LASPH  =      T    aspherical Exc in radial PAW
 Electronic Relaxation 1
   ENCUT  =  520.0 eV  38.22 Ry    6.18 a.u.   5.32  5.32  5.32*2*pi/ulx,y,z
   ENINI  =  520.0     initial cutoff
   ENAUG  =  291.1 eV  augmentation charge cutoff
   NELM   =    100;   NELMIN=  2; NELMDL= -5     # of ELM steps 
   EDIFF  = 0.5E-04   stopping-criterion for ELM
   LREAL  =      F    real-space projection
   NLSPLINE    = F    spline interpolate recip. space projectors
   LCOMPAT=      F    compatible to vasp.4.4
   GGA_COMPAT  = T    GGA compatible to vasp.4.4-vasp.4.6
   LMAXPAW     = -100 max onsite density
   LMAXMIX     =    2 max onsite mixed and CHGCAR
   VOSKOWN=      0    Vosko Wilk Nusair interpolation
   ROPT   =    0.00000
 Ionic relaxation
   EDIFFG = 0.5E-03   stopping-criterion for IOM
   NSW    =      0    number of steps for IOM
   NBLOCK =      1;   KBLOCK =      1    inner block; outer block 
   IBRION =     -1    ionic relax: 0-MD 1-quasi-New 2-CG
   NFREE  =      0    steps in history (QN), initial steepest desc. (CG)
   ISIF   =      2    stress and relaxation
   IWAVPR =     10    prediction:  0-non 1-charg 2-wave 3-comb
   ISYM   =      2    0-nonsym 1-usesym 2-fastsym
   LCORR  =      T    Harris-Foulkes like correction to forces

   POTIM  = 0.5000    time-step for ionic-motion
   TEIN   =    0.0    initial temperature
   TEBEG  =    0.0;   TEEND  =   0.0 temperature during run
   SMASS  =  -3.00    Nose mass-parameter (am)
   estimated Nose-frequenzy (Omega)   =  0.10E-29 period in steps = 0.13E+47 mass=  -0.187E-27a.u.
   SCALEE = 1.0000    scale energy and forces
   NPACO  =    256;   APACO  = 16.0  distance and # of slots for P.C.
   PSTRESS=    0.0 pullay stress

  Mass of Ions in am
   POMASS =  26.98
  Ionic Valenz
   ZVAL   =   3.00
  Atomic Wigner-Seitz radii
   RWIGS  =  -1.00
  virtual crystal weights 
   VCA    =   1.00
   NELECT =       3.0000    total number of electrons
   NUPDOWN=      -1.0000    fix difference up-down

 DOS related values:
   EMIN   =  10.00;   EMAX   =-10.00  energy-range for DOS
   EFERMI =   0.00
   ISMEAR =    -5;   SIGMA  =   0.05  broadening in eV -4-tet -1-fermi 0-gaus

 Electronic relaxation 2 (details)
   IALGO  =     68    algorithm
   LDIAG  =      T    sub-space diagonalisation (order eigenvalues)
   LSUBROT=      F    optimize rotation matrix (better conditioning)
   TURBO    =      0    0=normal 1=particle mesh
   IRESTART =      0    0=no restart 2=restart with 2 vectors
   NREBOOT  =      0    no. of reboots
   NMIN     =      0    reboot dimension
   EREF     =   0.00    reference energy to select bands
   IMIX   =      4    mixing-type and parameters
     AMIX     =   0.40;   BMIX     =  1.00
     AMIX_MAG =   1.60;   BMIX_MAG =  1.00
     AMIN     =   0.10
     WC   =   100.;   INIMIX=   1;  MIXPRE=   1;  MAXMIX= -45

 Intra band minimization:
   WEIMIN = 0.0000     energy-eigenvalue tresh-hold
   EBREAK =  0.26E-06  absolut break condition
   DEPER  =   0.30     relativ break condition  

   TIME   =   0.40     timestep for ELM

  volume/ion in A,a.u.               =      16.58       111.91
  Fermi-wavevector in a.u.,A,eV,Ry     =   0.925894  1.749687 11.664006  0.857280
  Thomas-Fermi vector in A             =   2.051798

 Write flags
   LWAVE        =      F    write WAVECAR
   LDOWNSAMPLE  =      F    k-point downsampling of WAVECAR
   LCHARG       =      T    write CHGCAR
   LVTOT        =      F    write LOCPOT, total local potential
   LVHAR        =      F    write LOCPOT, Hartree potential only
   LELF         =      F    write electronic localiz. function (ELF)
   LORBIT       =     11    0 simple, 1 ext, 2 COOP (PROOUT), +10 PAW based schemes


 Dipole corrections
   LMONO  =      F    monopole corrections only (constant potential shift)
   LDIPOL =      F    correct potential (dipole corrections)
   IDIPOL =      0    1-x, 2-y, 3-z, 4-all directions 
   EPSILON=  1.0000000 bulk dielectric constant

 Exchange correlation treatment:
   GGA     =    --    GGA type
   LEXCH   =     8    internal setting for exchange type
   VOSKOWN=      0    Vosko Wilk Nusair interpolation
   LHFCALC =     F    Hartree Fock is set to
   LHFONE  =     F    Hartree Fock one center treatment
   AEXX    =    0.0000 exact exchange contribution

 Linear response parameters
   LEPSILON=     F    determine dielectric tensor
   LRPA    =     F    only Hartree local field effects (RPA)
   LNABLA  =     F    use nabla operator in PAW spheres
   LVEL    =     F    velocity operator in full k-point grid
   LINTERFAST=   F  fast interpolation
   KINTER  =     0    interpolate to denser k-point grid
   CSHIFT  =0.1000    complex shift for real part using Kramers Kronig
   OMEGAMAX=  -1.0    maximum frequency
   DEG_THRESHOLD= 0.2000000E-02 threshold for treating states as degnerate
   RTIME   =   -0.100 relaxation time in fs
  (WPLASMAI=    0.000 imaginary part of plasma frequency in eV, 0.658/RTIME)
   DFIELD  = 0.0000000 0.0000000 0.0000000 field for delta impulse in time

 Orbital magnetization related:
   ORBITALMAG=     F  switch on orbital magnetization
   LCHIMAG   =     F  perturbation theory with respect to B field
   DQ        =  0.001000  dq finite difference perturbation B field
   LLRAUG    =     F  two centre corrections for induced B field



--------------------------------------------------------------------------------------------------------


 Static calculation
 charge density and potential will be updated during run
 spin polarized calculation
 RMM-DIIS sequential band-by-band and
  variant of blocked Davidson during initial phase
 perform sub-space diagonalisation
    before iterative eigenvector-optimisation
 modified Broyden-mixing scheme, WC =      100.0
 initial mixing is a Kerker type mixing with AMIX =  0.4000 and BMIX =      1.0000
 Hartree-type preconditioning will be used
 using additional bands           46
 reciprocal scheme for non local part
 use partial core corrections
 calculate Harris-corrections to forces   (improved forces if not selfconsistent)
 use gradient corrections 
 use of overlap-Matrix (Vanderbilt PP)
 Fermi weights with tetrahedron method with Bloechl corrections


--------------------------------------------------------------------------------------------------------


  energy-cutoff  :      520.00
  volume of cell :       16.58
      direct lattice vectors                 reciprocal lattice vectors
     0.000000000  2.024000000  2.024000000    -0.247035573  0.247035573  0.247035573
     2.024000000  0.000000000  2.024000000     0.247035573 -0.247035573  0.247035573
     2.024000000  2.024000000  0.000000000     0.247035573  0.247035573 -0.247035573

  length of vectors
     2.862368250  2.862368250  2.862368250     0.427878164  0.427878164  0.427878164



 k-points in units of 2pi/SCALE and weight: # Generated by Masgent for k-point conve
   0.00000000  0.00000000  0.00000000       0.001
  -0.02470356  0.02470356  0.02470356       0.008
  -0.04940711  0.04940711  0.04940711       0.008
  -0.07411067  0.07411067  0.07411067       0.008
  -0.09881423  0.09881423  0.09881423       0.008
  -0.12351779  0.12351779  0.12351779       0.004
   0.00000000  0.00000000  0.04940711       0.006
  -0.02470356  0.02470356  0.07411067       0.024
  -0.04940711  0.04940711  0.09881423       0.024
  -0.07411067  0.07411067  0.12351779       0.024
  -0.09881423  0.09881423  0.14822134       0.024
   0.12351779 -0.12351779 -0.07411067       0.024
   0.09881423 -0.09881423 -0.04940711       0.024
   0.07411067 -0.07411067 -0.02470356       0.024
   0.04940711 -0.04940711  0.00000000       0.012
   0.00000000  0.00000000  0.09881423       0.006
  -0.02470356  0.02470356  0.12351779       0.024
  -0.04940711  0.04940711  0.14822134       0.024
  -0.07411067  0.07411067  0.17292490       0.024
   0.14822134 -0.14822134 -0.04940711       0.024
   0.12351779 -0.12351779 -0.02470356       0.024
   0.09881423 -0.09881423  0.00000000       0.012
   0.00000000  0.00000000  0.14822134       0.006
  -0.02470356  0.02470356  0.17292490       0.024
  -0.04940711  0.04940711  0.19762846       0.024
   0.17292490 -0.17292490 -0.02470356       0.024
   0.14822134 -0.14822134  0.00000000       0.012
   0.00000000  0.00000000  0.19762846       0.006
  -0.02470356  0.02470356  0.22233202       0.024
   0.19762846 -0.19762846  0.00000000       0.012
   0.00000000  0.00000000  0.24703557       0.003
   0.00000000  0.04940711  0.09881423       0.024
  -0.02470356  0.07411067  0.12351779       0.048
  -0.04940711  0.09881423  0.14822134       0.048
   0.17292490 -0.12351779 -0.07411067       0.024
   0.00000000  0.04940711  0.14822134       0.024
  -0.02470356  0.07411067  0.17292490       0.048
   0.19762846 -0.14822134 -0.04940711       0.048
   0.17292490 -0.12351779 -0.02470356       0.048
   0.14822134 -0.09881423 -0.00000000       0.024
   0.00000000  0.04940711  0.19762846       0.024
   0.22233202 -0.17292490 -0.02470356       0.048
   0.19762846 -0.14822134  0.00000000       0.024
   0.24703557 -0.19762846  0.00000000       0.012
   0.24703557 -0.14822134 -0.04940711       0.024
   0.22233202 -0.12351779 -0.02470356       0.024
   0.24703557 -0.14822134  0.00000000       0.012

 k-points in reciprocal lattice and weights: # Generated by Masgent for k-point conve
   0.00000000  0.00000000  0.00000000       0.001
   0.10000000  0.00000000  0.00000000       0.008
   0.20000000  0.00000000  0.00000000       0.008
   0.30000000  0.00000000  0.00000000       0.008
   0.40000000  0.00000000  0.00000000       0.008
   0.50000000  0.00000000  0.00000000       0.004
   0.10000000  0.10000000  0.00000000       0.006
   0.20000000  0.10000000  0.00000000       0.024
   0.30000000  0.10000000  0.00000000       0.024
   0.40000000  0.10000000  0.00000000       0.024
   0.50000000  0.10000000  0.00000000       0.024
  -0.40000000  0.10000000  0.00000000       0.024
  -0.30000000  0.10000000  0.00000000       0.024
  -0.20000000  0.10000000  0.00000000       0.024
  -0.10000000  0.10000000  0.00000000       0.012
   0.20000000  0.20000000  0.00000000       0.006
   0.30000000  0.20000000  0.00000000       0.024
   0.40000000  0.20000000  0.00000000       0.024
   0.50000000  0.20000000  0.00000000       0.024
  -0.40000000  0.20000000  0.00000000       0.024
  -0.30000000  0.20000000  0.00000000       0.024
  -0.20000000  0.20000000  0.00000000       0.012
   0.30000000  0.30000000  0.00000000       0.006
   0.40000000  0.30000000  0.00000000       0.024
   0.50000000  0.30000000  0.00000000       0.024
  -0.40000000  0.30000000  0.00000000       0.024
  -0.30000000  0.30000000  0.00000000       0.012
   0.40000000  0.40000000  0.00000000       0.006
   0.50000000  0.40000000  0.00000000       0.024
  -0.40000000  0.40000000  0.00000000       0.012
   0.50000000  0.50000000  0.00000000       0.003
   0.30000000  0.20000000  0.10000000       0.024
   0.40000000  0.20000000  0.10000000       0.048
   0.50000000  0.20000000  0.10000000       0.048
  -0.40000000  0.20000000  0.10000000       0.024
   0.40000000  0.30000000  0.10000000       0.024
   0.50000000  0.30000000  0.10000000       0.048
  -0.40000000  0.30000000  0.10000000       0.048
  -0.30000000  0.30000000  0.10000000       0.048
  -0.20000000  0.30000000  0.10000000       0.024
   0.50000000  0.40000000  0.10000000       0.024
  -0.40000000  0.40000000  0.10000000       0.048
  -0.30000000  0.40000000  0.10000000       0.024
  -0.40000000  0.50000000  0.10000000       0.012
  -0.40000000  0.40000000  0.20000000       0.024
  -0.30000000  0.40000000  0.20000000       0.024
  -0.30000000  0.50000000  0.20000000       0.012

 position of ions in fractional coordinates (direct lattice) 
   0.00000000  0.00000000  0.00000000

 position of ions in cartesian coordinates  (Angst):
   0.00000000  0.00000000  0.00000000



--------------------------------------------------------------------------------------------------------


 k-point   1 :   0.0000 0.0000 0.0000  plane waves:     459
 k-point   2 :   0.1000 0.0000 0.0000  plane waves:     444
 k-point   3 :   0.2000 0.0000 0.0000  plane waves:     459
 k-point   4 :   0.3000 0.0000 0.0000  plane waves:     450
 k-point   5 :   0.4000 0.0000 0.0000  plane waves:     443
 k-point   6 :   0.5000 0.0000 0.0000  plane waves:     434
 k-point   7 :   0.1000 0.1000 0.0000  plane waves:     443
 k-point   8 :   0.2000 0.1000 0.0000  plane waves:     456
 k-point   9 :   0.3000 0.1000 0.0000  plane waves:     449
 k-point  10 :   0.4000 0.1000 0.0000  plane waves:     446
 k-point  11 :   0.5000 0.1000 0.0000  plane waves:     445
 k-point  12 :  -0.4000 0.1000 0.0000  plane waves:     447
 k-point  13 :  -0.3000 0.1000 0.0000  plane waves:     449
 k-point  14 :  -0.2000 0.1000 0.0000  plane waves:     457
 k-point  15 :  -0.1000 0.1000 0.0000  plane waves:     449
 k-point  16 :   0.2000 0.2000 0.0000  plane waves:     443
 k-point  17 :   0.3000 0.2000 0.0000  plane waves:     449
 k-point  18 :   0.4000 0.2000 0.0000  plane waves:     452
 k-point  19 :   0.5000 0.2000 0.0000  plane waves:     445
 k-point  20 :  -0.4000 0.2000 0.0000  plane waves:     440
 k-point  21 :  -0.3000 0.2000 0.0000  plane waves:     444
 k-point  22 :  -0.2000 0.2000 0.0000  plane waves:     449
 k-point  23 :   0.3000 0.3000 0.0000  plane waves:     444
 k-point  24 :   0.4000 0.3000 0.0000  plane waves:     444
 k-point  25 :   0.5000 0.3000 0.0000  plane waves:     445
 k-point  26 :  -0.4000 0.3000 0.0000  plane waves:     451
 k-point  27 :  -0.3000 0.3000 0.0000  plane waves:     441
 k-point  28 :   0.4000 0.4000 0.0000  plane waves:     452
 k-point  29 :   0.5000 0.4000 0.0000  plane waves:     454
 k-point  30 :  -0.4000 0.4000 0.0000  plane waves:     442
 k-point  31 :   0.5000 0.5000 0.0000  plane waves:     444
 k-point  32 :   0.3000 0.2000 0.1000  plane waves:     451
 k-point  33 :   0.4000 0.2000 0.1000  plane waves:     445
 k-point  34 :   0.5000 0.2000 0.1000  plane waves:     445
 k-point  35 :  -0.4000 0.2000 0.1000  plane waves:     446
 k-point  36 :   0.4000 0.3000 0.1000  plane waves:     447
 k-point  37 :   0.5000 0.3000 0.1000  plane waves:     445
 k-point  38 :  -0.4000 0.3000 0.1000  plane waves:     442
 k-point  39 :  -0.3000 0.3000 0.1000  plane waves:     437
 k-point  40 :  -0.2000 0.3000 0.1000  plane waves:     442
 k-point  41 :   0.5000 0.4000 0.1000  plane waves:     445
 k-point  42 :  -0.4000 0.4000 0.1000  plane waves:     446
 k-point  43 :  -0.3000 0.4000 0.1000  plane waves:     449
 k-point  44 :  -0.4000 0.5000 0.1000  plane waves:     450
 k-point  45 :  -0.4000 0.4000 0.2000  plane waves:     446
 k-point  46 :  -0.3000 0.4000 0.2000  plane waves:     444
 k-point  47 :  -0.3000 0.5000 0.2000  plane waves:     454

 maximum and minimum number of plane-waves per node :       459      434

 maximum number of plane-waves:       459
 maximum index in each direction: 
   IXMAX=    5   IYMAX=    5   IZMAX=    5
   IXMIN=   -5   IYMIN=   -5   IZMIN=   -5


 serial   3D FFT for wavefunctions
 parallel 3D FFT for charge:
    minimum data exchange during FFTs selected (reduces bandwidth)


 total amount of memory used by VASP MPI-rank0    33696. kBytes
=======================================================================

   base      :      30000. kBytes
   nonl-proj :       1451. kBytes
   fftplans  :        150. kBytes
   grid      :       1295. kBytes
   one-center:          6. kBytes
   wavefun   :        794. kBytes

     INWAV:  cpu time    0.0000: real time    0.0001
 Broyden mixing: mesh for mixing (old mesh)
   NGX = 11   NGY = 11   NGZ = 11
  (NGX  = 48   NGY  = 48   NGZ  = 48)
  gives a total of   1331 points

 initial charge density was supplied:
 charge density of overlapping atoms calculated
 number of electron       3.0000000 magnetization       0.6000000
 keeping initial charge density in first step


--------------------------------------------------------------------------------------------------------


 Maximum index for augmentation-charges         1111 (set IRDMAX)


--------------------------------------------------------------------------------------------------------


 First call to EWALD:  gamma=   0.695
 Maximum number of real-space cells 3x 3x 3
 Maximum number of reciprocal cells 3x 3x 3

    FEWALD:  cpu time    0.0006: real time    0.0007


--------------------------------------- Iteration      1(   1)  ---------------------------------------


    POTLOK:  cpu time    0.2130: real time    0.2134
    SETDIJ:  cpu time    0.1528: real time    0.1529
     EDDAV:  cpu time    6.9172: real time    6.9176
 BZINTS: Fermi energy:    8.090125;    3.000000 electrons
         Band energy: 0.107759E+02;  BLOECHL correction:   -0.148704
       DOS:  cpu time    0.0326: real time    0.0329
    --------------------------------------------
      LOOP:  cpu time    7.3156: real time    7.3168

 eigenvalue-minimisations  : 12720
 total energy-change (2. order) :-0.3626219E+01  (-0.9066616E+02)
 number of electron       3.0000000 magnetization       0.6000000
 augmentation part        3.0000000 magnetization       0.6000000

 Free energy of the ion-electron system (eV)
  ---------------------------------------------------
  alpha Z        PSCENC =        -0.20254611
  Ewald energy   TEWEN  =       -73.39295237
  -Hartree energ DENC   =        -0.10329695
  -exchange      EXHF   =         0.00000000
  -V(xc)+E(xc)   XCENC  =       -26.19545267
  PAW double counting   =        66.16230985      -34.20858819
  entropy T*S    EENTRO =         0.00000000
  eigenvalues    EBANDS =        10.77585050
  atomic energy  EATOM  =        53.53845706
  Solvation  Ediel_sol  =         0.00000000
  ---------------------------------------------------
  free energy    TOTEN  =        -3.62621888 eV

  energy without entropy =       -3.62621888  energy(sigma->0) =       -3.62621888


--------------------------------------------------------------------------------------------------------




--------------------------------------- Iteration      1(   2)  ---------------------------------------


     EDDAV:  cpu time    6.4233: real time    6.4235
 BZINTS: Fermi energy:    8.051541;    3.000000 electrons
         Band energy: 0.107220E+02;  BLOECHL correction:   -0.147487
       DOS:  cpu time    0.0331: real time    0.0333
    --------------------------------------------
      LOOP:  cpu time    6.4564: real time    6.4567

 eigenvalue-minimisations  : 11808
 total energy-change (2. order) :-0.5385843E-01  (-0.5340178E-01)
 number of electron       3.0000000 magnetization       0.6000000
 augmentation part        3.0000000 magnetization       0.6000000

 Free energy of the ion-electron system (eV)
  ---------------------------------------------------
  alpha Z        PSCENC =        -0.20254611
  Ewald energy   TEWEN  =       -73.39295237
  -Hartree energ DENC   =        -0.10329695
  -exchange      EXHF   =         0.00000000
  -V(xc)+E(xc)   XCENC  =       -26.19545267
  PAW double counting   =        66.16230985      -34.20858819
  entropy T*S    EENTRO =         0.00000000
  eigenvalues    EBANDS =        10.72199207
  atomic energy  EATOM  =        53.53845706
  Solvation  Ediel_sol  =         0.00000000
  ---------------------------------------------------
  free energy    TOTEN  =        -3.68007731 eV

  energy without entropy =       -3.68007731  energy(sigma->0) =       -3.68007731


--------------------------------------------------------------------------------------------------------




--------------------------------------- Iteration      1(   3)  ---------------------------------------


     EDDAV:  cpu time    9.4991: real time    9.4993
 BZINTS: Fermi energy:    8.051539;    3.000000 electrons
         Band energy: 0.107220E+02;  BLOECHL correction:   -0.147487
       DOS:  cpu time    0.0327: real time    0.0329
    --------------------------------------------
      LOOP:  cpu time    9.5319: real time    9.5322

 eigenvalue-minimisations  : 13440
 total energy-change (2. order) :-0.2755518E-05  (-0.2749864E-05)
 number of electron       3.0000000 magnetization       0.6000000
 augmentation part        3.0000000 magnetization       0.6000000

 Free energy of the ion-electron system (eV)
  ---------------------------------------------------
  alpha Z        PSCENC =        -0.20254611
  Ewald energy   TEWEN  =       -73.39295237
  -Hartree energ DENC   =        -0.10329695
  -exchange      EXHF   =         0.00000000
  -V(xc)+E(xc)   XCENC  =       -26.19545267
  PAW double counting   =        66.16230985      -34.20858819
  entropy T*S    EENTRO =         0.00000000
  eigenvalues    EBANDS =        10.72198932
  atomic energy  EATOM  =        53.53845706
  Solvation  Ediel_sol  =         0.00000000
  ---------------------------------------------------
  free energy    TOTEN  =        -3.68008006 eV

  energy without entropy =       -3.68008006  energy(sigma->0) =       -3.68008006


--------------------------------------------------------------------------------------------------------




--------------------------------------- Iteration      1(   4)  ---------------------------------------


     EDDAV:  cpu time    9.3112: real time    9.3113
 BZINTS: Fermi energy:    8.051539;    3.000000 electrons
         Band energy: 0.107220E+02;  BLOECHL correction:   -0.147487
       DOS:  cpu time    0.0343: real time    0.0345
    --------------------------------------------
      LOOP:  cpu time    9.3455: real time    9.3458

 eigenvalue-minimisations  : 13296
 total energy-change (2. order) :-0.4801848E-10  (-0.1293793E-10)
 number of electron       3.0000000 magnetization       0.6000000
 augmentation part        3.0000000 magnetization       0.6000000

 Free energy of the ion-electron system (eV)
  ---------------------------------------------------
  alpha Z        PSCENC =        -0.20254611
  Ewald energy   TEWEN  =       -73.39295237
  -Hartree energ DENC   =        -0.10329695
  -exchange      EXHF   =         0.00000000
  -V(xc)+E(xc)   XCENC  =       -26.19545267
  PAW double counting   =        66.16230985      -34.20858819
  entropy T*S    EENTRO =         0.00000000
  eigenvalues    EBANDS =        10.72198932
  atomic energy  EATOM  =        53.53845706
  Solvation  Ediel_sol  =         0.00000000
  ---------------------------------------------------
  free energy    TOTEN  =        -3.68008006 eV

  energy without entropy =       -3.68008006  energy(sigma->0) =       -3.68008006


--------------------------------------------------------------------------------------------------------




--------------------------------------- Iteration      1(   5)  ---------------------------------------


     EDDAV:  cpu time    9.3965: real time    9.3966
 BZINTS: Fermi energy:    8.051539;    3.000000 electrons
         Band energy: 0.107220E+02;  BLOECHL correction:   -0.147487
       DOS:  cpu time    0.0336: real time    0.0337
    CHARGE:  cpu time    0.0373: real time    0.0375
    MIXING:  cpu time    0.0007: real time    0.0009
    --------------------------------------------
      LOOP:  cpu time    9.4680: real time    9.4687

 eigenvalue-minimisations  : 13152
 total energy-change (2. order) : 0.5778418E-09  (-0.9567899E-13)
 number of electron       3.0000000 magnetization      -0.0490340
 augmentation part       -0.0367020 magnetization      -0.1867868

 Broyden mixing:
  rms(total) = 0.17495E+00    rms(broyden)= 0.17495E+00
  rms(prec ) = 0.38395E+00
  weight for this iteration     100.00

 Free energy of the ion-electron system (eV)
  ---------------------------------------------------
  alpha Z        PSCENC =        -0.20254611
  Ewald energy   TEWEN  =       -73.39295237
  -Hartree energ DENC   =        -0.10329695
  -exchange      EXHF   =         0.00000000
  -V(xc)+E(xc)   XCENC  =       -26.19545267
  PAW double counting   =        66.16230985      -34.20858819
  entropy T*S    EENTRO =         0.00000000
  eigenvalues    EBANDS =        10.72198932
  atomic energy  EATOM  =        53.53845706
  Solvation  Ediel_sol  =         0.00000000
  ---------------------------------------------------
  free energy    TOTEN  =        -3.68008006 eV

  energy without entropy =       -3.68008006  energy(sigma->0) =       -3.68008006


--------------------------------------------------------------------------------------------------------




--------------------------------------- Iteration      1(   6)  ---------------------------------------


    POTLOK:  cpu time    0.0068: real time    0.0071
    SETDIJ:  cpu time    0.1607: real time    0.1607
    EDDIAG:  cpu time    0.2974: real time    0.2985
  RMM-DIIS:  cpu time    0.1799: real time    0.1799
    ORTHCH:  cpu time    0.0372: real time    0.0372
 BZINTS: Fermi energy:    8.016046;    3.000000 electrons
         Band energy: 0.106584E+02;  BLOECHL correction:   -0.138589
       DOS:  cpu time    0.0340: real time    0.0341
    CHARGE:  cpu time    0.0332: real time    0.0332
    MIXING:  cpu time    0.0004: real time    0.0004
    --------------------------------------------
      LOOP:  cpu time    0.7496: real time    0.7511

 eigenvalue-minimisations  :  9025
 total energy-change (2. order) :-0.6547546E-01  (-0.2576544E-03)
 number of electron       3.0000000 magnetization       0.0562052
 augmentation part       -0.0370977 magnetization       0.0628705

 Broyden mixing:
  rms(total) = 0.82816E-01    rms(broyden)= 0.82816E-01
  rms(prec ) = 0.23193E+00
  weight for this iteration     100.00

 eigenvalues of (default mixing * dielectric matrix)
  average eigenvalue GAMMA=   0.9000
  0.9000

 Free energy of the ion-electron system (eV)
  ---------------------------------------------------
  alpha Z        PSCENC =        -0.20254611
  Ewald energy   TEWEN  =       -73.39295237
  -Hartree energ DENC   =        -0.08600341
  -exchange      EXHF   =         0.00000000
  -V(xc)+E(xc)   XCENC  =       -26.21276355
  PAW double counting   =        94.47540548      -62.52354258
  entropy T*S    EENTRO =         0.00000000
  eigenvalues    EBANDS =        10.65838996
  atomic energy  EATOM  =        53.53845706
  Solvation  Ediel_sol  =         0.00000000
  ---------------------------------------------------
  free energy    TOTEN  =        -3.74555552 eV

  energy without entropy =       -3.74555552  energy(sigma->0) =       -3.74555552


--------------------------------------------------------------------------------------------------------




--------------------------------------- Iteration      1(   7)  ---------------------------------------


    POTLOK:  cpu time    0.0066: real time    0.0068
    SETDIJ:  cpu time    0.1608: real time    0.1608
    EDDIAG:  cpu time    0.2909: real time    0.2909
  RMM-DIIS:  cpu time    0.2042: real time    0.2042
    ORTHCH:  cpu time    0.0376: real time    0.0376
 BZINTS: Fermi energy:    8.005804;    3.000000 electrons
         Band energy: 0.106274E+02;  BLOECHL correction:   -0.138837
       DOS:  cpu time    0.0354: real time    0.0355
    CHARGE:  cpu time    0.0341: real time    0.0341
    MIXING:  cpu time    0.0002: real time    0.0002
    --------------------------------------------
      LOOP:  cpu time    0.7698: real time    0.7702

 eigenvalue-minimisations  :  9423
 total energy-change (2. order) : 0.8755986E-02  (-0.1117079E-03)
 number of electron       3.0000000 magnetization       0.0107838
 augmentation part       -0.0378027 magnetization       0.0035337

 Broyden mixing:
  rms(total) = 0.67453E-01    rms(broyden)= 0.67453E-01
  rms(prec ) = 0.99148E-01
  weight for this iteration     100.00

 eigenvalues of (default mixing * dielectric matrix)
  average eigenvalue GAMMA=   0.9335
  1.1959  0.6712

 Free energy of the ion-electron system (eV)
  ---------------------------------------------------
  alpha Z        PSCENC =        -0.20254611
  Ewald energy   TEWEN  =       -73.39295237
  -Hartree energ DENC   =        -0.08972845
  -exchange      EXHF   =         0.00000000
  -V(xc)+E(xc)   XCENC  =       -26.16585964
  PAW double counting   =       130.62467673      -98.67625083
  entropy T*S    EENTRO =         0.00000000
  eigenvalues    EBANDS =        10.62740407
  atomic energy  EATOM  =        53.53845706
  Solvation  Ediel_sol  =         0.00000000
  ---------------------------------------------------
  free energy    TOTEN  =        -3.73679954 eV

  energy without entropy =       -3.73679954  energy(sigma->0) =       -3.73679954


--------------------------------------------------------------------------------------------------------




--------------------------------------- Iteration      1(   8)  ---------------------------------------


    POTLOK:  cpu time    0.0066: real time    0.0069
    SETDIJ:  cpu time    0.1597: real time    0.1597
    EDDIAG:  cpu time    0.2902: real time    0.2902
  RMM-DIIS:  cpu time    0.2039: real time    0.2039
    ORTHCH:  cpu time    0.0376: real time    0.0376
 BZINTS: Fermi energy:    8.002609;    3.000000 electrons
         Band energy: 0.106184E+02;  BLOECHL correction:   -0.138968
       DOS:  cpu time    0.0324: real time    0.0326
    CHARGE:  cpu time    0.0327: real time    0.0327
    MIXING:  cpu time    0.0002: real time    0.0002
    --------------------------------------------
      LOOP:  cpu time    0.7634: real time    0.7639

 eigenvalue-minimisations  :  9279
 total energy-change (2. order) :-0.1103659E-03  (-0.2318640E-04)
 number of electron       3.0000000 magnetization      -0.0021850
 augmentation part       -0.0381040 magnetization      -0.0046100

 Broyden mixing:
  rms(total) = 0.20798E-01    rms(broyden)= 0.20798E-01
  rms(prec ) = 0.25144E-01
  weight for this iteration     100.00

 eigenvalues of (default mixing * dielectric matrix)
  average eigenvalue GAMMA=   1.2666
  2.2606  0.9159  0.6235

 Free energy of the ion-electron system (eV)
  ---------------------------------------------------
  alpha Z        PSCENC =        -0.20254611
  Ewald energy   TEWEN  =       -73.39295237
  -Hartree energ DENC   =        -0.09897971
  -exchange      EXHF   =         0.00000000
  -V(xc)+E(xc)   XCENC  =       -26.14592918
  PAW double counting   =       144.72370074     -112.77707126
  entropy T*S    EENTRO =         0.00000000
  eigenvalues    EBANDS =        10.61841093
  atomic energy  EATOM  =        53.53845706
  Solvation  Ediel_sol  =         0.00000000
  ---------------------------------------------------
  free energy    TOTEN  =        -3.73690991 eV

  energy without entropy =       -3.73690991  energy(sigma->0) =       -3.73690991


--------------------------------------------------------------------------------------------------------




--------------------------------------- Iteration      1(   9)  ---------------------------------------


    POTLOK:  cpu time    0.0064: real time    0.0066
    SETDIJ:  cpu time    0.1584: real time    0.1584
    EDDIAG:  cpu time    0.2938: real time    0.2938
  RMM-DIIS:  cpu time    0.2449: real time    0.2449
    ORTHCH:  cpu time    0.0373: real time    0.0373
 BZINTS: Fermi energy:    8.002198;    3.000000 electrons
         Band energy: 0.106173E+02;  BLOECHL correction:   -0.138993
       DOS:  cpu time    0.0333: real time    0.0335
    --------------------------------------------
      LOOP:  cpu time    0.7743: real time    0.7746

 eigenvalue-minimisations  :  9681
 total energy-change (2. order) :-0.4233357E-05  (-0.3295085E-05)
 number of electron       3.0000000 magnetization      -0.0021850
 augmentation part       -0.0381040 magnetization      -0.0046100

 Free energy of the ion-electron system (eV)
  ---------------------------------------------------
  alpha Z        PSCENC =        -0.20254611
  Ewald energy   TEWEN  =       -73.39295237
  -Hartree energ DENC   =        -0.10184710
  -exchange      EXHF   =         0.00000000
  -V(xc)+E(xc)   XCENC  =       -26.14093240
  PAW double counting   =       145.02058248     -113.07493846
  entropy T*S    EENTRO =         0.00000000
  eigenvalues    EBANDS =        10.61726276
  atomic energy  EATOM  =        53.53845706
  Solvation  Ediel_sol  =         0.00000000
  ---------------------------------------------------
  free energy    TOTEN  =        -3.73691414 eV

  energy without entropy =       -3.73691414  energy(sigma->0) =       -3.73691414


--------------------------------------------------------------------------------------------------------




 average (electrostatic) potential at core
  the test charge radii are     1.0406
  (the norm of the test charge is              1.0000)
       1 -72.7006



 E-fermi :   8.0022     XC(G=0): -10.1792     alpha+bet :-14.8020

 Fermi energy:         8.0021983909

 spin component 1

 k-point     1 :       0.0000    0.0000    0.0000
  band No.  band energies     occupation 
      1      -3.1523      1.00000
      2      20.5391      0.00000
      3      20.5391      0.00000
      4      20.5391      0.00000
      5      21.9932      0.00000
      6      21.9932      0.00000
      7      21.9932      0.00000
      8      24.3755      0.00000
      9      27.3138      0.00000
     10      27.3138      0.00000
     11      30.1613      0.00000
     12      32.5106      0.00000
     13      32.5106      0.00000
     14      32.5106      0.00000
     15      41.0586      0.00000
     16      56.0097      0.00000
     17      56.0097      0.00000
     18      56.0097      0.00000
     19      56.0458      0.00000
     20      59.2117      0.00000
     21      59.2117      0.00000
     22      59.2117      0.00000
     23      62.8320      0.00000
     24      62.8320      0.00000
     25      65.0767      0.00000
     26      65.0767      0.00000
     27      65.0767      0.00000
     28      73.1763      0.00000
     29      73.1763      0.00000
     30      73.1763      0.00000
     31      80.8181      0.00000
     32      83.0771      0.00000
     33      83.0771      0.00000
     34      87.2044      0.00000
     35      87.2044      0.00000
     36      87.2044      0.00000
     37      90.0878      0.00000
     38      90.0878      0.00000
     39      90.0878      0.00000
     40      90.8949      0.00000
     41      93.4602      0.00000
     42      93.4602      0.00000
     43      93.4602      0.00000
     44      93.9351      0.00000
     45      93.9351      0.00000
     46      93.9351      0.00000
     47      96.3733      0.00000
     48      96.3733      0.00000

 k-point     2 :       0.1000    0.0000    0.0000
  band No.  band energies     occupation 
      1      -2.8815      1.00000
      2      17.2505      0.00000
      3      19.8082      0.00000
      4      19.8082      0.00000
      5      22.6616      0.00000
      6      23.1286      0.00000
      7      23.1286      0.00000
      8      26.0287      0.00000
      9      26.0287      0.00000
     10      26.8121      0.00000
     11      29.2764      0.00000
     12      33.8160      0.00000
     13      34.3540      0.00000
     14      34.3540      0.00000
     15      42.1064      0.00000
     16      55.1715      0.00000
     17      55.3652      0.00000
     18      55.3652      0.00000
     19      56.3732      0.00000
     20      56.9486      0.00000
     21      56.9486      0.00000
     22      59.1926      0.00000
     23      61.5530      0.00000
     24      61.5530      0.00000
     25      65.3195      0.00000
     26      69.3985      0.00000
     27      69.3985      0.00000
     28      71.2690      0.00000
     29      72.9445      0.00000
     30      72.9445      0.00000
     31      81.5583      0.00000
     32      81.5583      0.00000
     33      82.1739      0.00000
     34      84.1129      0.00000
     35      85.5688      0.00000
     36      85.5688      0.00000
     37      87.6896      0.00000
     38      87.6896      0.00000
     39      88.5651      0.00000
     40      90.0203      0.00000
     41      91.1190      0.00000
     42      91.1190      0.00000
     43      92.7882      0.00000
     44      94.2167      0.00000
     45      95.8397      0.00000
     46      95.8397      0.00000
     47      97.4442      0.00000
     48      97.4442      0.00000

 k-point     3 :       0.2000    0.0000    0.0000
  band No.  band energies     occupation 
      1      -2.0723      1.00000
      2      13.2653      0.00000
      3      19.0493      0.00000
      4      19.0493      0.00000
      5      22.3785      0.00000
      6      23.5401      0.00000
      7      23.5401      0.00000
      8      25.6252      0.00000
      9      25.6252      0.00000
     10      27.5608      0.00000
     11      30.6638      0.00000
     12      37.1664      0.00000
     13      37.9434      0.00000
     14      37.9434      0.00000
     15      44.6839      0.00000
     16      50.7961      0.00000
     17      50.7961      0.00000
     18      53.5140      0.00000
     19      56.3777      0.00000
     20      56.3777      0.00000
     21      56.5846      0.00000
     22      58.7211      0.00000
     23      61.8049      0.00000
     24      61.8049      0.00000
     25      66.0299      0.00000
     26      68.3821      0.00000
     27      70.6576      0.00000
     28      70.6576      0.00000
     29      74.3477      0.00000
     30      74.3477      0.00000
     31      78.1641      0.00000
     32      78.7274      0.00000
     33      78.7274      0.00000
     34      82.1362      0.00000
     35      82.1362      0.00000
     36      84.0480      0.00000
     37      84.1185      0.00000
     38      86.6735      0.00000
     39      86.6735      0.00000
     40      88.1558      0.00000
     41      89.3945      0.00000
     42      89.8717      0.00000
     43      89.8717      0.00000
     44      93.7509      0.00000
     45      97.3347      0.00000
     46      97.3347      0.00000
     47     100.0187      0.00000
     48     100.0187      0.00000

 k-point     4 :       0.3000    0.0000    0.0000
  band No.  band energies     occupation 
      1      -0.7335      1.00000
      2       9.5814     -0.04522
      3      18.6984      0.00000
      4      18.6984      0.00000
      5      21.7948      0.00000
      6      21.7948      0.00000
      7      22.2096      0.00000
      8      25.7747      0.00000
      9      28.0945      0.00000
     10      28.0945      0.00000
     11      34.2736      0.00000
     12      41.8125      0.00000
     13      41.8125      0.00000
     14      41.8777      0.00000
     15      46.3418      0.00000
     16      46.3418      0.00000
     17      47.8695      0.00000
     18      51.3492      0.00000
     19      56.3381      0.00000
     20      56.3381      0.00000
     21      56.8518      0.00000
     22      57.5244      0.00000
     23      62.2281      0.00000
     24      62.2281      0.00000
     25      65.5393      0.00000
     26      66.5548      0.00000
     27      66.5548      0.00000
     28      67.1409      0.00000
     29      74.1881      0.00000
     30      74.1881      0.00000
     31      74.3186      0.00000
     32      77.1883      0.00000
     33      78.5603      0.00000
     34      78.5603      0.00000
     35      80.0656      0.00000
     36      80.0656      0.00000
     37      80.2129      0.00000
     38      88.6593      0.00000
     39      89.1652      0.00000
     40      89.1652      0.00000
     41      89.3890      0.00000
     42      89.3890      0.00000
     43      91.3090      0.00000
     44      93.2746      0.00000
     45      97.7660      0.00000
     46      97.7661      0.00000
     47     101.5888      0.00000
     48     103.2219      0.00000

 k-point     5 :       0.4000    0.0000    0.0000
  band No.  band energies     occupation 
      1       1.1202      1.00000
      2       6.3048      1.05748
      3      18.7934      0.00000
      4      18.7934      0.00000
      5      20.3513      0.00000
      6      20.3513      0.00000
      7      22.4241      0.00000
      8      24.2414      0.00000
      9      30.9072      0.00000
     10      30.9072      0.00000
     11      37.5971      0.00000
     12      40.7805      0.00000
     13      40.7805      0.00000
     14      46.3365      0.00000
     15      47.8923      0.00000
     16      47.8923      0.00000
     17      47.9976      0.00000
     18      53.1336      0.00000
     19      55.6038      0.00000
     20      56.1511      0.00000
     21      56.1511      0.00000
     22      57.2057      0.00000
     23      59.8954      0.00000
     24      59.8954      0.00000
     25      62.8574      0.00000
     26      64.1706      0.00000
     27      64.1706      0.00000
     28      67.0070      0.00000
     29      68.4229      0.00000
     30      73.7040      0.00000
     31      73.7040      0.00000
     32      76.2466      0.00000
     33      76.2466      0.00000
     34      76.6398      0.00000
     35      77.2962      0.00000
     36      80.5117      0.00000
     37      80.5117      0.00000
     38      88.5287      0.00000
     39      89.0034      0.00000
     40      89.0035      0.00000
     41      89.8965      0.00000
     42      93.5205      0.00000
     43      93.5205      0.00000
     44      94.3410      0.00000
     45      99.9943      0.00000
     46      99.9945      0.00000
     47     103.4067      0.00000
     48     104.1564      0.00000

 k-point     6 :       0.5000    0.0000    0.0000
  band No.  band energies     occupation 
      1       3.3745      1.00000
      2       3.5743      1.00000
      3      19.3035      0.00000
      4      19.3035      0.00000
      5      19.3862      0.00000
      6      19.3862      0.00000
      7      23.0428      0.00000
      8      23.1631      0.00000
      9      32.6701      0.00000
     10      32.6701      0.00000
     11      38.6887      0.00000
     12      38.6887      0.00000
     13      39.4836      0.00000
     14      45.4033      0.00000
     15      50.5639      0.00000
     16      51.5337      0.00000
     17      51.5337      0.00000
     18      53.4951      0.00000
     19      54.6472      0.00000
     20      54.6472      0.00000
     21      56.2391      0.00000
     22      57.4967      0.00000
     23      57.4967      0.00000
     24      58.4209      0.00000
     25      60.6112      0.00000
     26      62.6248      0.00000
     27      64.2725      0.00000
     28      64.2725      0.00000
     29      69.1223      0.00000
     30      73.5783      0.00000
     31      73.5783      0.00000
     32      75.3330      0.00000
     33      75.3330      0.00000
     34      76.0524      0.00000
     35      76.9476      0.00000
     36      80.5428      0.00000
     37      80.5428      0.00000
     38      88.6857      0.00000
     39      88.8474      0.00000
     40      88.8474      0.00000
     41      88.9397      0.00000
     42      94.1302      0.00000
     43      95.5448      0.00000
     44      95.5448      0.00000
     45     101.3575      0.00000
     46     101.3575      0.00000
     47     107.1791      0.00000
     48     107.1791      0.00000

 k-point     7 :       0.1000    0.1000    0.0000
  band No.  band energies     occupation 
      1      -2.7914      1.00000
      2      18.4111      0.00000
      3      18.4111      0.00000
      4      18.7031      0.00000
      5      21.2046      0.00000
      6      23.8324      0.00000
      7      24.6419      0.00000
      8      24.6419      0.00000
      9      26.9331      0.00000
     10      27.6477      0.00000
     11      30.7426      0.00000
     12      32.9311      0.00000
     13      32.9311      0.00000
     14      35.9391      0.00000
     15      42.6590      0.00000
     16      54.9430      0.00000
     17      54.9430      0.00000
     18      55.3368      0.00000
     19      56.5721      0.00000
     20      57.2916      0.00000
     21      57.3181      0.00000
     22      57.3181      0.00000
     23      59.4477      0.00000
     24      62.7226      0.00000
     25      67.8085      0.00000
     26      67.8085      0.00000
     27      69.9798      0.00000
     28      71.0664      0.00000
     29      73.4776      0.00000
     30      73.4776      0.00000
     31      80.3487      0.00000
     32      82.0098      0.00000
     33      82.0098      0.00000
     34      82.4989      0.00000
     35      82.7818      0.00000
     36      84.5532      0.00000
     37      88.1955      0.00000
     38      89.8049      0.00000
     39      89.8049      0.00000
     40      90.2214      0.00000
     41      90.2214      0.00000
     42      91.8898      0.00000
     43      93.6120      0.00000
     44      94.7428      0.00000
     45      95.0588      0.00000
     46      97.3180      0.00000
     47      97.3465      0.00000
     48      97.3465      0.00000

 k-point     8 :       0.2000    0.1000    0.0000
  band No.  band energies     occupation 
      1      -2.1619      1.00000
      2      14.7306      0.00000
      3      17.4354      0.00000
      4      18.8381      0.00000
      5      21.2404      0.00000
      6      22.0430      0.00000
      7      25.0265      0.00000
      8      25.9626      0.00000
      9      27.3079      0.00000
     10      29.7373      0.00000
     11      30.4046      0.00000
     12      35.1346      0.00000
     13      35.5935      0.00000
     14      38.4647      0.00000
     15      45.1005      0.00000
     16      50.7889      0.00000
     17      52.0997      0.00000
     18      55.3204      0.00000
     19      55.4976      0.00000
     20      56.0127      0.00000
     21      57.0470      0.00000
     22      57.7053      0.00000
     23      59.3700      0.00000
     24      62.3061      0.00000
     25      66.8492      0.00000
     26      68.8121      0.00000
     27      71.2720      0.00000
     28      72.5466      0.00000
     29      72.6793      0.00000
     30      75.5562      0.00000
     31      76.4984      0.00000
     32      77.5241      0.00000
     33      80.1194      0.00000
     34      81.2896      0.00000
     35      82.2897      0.00000
     36      83.3339      0.00000
     37      85.9332      0.00000
     38      86.3832      0.00000
     39      88.1735      0.00000
     40      89.3071      0.00000
     41      89.8910      0.00000
     42      91.2921      0.00000
     43      93.5145      0.00000
     44      94.6435      0.00000
     45      94.8118      0.00000
     46      95.8940      0.00000
     47      97.0061      0.00000
     48      98.2622      0.00000

 k-point     9 :       0.3000    0.1000    0.0000
  band No.  band energies     occupation 
      1      -1.0003      1.00000
      2      10.9713     -0.00924
      3      16.9117      0.00000
      4      18.5076      0.00000
      5      19.2317      0.00000
      6      24.0760      0.00000
      7      24.5657      0.00000
      8      25.0159      0.00000
      9      28.0648      0.00000
     10      29.3354      0.00000
     11      34.0808      0.00000
     12      38.9137      0.00000
     13      40.2566      0.00000
     14      41.7551      0.00000
     15      45.8855      0.00000
     16      48.0048      0.00000
     17      48.4227      0.00000
     18      53.3026      0.00000
     19      55.4724      0.00000
     20      56.1231      0.00000
     21      57.1617      0.00000
     22      58.3276      0.00000
     23      58.3709      0.00000
     24      62.6632      0.00000
     25      63.9816      0.00000
     26      67.8041      0.00000
     27      68.8014      0.00000
     28      71.0706      0.00000
     29      71.2358      0.00000
     30      72.7134      0.00000
     31      76.9544      0.00000
     32      77.2494      0.00000
     33      77.4601      0.00000
     34      79.4175      0.00000
     35      80.8895      0.00000
     36      81.5201      0.00000
     37      82.4211      0.00000
     38      86.6880      0.00000
     39      86.8102      0.00000
     40      87.5156      0.00000
     41      91.2832      0.00000
     42      92.8522      0.00000
     43      92.8905      0.00000
     44      94.4572      0.00000
     45      94.4986      0.00000
     46      97.4563      0.00000
     47     100.0972      0.00000
     48     101.5457      0.00000

 k-point    10 :       0.4000    0.1000    0.0000
  band No.  band energies     occupation 
      1       0.6807      1.00000
      2       7.5683      0.64236
      3      16.8459      0.00000
      4      17.5519      0.00000
      5      18.5185      0.00000
      6      23.0491      0.00000
      7      24.7816      0.00000
      8      26.1017      0.00000
      9      27.6388      0.00000
     10      31.8409      0.00000
     11      37.5489      0.00000
     12      40.3418      0.00000
     13      42.5661      0.00000
     14      44.7970      0.00000
     15      45.3616      0.00000
     16      47.1519      0.00000
     17      49.6714      0.00000
     18      53.2440      0.00000
     19      55.5136      0.00000
     20      55.9078      0.00000
     21      56.2230      0.00000
     22      57.5421      0.00000
     23      58.8763      0.00000
     24      60.3928      0.00000
     25      63.4664      0.00000
     26      63.6208      0.00000
     27      65.0926      0.00000
     28      69.4282      0.00000
     29      69.7075      0.00000
     30      70.2507      0.00000
     31      71.8875      0.00000
     32      75.6745      0.00000
     33      76.5542      0.00000
     34      77.8102      0.00000
     35      80.5286      0.00000
     36      81.8866      0.00000
     37      83.3419      0.00000
     38      84.4796      0.00000
     39      87.4992      0.00000
     40      88.6799      0.00000
     41      92.8549      0.00000
     42      94.3277      0.00000
     43      94.7765      0.00000
     44      94.9454      0.00000
     45      97.7092      0.00000
     46      98.6422      0.00000
     47     101.7650      0.00000
     48     103.1425      0.00000

 k-point    11 :       0.5000    0.1000    0.0000
  band No.  band energies     occupation 
      1       2.8603      1.00000
      2       4.5995      1.00000
      3      16.3575      0.00000
      4      17.2404      0.00000
      5      18.9578      0.00000
      6      21.9150      0.00000
      7      24.8001      0.00000
      8      25.5456      0.00000
      9      30.4425      0.00000
     10      32.7512      0.00000
     11      39.0174      0.00000
     12      39.0273      0.00000
     13      40.4715      0.00000
     14      46.8530      0.00000
     15      49.3462      0.00000
     16      49.7863      0.00000
     17      50.8061      0.00000
     18      53.7339      0.00000
     19      54.6342      0.00000
     20      55.9847      0.00000
     21      56.1864      0.00000
     22      56.6486      0.00000
     23      57.6320      0.00000
     24      59.0990      0.00000
     25      61.7451      0.00000
     26      61.9125      0.00000
     27      63.6982      0.00000
     28      64.3367      0.00000
     29      68.2173      0.00000
     30      69.0950      0.00000
     31      72.6390      0.00000
     32      74.6903      0.00000
     33      76.0873      0.00000
     34      77.6241      0.00000
     35      80.2592      0.00000
     36      81.9253      0.00000
     37      83.0009      0.00000
     38      83.1553      0.00000
     39      88.3883      0.00000
     40      88.5768      0.00000
     41      92.3002      0.00000
     42      95.2211      0.00000
     43      96.5927      0.00000
     44      98.3065      0.00000
     45     100.1223      0.00000
     46     100.8230      0.00000
     47     101.5922      0.00000
     48     104.5533      0.00000

 k-point    12 :      -0.4000    0.1000    0.0000
  band No.  band energies     occupation 
      1       2.0810      1.00000
      2       5.5358      1.04363
      3      15.6348      0.00000
      4      18.0954      0.00000
      5      19.8717      0.00000
      6      21.2199      0.00000
      7      24.1149      0.00000
      8      26.3280      0.00000
      9      30.3098      0.00000
     10      31.8084      0.00000
     11      37.7754      0.00000
     12      39.9866      0.00000
     13      41.5821      0.00000
     14      46.5072      0.00000
     15      47.5006      0.00000
     16      49.1717      0.00000
     17      51.1088      0.00000
     18      54.4836      0.00000
     19      55.1383      0.00000
     20      55.2422      0.00000
     21      55.7750      0.00000
     22      57.6353      0.00000
     23      57.7158      0.00000
     24      59.5351      0.00000
     25      60.9481      0.00000
     26      61.8455      0.00000
     27      64.1058      0.00000
     28      66.5879      0.00000
     29      68.8378      0.00000
     30      68.8425      0.00000
     31      72.1610      0.00000
     32      75.1042      0.00000
     33      76.2708      0.00000
     34      78.0958      0.00000
     35      79.8754      0.00000
     36      82.1269      0.00000
     37      83.1324      0.00000
     38      83.1456      0.00000
     39      88.1078      0.00000
     40      88.1823      0.00000
     41      92.6515      0.00000
     42      95.2583      0.00000
     43      95.3280      0.00000
     44      96.6200      0.00000
     45      99.8852      0.00000
     46     101.1655      0.00000
     47     102.1480      0.00000
     48     106.8086      0.00000

 k-point    13 :      -0.3000    0.1000    0.0000
  band No.  band energies     occupation 
      1       0.0637      1.00000
      2       8.6516      0.20617
      3      15.3959      0.00000
      4      19.3999      0.00000
      5      20.9781      0.00000
      6      21.2396      0.00000
      7      23.7419      0.00000
      8      27.2469      0.00000
      9      27.4370      0.00000
     10      29.9903      0.00000
     11      36.5513      0.00000
     12      40.1465      0.00000
     13      43.1643      0.00000
     14      43.7627      0.00000
     15      44.6317      0.00000
     16      47.7846      0.00000
     17      49.5393      0.00000
     18      51.9347      0.00000
     19      55.6510      0.00000
     20      55.8347      0.00000
     21      56.8171      0.00000
     22      57.8103      0.00000
     23      59.9423      0.00000
     24      61.2698      0.00000
     25      62.2002      0.00000
     26      64.1369      0.00000
     27      67.2358      0.00000
     28      69.5002      0.00000
     29      71.0500      0.00000
     30      71.2328      0.00000
     31      73.1796      0.00000
     32      75.8695      0.00000
     33      77.0631      0.00000
     34      78.7152      0.00000
     35      79.5441      0.00000
     36      82.7743      0.00000
     37      83.8869      0.00000
     38      84.5774      0.00000
     39      86.6112      0.00000
     40      87.0735      0.00000
     41      91.4544      0.00000
     42      91.8634      0.00000
     43      94.9752      0.00000
     44      95.5496      0.00000
     45      97.2466      0.00000
     46     100.1890      0.00000
     47     101.3296      0.00000
     48     105.1184      0.00000

 k-point    14 :      -0.2000    0.1000    0.0000
  band No.  band energies     occupation 
      1      -1.4460      1.00000
      2      12.1632      0.00000
      3      15.6584      0.00000
      4      20.9386      0.00000
      5      21.3357      0.00000
      6      23.0023      0.00000
      7      23.6903      0.00000
      8      24.5407      0.00000
      9      26.7434      0.00000
     10      29.6819      0.00000
     11      33.0667      0.00000
     12      36.8020      0.00000
     13      39.3111      0.00000
     14      41.5460      0.00000
     15      46.3753      0.00000
     16      46.7576      0.00000
     17      51.0514      0.00000
     18      53.4241      0.00000
     19      55.5079      0.00000
     20      55.7450      0.00000
     21      57.2531      0.00000
     22      58.8128      0.00000
     23      59.2259      0.00000
     24      61.0701      0.00000
     25      66.4728      0.00000
     26      67.4261      0.00000
     27      70.0506      0.00000
     28      70.1596      0.00000
     29      73.9267      0.00000
     30      74.2542      0.00000
     31      75.8405      0.00000
     32      78.0945      0.00000
     33      78.6834      0.00000
     34      78.7818      0.00000
     35      81.4270      0.00000
     36      83.4906      0.00000
     37      84.1851      0.00000
     38      84.9979      0.00000
     39      86.6060      0.00000
     40      86.6857      0.00000
     41      88.8038      0.00000
     42      90.9682      0.00000
     43      92.4261      0.00000
     44      94.7076      0.00000
     45      96.9053      0.00000
     46      97.8231      0.00000
     47      99.7234      0.00000
     48     101.9877      0.00000

 k-point    15 :      -0.1000    0.1000    0.0000
  band No.  band energies     occupation 
      1      -2.4314      1.00000
      2      15.6539      0.00000
      3      16.7315      0.00000
      4      21.2410      0.00000
      5      22.3119      0.00000
      6      23.4879      0.00000
      7      23.7582      0.00000
      8      24.6399      0.00000
      9      25.2342      0.00000
     10      29.4288      0.00000
     11      30.4285      0.00000
     12      33.4710      0.00000
     13      36.0906      0.00000
     14      37.6150      0.00000
     15      43.7744      0.00000
     16      51.2853      0.00000
     17      55.0354      0.00000
     18      55.2117      0.00000
     19      55.5433      0.00000
     20      55.6345      0.00000
     21      57.0320      0.00000
     22      59.3303      0.00000
     23      59.5696      0.00000
     24      60.9323      0.00000
     25      68.5478      0.00000
     26      69.0276      0.00000
     27      70.1994      0.00000
     28      71.2021      0.00000
     29      72.8361      0.00000
     30      74.4811      0.00000
     31      79.7143      0.00000
     32      79.8007      0.00000
     33      80.4636      0.00000
     34      80.8806      0.00000
     35      82.1251      0.00000
     36      85.6158      0.00000
     37      86.4334      0.00000
     38      86.6356      0.00000
     39      87.3829      0.00000
     40      89.4227      0.00000
     41      90.4315      0.00000
     42      91.4244      0.00000
     43      92.3780      0.00000
     44      92.6077      0.00000
     45      93.6136      0.00000
     46      96.3185      0.00000
     47      98.2783      0.00000
     48      99.2189      0.00000

 k-point    16 :       0.2000    0.2000    0.0000
  band No.  band energies     occupation 
      1      -1.7140      1.00000
      2      16.2833      0.00000
      3      16.2833      0.00000
      4      16.3732      0.00000
      5      18.6660      0.00000
      6      19.6671      0.00000
      7      28.1498      0.00000
      8      28.1498      0.00000
      9      28.6345      0.00000
     10      31.4248      0.00000
     11      32.9837      0.00000
     12      34.3485      0.00000
     13      34.3485      0.00000
     14      39.2952      0.00000
     15      47.6341      0.00000
     16      50.9748      0.00000
     17      50.9748      0.00000
     18      51.4343      0.00000
     19      54.3924      0.00000
     20      56.8277      0.00000
     21      56.8277      0.00000
     22      57.0079      0.00000
     23      60.0728      0.00000
     24      61.1993      0.00000
     25      66.4443      0.00000
     26      69.9723      0.00000
     27      69.9723      0.00000
     28      71.8771      0.00000
     29      71.8771      0.00000
     30      74.7202      0.00000
     31      76.9520      0.00000
     32      77.6832      0.00000
     33      78.3556      0.00000
     34      78.3556      0.00000
     35      82.9461      0.00000
     36      83.3862      0.00000
     37      86.8639      0.00000
     38      86.8639      0.00000
     39      88.6654      0.00000
     40      89.4758      0.00000
     41      91.8904      0.00000
     42      91.8904      0.00000
     43      93.0329      0.00000
     44      93.0726      0.00000
     45      93.3210      0.00000
     46      93.3210      0.00000
     47      98.8945      0.00000
     48      98.9890      0.00000

 k-point    17 :       0.3000    0.2000    0.0000
  band No.  band energies     occupation 
      1      -0.7337      1.00000
      2      12.7653      0.00000
      3      15.5953      0.00000
      4      16.3236      0.00000
      5      17.0223      0.00000
      6      20.3945      0.00000
      7      27.6063      0.00000
      8      28.8164      0.00000
      9      30.6519      0.00000
     10      31.6751      0.00000
     11      34.8569      0.00000
     12      36.9031      0.00000
     13      38.5030      0.00000
     14      41.2263      0.00000
     15      46.0257      0.00000
     16      48.0311      0.00000
     17      50.9908      0.00000
     18      51.9453      0.00000
     19      54.2155      0.00000
     20      55.7555      0.00000
     21      56.8334      0.00000
     22      57.0572      0.00000
     23      59.8040      0.00000
     24      60.5470      0.00000
     25      64.1498      0.00000
     26      67.0540      0.00000
     27      67.3032      0.00000
     28      70.4665      0.00000
     29      71.4173      0.00000
     30      72.3523      0.00000
     31      76.7833      0.00000
     32      77.6887      0.00000
     33      78.4405      0.00000
     34      79.0545      0.00000
     35      81.9809      0.00000
     36      82.6078      0.00000
     37      83.8002      0.00000
     38      86.6447      0.00000
     39      87.0651      0.00000
     40      90.1385      0.00000
     41      90.4567      0.00000
     42      92.0008      0.00000
     43      93.3529      0.00000
     44      93.4214      0.00000
     45      94.6248      0.00000
     46      97.8939      0.00000
     47      99.0394      0.00000
     48      99.6779      0.00000

 k-point    18 :       0.4000    0.2000    0.0000
  band No.  band energies     occupation 
      1       0.7677      1.00000
      2       9.3011      0.01893
      3      14.4754      0.00000
      4      15.3702      0.00000
      5      17.0326      0.00000
      6      22.9069      0.00000
      7      26.1488      0.00000
      8      28.7186      0.00000
      9      30.3019      0.00000
     10      32.8983      0.00000
     11      38.4683      0.00000
     12      40.1396      0.00000
[...]
     15      45.8452      0.00000
     16      48.3819      0.00000
     17      50.1948      0.00000
     18      50.9494      0.00000
     19      52.7461      0.00000
     20      53.6713      0.00000
     21      54.9079      0.00000
     22      56.2375      0.00000
     23      56.5844      0.00000
     24      58.2021      0.00000
     25      59.3528      0.00000
     26      61.8685      0.00000
     27      62.6190      0.00000
     28      63.9838      0.00000
     29      67.0028      0.00000
     30      69.2178      0.00000
     31      71.8472      0.00000
     32      73.0833      0.00000
     33      74.2040      0.00000
     34      78.6280      0.00000
     35      81.3494      0.00000
     36      83.3334      0.00000
     37      85.0025      0.00000
     38      86.1603      0.00000
     39      88.1118      0.00000
     40      90.2656      0.00000
     41      94.1247      0.00000
     42      95.5666      0.00000
     43      97.4307      0.00000
     44      98.8304      0.00000
     45     100.5086      0.00000
     46     102.5567      0.00000
     47     103.1189      0.00000
     48     104.4942      0.00000

 k-point    43 :      -0.3000    0.4000    0.1000
  band No.  band energies     occupation 
      1       5.5802      1.00000
      2       6.6910      1.01600
      3       8.1364      0.00000
      4      12.5438      0.00000
      5      19.2637      0.00000
      6      25.4327      0.00000
      7      26.5073      0.00000
      8      27.7605      0.00000
      9      32.3423      0.00000
     10      35.9719      0.00000
     11      39.7901      0.00000
     12      40.7727      0.00000
     13      44.1459      0.00000
     14      46.4355      0.00000
     15      46.8628      0.00000
     16      49.3395      0.00000
     17      51.1293      0.00000
     18      52.0258      0.00000
     19      54.2396      0.00000
     20      54.9907      0.00000
     21      55.9047      0.00000
     22      55.9517      0.00000
     23      57.1777      0.00000
     24      58.2027      0.00000
     25      59.1331      0.00000
     26      60.7937      0.00000
     27      61.8656      0.00000
     28      62.7283      0.00000
     29      64.2523      0.00000
     30      69.0255      0.00000
     31      70.7491      0.00000
     32      71.4633      0.00000
     33      73.7530      0.00000
     34      79.3240      0.00000
     35      79.5458      0.00000
     36      84.4100      0.00000
     37      84.8517      0.00000
     38      86.1725      0.00000
     39      89.1532      0.00000
     40      92.0471      0.00000
     41      96.0150      0.00000
     42      97.1037      0.00000
     43      98.3773      0.00000
     44      99.4434      0.00000
     45     102.2865      0.00000
     46     103.4456      0.00000
     47     103.4946      0.00000
     48     104.9547      0.00000

 k-point    44 :      -0.4000    0.5000    0.1000
  band No.  band energies     occupation 
      1       5.3650      1.00000
      2       6.6936      1.10367
      3      10.3506      0.00000
      4      11.7895      0.00000
      5      17.0353      0.00000
      6      19.2283      0.00000
      7      31.3748      0.00000
      8      31.4582      0.00000
      9      34.8499      0.00000
     10      39.9810      0.00000
     11      41.3461      0.00000
     12      41.4153      0.00000
     13      42.8541      0.00000
     14      44.0954      0.00000
     15      46.2547      0.00000
     16      46.4872      0.00000
     17      48.3730      0.00000
     18      50.8197      0.00000
     19      52.3676      0.00000
     20      53.0392      0.00000
     21      53.0696      0.00000
     22      53.0826      0.00000
     23      56.2643      0.00000
     24      56.4319      0.00000
     25      59.3887      0.00000
     26      60.9437      0.00000
     27      63.2153      0.00000
     28      68.8531      0.00000
     29      69.7008      0.00000
     30      71.0647      0.00000
     31      72.2643      0.00000
     32      76.3278      0.00000
     33      77.6348      0.00000
     34      78.5343      0.00000
     35      78.8191      0.00000
     36      83.1711      0.00000
     37      83.4295      0.00000
     38      84.2957      0.00000
     39      86.7988      0.00000
     40      88.3716      0.00000
     41      90.9038      0.00000
     42      92.1821      0.00000
     43      97.9036      0.00000
     44      98.1016      0.00000
     45      98.5597      0.00000
     46     100.6297      0.00000
     47     106.0432      0.00000
     48     109.4328      0.00000

 k-point    45 :      -0.4000    0.4000    0.2000
  band No.  band energies     occupation 
      1       3.8810      1.00000
      2       8.3526      0.47711
      3       9.7504      0.00000
      4      10.9883      0.00000
      5      21.6647      0.00000
      6      23.0313      0.00000
      7      24.3061      0.00000
      8      29.9228      0.00000
      9      33.1154      0.00000
     10      36.4838      0.00000
     11      39.1268      0.00000
     12      39.8276      0.00000
     13      43.8046      0.00000
     14      44.7617      0.00000
     15      47.6528      0.00000
     16      49.9127      0.00000
     17      50.6229      0.00000
     18      51.4780      0.00000
     19      53.3501      0.00000
     20      54.4297      0.00000
     21      54.6682      0.00000
     22      55.2761      0.00000
     23      58.0343      0.00000
     24      59.7224      0.00000
     25      60.7779      0.00000
     26      63.2062      0.00000
     27      63.6210      0.00000
     28      64.4580      0.00000
     29      65.7962      0.00000
     30      65.9609      0.00000
     31      68.6774      0.00000
     32      69.5971      0.00000
     33      75.4555      0.00000
     34      79.4092      0.00000
     35      79.4865      0.00000
     36      86.4182      0.00000
     37      86.8291      0.00000
     38      88.0930      0.00000
     39      90.9439      0.00000
     40      92.0549      0.00000
     41      92.4459      0.00000
     42      94.9290      0.00000
     43      94.9586      0.00000
     44      96.6109      0.00000
     45     100.2482      0.00000
     46     100.3996      0.00000
     47     103.6819      0.00000
     48     106.1650      0.00000

 k-point    46 :      -0.3000    0.4000    0.2000
  band No.  band energies     occupation 
      1       6.0195      1.00000
      2       6.2499      1.05148
      3       9.5496      0.00000
      4      10.1857      0.00000
      5      22.6376      0.00000
      6      23.0870      0.00000
      7      25.6204      0.00000
      8      27.0944      0.00000
      9      33.8129      0.00000
     10      37.0816      0.00000
     11      40.7589      0.00000
     12      41.4520      0.00000
     13      43.3825      0.00000
     14      43.9248      0.00000
     15      46.2697      0.00000
     16      48.4242      0.00000
     17      51.5553      0.00000
     18      52.3970      0.00000
     19      54.6518      0.00000
     20      54.8976      0.00000
     21      56.0570      0.00000
     22      56.4079      0.00000
     23      58.3788      0.00000
     24      58.8438      0.00000
     25      59.4200      0.00000
     26      60.4790      0.00000
     27      63.2425      0.00000
     28      64.0557      0.00000
     29      64.9793      0.00000
     30      65.7790      0.00000
     31      66.1446      0.00000
     32      72.4555      0.00000
     33      72.6715      0.00000
     34      77.3816      0.00000
     35      81.9501      0.00000
     36      84.4457      0.00000
     37      87.9941      0.00000
     38      88.3901      0.00000
     39      91.6361      0.00000
     40      92.0755      0.00000
     41      94.3078      0.00000
     42      95.3179      0.00000
     43      97.0399      0.00000
     44      99.5260      0.00000
     45     100.2572      0.00000
     46     100.9756      0.00000
     47     103.6670      0.00000
     48     104.6773      0.00000

 k-point    47 :      -0.3000    0.5000    0.2000
  band No.  band energies     occupation 
      1       6.3592      1.00000
      2       7.6834      0.97939
      3       8.0200      0.00000
      4       9.6193      0.00000
      5      21.3476      0.00000
      6      22.9331      0.00000
      7      26.2243      0.00000
      8      27.6467      0.00000
      9      34.9726      0.00000
     10      39.7759      0.00000
     11      41.9700      0.00000
     12      42.3393      0.00000
     13      42.8290      0.00000
     14      43.9779      0.00000
     15      44.0219      0.00000
     16      45.1168      0.00000
     17      51.0047      0.00000
     18      53.7097      0.00000
     19      53.8827      0.00000
     20      54.8853      0.00000
     21      56.3220      0.00000
     22      56.5674      0.00000
     23      57.5014      0.00000
     24      57.8609      0.00000
     25      59.7897      0.00000
     26      61.5198      0.00000
     27      62.6374      0.00000
     28      62.7991      0.00000
     29      65.2266      0.00000
     30      65.3545      0.00000
     31      67.5753      0.00000
     32      72.8459      0.00000
     33      75.3168      0.00000
     34      79.2229      0.00000
     35      79.3200      0.00000
     36      81.3578      0.00000
     37      88.2493      0.00000
     38      89.1859      0.00000
     39      91.1651      0.00000
     40      92.7821      0.00000
     41      95.2719      0.00000
     42      96.0359      0.00000
     43      97.0422      0.00000
     44      98.8328      0.00000
     45     101.2815      0.00000
     46     101.7546      0.00000
     47     101.9964      0.00000
     48     102.7012      0.00000


--------------------------------------------------------------------------------------------------------


 soft charge-density along one line, spin component           1
         0         1         2         3         4         5         6         7         8         9
 total charge-density along one line

 soft charge-density along one line, spin component           2
         0         1         2         3         4         5         6         7         8         9
 total charge-density along one line

 pseudopotential strength for first ion, spin component:           1
  8.445  14.393  -0.000   0.000  -0.000  -0.000   0.000  -0.000
 14.393  24.530  -0.000   0.000  -0.000  -0.000  -0.000  -0.000
 -0.000  -0.000   1.987  -0.000  -0.000   5.729  -0.000  -0.000
  0.000   0.000  -0.000   1.987  -0.000  -0.000   5.729  -0.000
 -0.000  -0.000  -0.000  -0.000   1.987  -0.000  -0.000   5.729
 -0.000  -0.000   5.729  -0.000  -0.000  16.433  -0.000  -0.000
  0.000  -0.000  -0.000   5.729  -0.000  -0.000  16.433  -0.000
 -0.000  -0.000  -0.000  -0.000   5.729  -0.000  -0.000  16.433
 pseudopotential strength for first ion, spin component:           2
  8.445  14.393  -0.000   0.000  -0.000  -0.000   0.000  -0.000
 14.393  24.531  -0.000   0.000  -0.000  -0.000  -0.000  -0.000
 -0.000  -0.000   1.987  -0.000  -0.000   5.729  -0.000  -0.000
  0.000   0.000  -0.000   1.987  -0.000  -0.000   5.729  -0.000
 -0.000  -0.000  -0.000  -0.000   1.987  -0.000  -0.000   5.729
 -0.000  -0.000   5.729  -0.000  -0.000  16.433  -0.000  -0.000
  0.000  -0.000  -0.000   5.729  -0.000  -0.000  16.433  -0.000
 -0.000  -0.000  -0.000  -0.000   5.729  -0.000  -0.000  16.433
 total augmentation occupancy for first ion, spin component:           1
  3.354  -0.827   0.000   0.000   0.000   0.000   0.000   0.000
 -0.827   0.267   0.000   0.000   0.000   0.000   0.000   0.000
  0.000   0.000   1.100   0.000   0.000  -0.070   0.000   0.000
  0.000   0.000   0.000   1.100  -0.000   0.000  -0.070   0.000
  0.000   0.000   0.000  -0.000   1.100   0.000   0.000  -0.070
  0.000   0.000  -0.070   0.000   0.000   0.005  -0.000  -0.000
  0.000   0.000   0.000  -0.070   0.000  -0.000   0.005   0.000
  0.000   0.000   0.000   0.000  -0.070  -0.000   0.000   0.005
 total augmentation occupancy for first ion, spin component:           2
  0.017  -0.006   0.000   0.000   0.000   0.000   0.000   0.000
 -0.006   0.002   0.000   0.000   0.000   0.000   0.000   0.000
  0.000   0.000   0.002   0.000   0.000  -0.000   0.000   0.000
  0.000   0.000   0.000   0.002   0.000   0.000  -0.000   0.000
  0.000   0.000   0.000   0.000   0.002   0.000   0.000  -0.000
  0.000   0.000  -0.000   0.000   0.000   0.000   0.000   0.000
  0.000   0.000   0.000  -0.000   0.000   0.000   0.000   0.000
  0.000   0.000   0.000   0.000  -0.000   0.000   0.000   0.000


------------------------ aborting loop because EDIFF is reached ----------------------------------------





 total charge

# of ion       s       p       d       tot
------------------------------------------
    1        0.424   0.339   0.000   0.763



 magnetization (x)

# of ion       s       p       d       tot
------------------------------------------
    1       -0.000  -0.000   0.000  -0.000

    CHARGE:  cpu time    0.0323: real time    0.0323
    FORLOC:  cpu time    0.0001: real time    0.0002
    FORNL :  cpu time    0.0056: real time    0.0057
    STRESS:  cpu time    0.0678: real time    0.0679
    FORCOR:  cpu time    0.0052: real time    0.0052
    FORHAR:  cpu time    0.0008: real time    0.0008
    MIXING:  cpu time    0.0003: real time    0.0003
    OFIELD:  cpu time    0.0000: real time    0.0000

  FORCE on cell =-STRESS in cart. coord.  units (eV):
  Direction    XX          YY          ZZ          XY          YZ          ZX
  --------------------------------------------------------------------------------------
  Alpha Z    -0.20255    -0.20255    -0.20255
  Ewald     -24.46432   -24.46432   -24.46432    -0.00000    -0.00000     0.00000
  Hartree     0.03449     0.03449     0.03449     0.00000     0.00000     0.00000
  E(xc)      -8.54577    -8.54577    -8.54577     0.00000     0.00000     0.00000
  Local       0.35673     0.35673     0.35673    -0.00000    -0.00000    -0.00000
  n-local    18.84772    18.50563    18.88916     0.41911    -0.60684     0.54505
  augment    -1.01812    -1.01812    -1.01812     0.00000     0.00000     0.00000
  Kinetic    12.16073    10.99589    21.77182    -9.37970     8.36304    -6.15809
  Fock        0.00000     0.00000     0.00000     0.00000     0.00000     0.00000
  -------------------------------------------------------------------------------------
  Total      -0.11588    -0.11588    -0.11588     0.00000    -0.00000     0.00000
  in kB     -11.19567   -11.19567   -11.19567     0.00000    -0.00000     0.00000
  external pressure =      -11.20 kB  Pullay stress =        0.00 kB


 VOLUME and BASIS-vectors are now :
 -----------------------------------------------------------------------------
  energy-cutoff  :      520.00
  volume of cell :       16.58
      direct lattice vectors                 reciprocal lattice vectors
     0.000000000  2.024000000  2.024000000    -0.247035573  0.247035573  0.247035573
     2.024000000  0.000000000  2.024000000     0.247035573 -0.247035573  0.247035573
     2.024000000  2.024000000  0.000000000     0.247035573  0.247035573 -0.247035573

  length of vectors
     2.862368250  2.862368250  2.862368250     0.427878164  0.427878164  0.427878164


 FORCES acting on ions
    electron-ion (+dipol)            ewald-force                    non-local-force                 convergence-correction
 -----------------------------------------------------------------------------------------------
   0.583E-16 0.133E-14 0.190E-14   0.817E-16 0.470E-16 -.229E-15   -.129E-25 -.129E-25 0.129E-25   -.131E-17 0.249E-17 0.366E-17
 -----------------------------------------------------------------------------------------------
   0.583E-16 0.133E-14 0.190E-14   0.817E-16 0.470E-16 -.229E-15   -.129E-25 -.129E-25 0.129E-25   -.131E-17 0.249E-17 0.366E-17


 POSITION                                       TOTAL-FORCE (eV/Angst)
 -----------------------------------------------------------------------------------
      0.00000      0.00000      0.00000         0.000000      0.000000      0.000000
 -----------------------------------------------------------------------------------
    total drift:                                0.000000      0.000000      0.000000


--------------------------------------------------------------------------------------------------------



  FREE ENERGIE OF THE ION-ELECTRON SYSTEM (eV)
  ---------------------------------------------------
  free  energy   TOTEN  =        -3.73691414 eV

  energy  without entropy=       -3.73691414  energy(sigma->0) =       -3.73691414



--------------------------------------------------------------------------------------------------------


    POTLOK:  cpu time    0.1681: real time    0.1681


--------------------------------------------------------------------------------------------------------


 stress matrix after NEB project (eV)
     -0.11588      0.00000      0.00000
      0.00000     -0.11588      0.00000
     -0.00000     -0.00000     -0.11588
  FORCES: max atom, RMS     0.000000    0.000000
  FORCE total and by dimension    0.000000    0.000000
  Stress total and by dimension    0.200707    0.115878
     LOOP+:  cpu time   45.7718: real time   45.7787
 -----------------------------------------------------------------------------
|                                                                             |
|           W    W    AA    RRRRR   N    N  II  N    N   GGGG   !!!           |
|           W    W   A  A   R    R  NN   N  II  NN   N  G    G  !!!           |
|           W    W  A    A  R    R  N N  N  II  N N  N  G       !!!           |
|           W WW W  AAAAAA  RRRRR   N  N N  II  N  N N  G  GGG   !            |
|           WW  WW  A    A  R   R   N   NN  II  N   NN  G    G                |
|           W    W  A    A  R    R  N    N  II  N    N   GGGG   !!!           |
|                                                                             |
|     Tetrahedron method does not include variations of the Fermi             |
|     occupations, so forces and stress will be inaccurate. We suggest        |
|     using a different smearing scheme ISMEAR = 1 or 2 for metals in         |
|     relaxations.                                                            |
|                                                                             |
 -----------------------------------------------------------------------------

    4ORBIT:  cpu time    0.0000: real time    0.0000



 total charge

# of ion       s       p       d       tot
------------------------------------------
    1        0.424   0.339   0.000   0.763



 magnetization (x)

# of ion       s       p       d       tot
------------------------------------------
    1       -0.000  -0.000   0.000  -0.000

 BZINTS: Fermi energy:    8.002198;    3.000000 electrons
         Band energy: 0.106173E+02;  BLOECHL correction:   -0.138993

 total amount of memory used by VASP MPI-rank0    33696. kBytes
=======================================================================

   base      :      30000. kBytes
   nonl-proj :       1451. kBytes
   fftplans  :        150. kBytes
   grid      :       1295. kBytes
   one-center:          6. kBytes
   wavefun   :        794. kBytes

  
  
 General timing and accounting informations for this job:
 ========================================================
  
                  Total CPU time used (sec):       48.299
                            User time (sec):       46.531
                          System time (sec):        1.767
                         Elapsed time (sec):       48.352
  
                   Maximum memory used (kb):       50544.
                   Average memory used (kb):          N/A
  
                          Minor page faults:        25272
                          Major page faults:          399
                 Voluntary context switches:         1724
