<?xml version="1.0" encoding="ISO-8859-1"?>
<modeling>
 <generator>
  <i name="program" type="string">vasp </i>
  <i name="version" type="string">6.2.1  </i>
  <i name="subversion" type="string">16May21 (build Aug 15 2022 14:47:30) complex                          parallel </i>
  <i name="platform" type="string">LinuxGNU </i>
  <i name="date" type="string">2025 12 11 </i>
  <i name="time" type="string">13:45:28 </i>
 </generator>
 <incar>
  <i type="string" name="PREC">Accurate</i>
  <i type="string" name="ALGO">Fast</i>
  <i type="int" name="ISPIN">     2</i>
  <i type="int" name="NELM">   100</i>
  <i name="EDIFF">      0.00005000</i>
  <i type="int" name="NSW">     0</i>
  <i name="ENCUT">    520.00000000</i>
  <v name="MAGMOM">      0.60000000</v>
  <i type="logical" name="LREAL"> F  </i>
  <i type="int" name="ISMEAR">    -5</i>
  <i name="SIGMA">      0.05000000</i>
  <i type="logical" name="LWAVE"> F  </i>
  <i type="logical" name="LCHARG"> T  </i>
  <i type="int" name="LORBIT">    11</i>
  <i type="logical" name="LASPH"> T  </i>
 </incar>
 <primitive_cell>
  <structure name="primitive_cell" >
   <crystal>
    <varray name="basis" >
     <v>       0.00000000       2.02400000       2.02400000 </v>
     <v>       2.02400000       0.00000000       2.02400000 </v>
     <v>       2.02400000       2.02400000       0.00000000 </v>
    </varray>
    <i name="volume">     16.58293965 </i>
    <varray name="rec_basis" >
     <v>      -0.24703557       0.24703557       0.24703557 </v>
     <v>       0.24703557      -0.24703557       0.24703557 </v>
     <v>       0.24703557       0.24703557      -0.24703557 </v>
    </varray>
   </crystal>
   <varray name="positions" >
    <v>       0.00000000       0.00000000       0.00000000 </v>
   </varray>
  </structure>
  <varray name="primitive_index" >
   <v type="int" >        1 </v>
  </varray>
 </primitive_cell>
 <kpoints>
  <generation param="Gamma">
   <v type="int" name="divisions">      10       10       10 </v>
   <v name="usershift">      0.00000000       0.00000000       0.00000000 </v>
   <v name="genvec1">      0.10000000       0.00000000       0.00000000 </v>
   <v name="genvec2">      0.00000000       0.10000000       0.00000000 </v>
   <v name="genvec3">      0.00000000       0.00000000       0.10000000 </v>
   <v name="shift">      0.00000000       0.00000000       0.00000000 </v>
  </generation>
  <varray name="kpointlist" >
   <v>       0.00000000       0.00000000       0.00000000 </v>
   <v>       0.10000000       0.00000000       0.00000000 </v>
   <v>       0.20000000       0.00000000       0.00000000 </v>
   <v>       0.30000000       0.00000000       0.00000000 </v>
   <v>       0.40000000       0.00000000       0.00000000 </v>
   <v>       0.50000000       0.00000000       0.00000000 </v>
   <v>       0.10000000       0.10000000       0.00000000 </v>
   <v>       0.20000000       0.10000000       0.00000000 </v>
   <v>       0.30000000       0.10000000       0.00000000 </v>
   <v>       0.40000000       0.10000000       0.00000000 </v>
   <v>       0.50000000       0.10000000       0.00000000 </v>
   <v>      -0.40000000       0.10000000       0.00000000 </v>
   <v>      -0.30000000       0.10000000       0.00000000 </v>
   <v>      -0.20000000       0.10000000       0.00000000 </v>
   <v>      -0.10000000       0.10000000       0.00000000 </v>
   <v>       0.20000000       0.20000000       0.00000000 </v>
   <v>       0.30000000       0.20000000       0.00000000 </v>
   <v>       0.40000000       0.20000000       0.00000000 </v>
   <v>       0.50000000       0.20000000       0.00000000 </v>
   <v>      -0.40000000       0.20000000       0.00000000 </v>
   <v>      -0.30000000       0.20000000       0.00000000 </v>
   <v>      -0.20000000       0.20000000       0.00000000 </v>
   <v>       0.30000000       0.30000000       0.00000000 </v>
   <v>       0.40000000       0.30000000       0.00000000 </v>
   <v>       0.50000000       0.30000000       0.00000000 </v>
   <v>      -0.40000000       0.30000000       0.00000000 </v>
   <v>      -0.30000000       0.30000000       0.00000000 </v>
   <v>       0.40000000       0.40000000       0.00000000 </v>
   <v>       0.50000000       0.40000000       0.00000000 </v>
   <v>      -0.40000000       0.40000000       0.00000000 </v>
   <v>       0.50000000       0.50000000       0.00000000 </v>
   <v>       0.30000000       0.20000000       0.10000000 </v>
   <v>       0.40000000       0.20000000       0.10000000 </v>
   <v>       0.50000000       0.20000000       0.10000000 </v>
   <v>      -0.40000000       0.20000000       0.10000000 </v>
   <v>       0.40000000       0.30000000       0.10000000 </v>
   <v>       0.50000000       0.30000000       0.10000000 </v>
   <v>      -0.40000000       0.30000000       0.10000000 </v>
   <v>      -0.30000000       0.30000000       0.10000000 </v>
   <v>      -0.20000000       0.30000000       0.10000000 </v>
   <v>       0.50000000       0.40000000       0.10000000 </v>
   <v>      -0.40000000       0.40000000       0.10000000 </v>
   <v>      -0.30000000       0.40000000       0.10000000 </v>
   <v>      -0.40000000       0.50000000       0.10000000 </v>
   <v>      -0.40000000       0.40000000       0.20000000 </v>
   <v>      -0.30000000       0.40000000       0.20000000 </v>
   <v>      -0.30000000       0.50000000       0.20000000 </v>
  </varray>
  <varray name="weights" >
   <v>       0.00100000 </v>
   <v>       0.00800000 </v>
   <v>       0.00800000 </v>
   <v>       0.00800000 </v>
   <v>       0.00800000 </v>
   <v>       0.00400000 </v>
   <v>       0.00600000 </v>
   <v>       0.02400000 </v>
   <v>       0.02400000 </v>
   <v>       0.02400000 </v>
   <v>       0.02400000 </v>
   <v>       0.02400000 </v>
   <v>       0.02400000 </v>
   <v>       0.02400000 </v>
   <v>       0.01200000 </v>
   <v>       0.00600000 </v>
   <v>       0.02400000 </v>
   <v>       0.02400000 </v>
   <v>       0.02400000 </v>
   <v>       0.02400000 </v>
   <v>       0.02400000 </v>
   <v>       0.01200000 </v>
   <v>       0.00600000 </v>
   <v>       0.02400000 </v>
   <v>       0.02400000 </v>
   <v>       0.02400000 </v>
   <v>       0.01200000 </v>
   <v>       0.00600000 </v>
   <v>       0.02400000 </v>
   <v>       0.01200000 </v>
   <v>       0.00300000 </v>
   <v>       0.02400000 </v>
   <v>       0.04800000 </v>
   <v>       0.04800000 </v>
   <v>       0.02400000 </v>
   <v>       0.02400000 </v>
   <v>       0.04800000 </v>
   <v>       0.04800000 </v>
   <v>       0.04800000 </v>
   <v>       0.02400000 </v>
   <v>       0.02400000 </v>
   <v>       0.04800000 </v>
   <v>       0.02400000 </v>
   <v>       0.01200000 </v>
   <v>       0.02400000 </v>
   <v>       0.02400000 </v>
   <v>       0.01200000 </v>
  </varray>
  <varray name="tetrahedronlist"  type="int" >
   <v type="int" >       24        1        2        2        7 </v>
   <v type="int" >       48        2        7        8       15 </v>
   <v type="int" >       48        2        3        8       15 </v>
   <v type="int" >       24        2        2        7       15 </v>
   <v type="int" >       48        3        8        9       14 </v>
   <v type="int" >       48        3        4        9       14 </v>
   <v type="int" >       48        3        8       14       15 </v>
   <v type="int" >       48        4        9       10       13 </v>
   <v type="int" >       48        4        5       10       13 </v>
   <v type="int" >       48        4        9       13       14 </v>
   <v type="int" >       48        5       10       11       12 </v>
   <v type="int" >       48        5        6       11       12 </v>
   <v type="int" >       48        5       10       12       13 </v>
   <v type="int" >       48        6       11       11       12 </v>
   <v type="int" >       24        7        8        8       16 </v>
   <v type="int" >       24        7        8        8       15 </v>
   <v type="int" >       48        8       16       17       32 </v>
   <v type="int" >       48        8        9       17       32 </v>
   <v type="int" >       48        8        9       14       32 </v>
   <v type="int" >       24        8        8       16       32 </v>
   <v type="int" >       24        8        8       15       32 </v>
   <v type="int" >       48        8       14       15       32 </v>
   <v type="int" >       48        9       17       18       33 </v>
   <v type="int" >       48        9       10       18       33 </v>
   <v type="int" >       48        9       10       13       33 </v>
   <v type="int" >       48        9       17       32       33 </v>
   <v type="int" >       48        9       14       32       33 </v>
   <v type="int" >       48        9       13       14       33 </v>
   <v type="int" >       48       10       18       19       34 </v>
   <v type="int" >       48       10       11       19       34 </v>
   <v type="int" >       48       10       11       12       34 </v>
   <v type="int" >       48       10       18       33       34 </v>
   <v type="int" >       48       10       13       33       34 </v>
   <v type="int" >       48       10       12       13       34 </v>
   <v type="int" >       48       11       19       20       35 </v>
   <v type="int" >       48       11       12       20       35 </v>
   <v type="int" >       48       11       11       12       35 </v>
   <v type="int" >       48       11       19       34       35 </v>
   <v type="int" >       48       11       12       34       35 </v>
   <v type="int" >       48       12       20       21       34 </v>
   <v type="int" >       48       12       13       21       34 </v>
   <v type="int" >       48       12       20       34       35 </v>
   <v type="int" >       48       13       21       22       33 </v>
   <v type="int" >       48       13       14       22       33 </v>
   <v type="int" >       48       13       21       33       34 </v>
   <v type="int" >       24       14       14       22       32 </v>
   <v type="int" >       24       14       14       15       32 </v>
   <v type="int" >       48       14       22       32       33 </v>
   <v type="int" >       24       16       17       17       23 </v>
   <v type="int" >       24       16       17       17       32 </v>
   <v type="int" >       48       17       23       24       36 </v>
   <v type="int" >       48       17       18       24       36 </v>
   <v type="int" >       48       17       18       33       36 </v>
   <v type="int" >       24       17       17       23       36 </v>
   <v type="int" >       24       17       17       32       36 </v>
   <v type="int" >       48       17       32       33       36 </v>
   <v type="int" >       48       18       24       25       37 </v>
   <v type="int" >       48       18       19       25       37 </v>
   <v type="int" >       48       18       19       34       37 </v>
   <v type="int" >       48       18       24       36       37 </v>
   <v type="int" >       48       18       33       36       37 </v>
   <v type="int" >       48       18       33       34       37 </v>
   <v type="int" >       48       19       25       26       38 </v>
   <v type="int" >       48       19       20       26       38 </v>
   <v type="int" >       48       19       20       35       38 </v>
   <v type="int" >       48       19       25       37       38 </v>
   <v type="int" >       48       19       34       37       38 </v>
   <v type="int" >       48       19       34       35       38 </v>
   <v type="int" >       48       20       26       27       39 </v>
   <v type="int" >       48       20       21       27       39 </v>
   <v type="int" >       48       20       21       34       39 </v>
   <v type="int" >       48       20       26       38       39 </v>
   <v type="int" >       48       20       35       38       39 </v>
   <v type="int" >       48       20       34       35       39 </v>
   <v type="int" >       24       21       21       27       40 </v>
   <v type="int" >       24       21       21       22       40 </v>
   <v type="int" >       48       21       22       33       40 </v>
   <v type="int" >       48       21       27       39       40 </v>
   <v type="int" >       48       21       34       39       40 </v>
   <v type="int" >       48       21       33       34       40 </v>
   <v type="int" >       24       22       33       33       40 </v>
   <v type="int" >       24       22       32       33       33 </v>
   <v type="int" >       24       23       24       24       28 </v>
   <v type="int" >       24       23       24       24       36 </v>
   <v type="int" >       48       24       28       29       41 </v>
   <v type="int" >       48       24       25       29       41 </v>
   <v type="int" >       48       24       25       37       41 </v>
   <v type="int" >       24       24       24       28       41 </v>
   <v type="int" >       24       24       24       36       41 </v>
   <v type="int" >       48       24       36       37       41 </v>
   <v type="int" >       48       25       29       30       42 </v>
   <v type="int" >       48       25       26       30       42 </v>
   <v type="int" >       48       25       26       38       42 </v>
   <v type="int" >       48       25       29       41       42 </v>
   <v type="int" >       48       25       37       41       42 </v>
   <v type="int" >       48       25       37       38       42 </v>
   <v type="int" >       24       26       26       30       43 </v>
   <v type="int" >       24       26       26       27       43 </v>
   <v type="int" >       48       26       27       39       43 </v>
   <v type="int" >       48       26       30       42       43 </v>
   <v type="int" >       48       26       38       42       43 </v>
   <v type="int" >       48       26       38       39       43 </v>
   <v type="int" >       24       27       39       39       43 </v>
   <v type="int" >       24       27       39       39       40 </v>
   <v type="int" >       24       28       29       29       31 </v>
   <v type="int" >       24       28       29       29       41 </v>
   <v type="int" >       48       29       29       31       44 </v>
   <v type="int" >       24       29       29       30       44 </v>
   <v type="int" >       48       29       30       42       44 </v>
   <v type="int" >       24       29       29       41       44 </v>
   <v type="int" >       48       29       41       42       44 </v>
   <v type="int" >       24       30       42       42       44 </v>
   <v type="int" >       24       30       42       42       43 </v>
   <v type="int" >       24       32       33       33       36 </v>
   <v type="int" >       48       33       36       37       40 </v>
   <v type="int" >       48       33       34       37       40 </v>
   <v type="int" >       24       33       33       36       40 </v>
   <v type="int" >       48       34       37       38       39 </v>
   <v type="int" >       48       34       35       38       39 </v>
   <v type="int" >       48       34       37       39       40 </v>
   <v type="int" >       48       35       38       38       39 </v>
   <v type="int" >       24       36       37       37       41 </v>
   <v type="int" >       24       36       37       37       40 </v>
   <v type="int" >       48       37       41       42       45 </v>
   <v type="int" >       48       37       38       42       45 </v>
   <v type="int" >       48       37       38       39       45 </v>
   <v type="int" >       24       37       37       41       45 </v>
   <v type="int" >       24       37       37       40       45 </v>
   <v type="int" >       48       37       39       40       45 </v>
   <v type="int" >       48       38       42       43       46 </v>
   <v type="int" >       48       38       39       43       46 </v>
   <v type="int" >       48       38       38       39       46 </v>
   <v type="int" >       48       38       42       45       46 </v>
   <v type="int" >       48       38       39       45       46 </v>
   <v type="int" >       24       39       39       43       45 </v>
   <v type="int" >       24       39       39       40       45 </v>
   <v type="int" >       48       39       43       45       46 </v>
   <v type="int" >       24       41       42       42       44 </v>
   <v type="int" >       24       41       42       42       45 </v>
   <v type="int" >       48       42       42       44       47 </v>
   <v type="int" >       24       42       42       43       47 </v>
   <v type="int" >       48       42       43       46       47 </v>
   <v type="int" >       24       42       42       45       47 </v>
   <v type="int" >       48       42       45       46       47 </v>
   <v type="int" >       24       43       46       46       47 </v>
   <v type="int" >       24       43       45       46       46 </v>
   <v type="int" >       24       45       46       46       47 </v>
   <v type="int" >       24       46       46       47       47 </v>
  </varray>
  <i name="volumeweight">      0.00016667 </i>
 </kpoints>
 <parameters>
  <separator name="general" >
   <i type="string" name="SYSTEM">unknown system</i>
   <i type="logical" name="LCOMPAT"> F  </i>
  </separator>
  <separator name="electronic" >
   <i type="string" name="PREC">accura</i>
   <i name="ENMAX">    520.00000000</i>
   <i name="ENAUG">    291.05200000</i>
   <i name="EDIFF">      0.00005000</i>
   <i type="int" name="IALGO">    68</i>
   <i type="int" name="IWAVPR">    10</i>
   <i type="int" name="NBANDS">    48</i>
   <i type="int" name="NBANDSLOW">    -1</i>
   <i type="int" name="NBANDSHIGH">    -1</i>
   <i name="NELECT">      3.00000000</i>
   <i type="int" name="TURBO">     0</i>
   <i type="int" name="IRESTART">     0</i>
   <i type="int" name="NREBOOT">     0</i>
   <i type="int" name="NMIN">     0</i>
   <i name="EREF">      0.00000000</i>
   <separator name="electronic smearing" >
    <i type="int" name="ISMEAR">    -5</i>
    <i name="SIGMA">      0.05000000</i>
    <i name="KSPACING">      0.50000000</i>
    <i type="logical" name="KGAMMA"> T  </i>
    <i type="logical" name="KBLOWUP"> T  </i>
   </separator>
   <separator name="electronic projectors" >
    <i type="logical" name="LREAL"> F  </i>
    <v name="ROPT">      0.00000000</v>
    <i type="int" name="LMAXPAW">  -100</i>
    <i type="int" name="LMAXMIX">     2</i>
    <i type="logical" name="NLSPLINE"> F  </i>
   </separator>
   <separator name="electronic startup" >
    <i type="int" name="ISTART">     0</i>
    <i type="int" name="ICHARG">     2</i>
    <i type="int" name="INIWAV">     1</i>
   </separator>
   <separator name="electronic spin" >
    <i type="int" name="ISPIN">     2</i>
    <i type="logical" name="LNONCOLLINEAR"> F  </i>
    <v name="MAGMOM">      0.60000000</v>
    <i name="NUPDOWN">     -1.00000000</i>
    <i type="logical" name="LSORBIT"> F  </i>
    <v name="SAXIS">      0.00000000      0.00000000      1.00000000</v>
    <i type="logical" name="LSPIRAL"> F  </i>
    <v name="QSPIRAL">      0.00000000      0.00000000      0.00000000</v>
    <i type="logical" name="LZEROZ"> F  </i>
   </separator>
   <separator name="electronic exchange-correlation" >
    <i type="logical" name="LASPH"> T  </i>
    <i type="logical" name="LMETAGGA"> F  </i>
   </separator>
   <separator name="electronic convergence" >
    <i type="int" name="NELM">   100</i>
    <i type="int" name="NELMDL">    -5</i>
    <i type="int" name="NELMIN">     2</i>
    <i name="ENINI">    520.00000000</i>
    <separator name="electronic convergence detail" >
     <i type="logical" name="LDIAG"> T  </i>
     <i type="logical" name="LSUBROT"> F  </i>
     <i name="WEIMIN">      0.00000000</i>
     <i name="EBREAK">      0.00000026</i>
     <i name="DEPER">      0.30000000</i>
     <i type="int" name="NRMM">     4</i>
     <i name="TIME">      0.40000000</i>
    </separator>
   </separator>
   <separator name="electronic mixer" >
    <i name="AMIX">      0.40000000</i>
    <i name="BMIX">      1.00000000</i>
    <i name="AMIN">      0.10000000</i>
    <i name="AMIX_MAG">      1.60000000</i>
    <i name="BMIX_MAG">      1.00000000</i>
    <separator name="electronic mixer details" >
     <i type="int" name="IMIX">     4</i>
     <i type="logical" name="MIXFIRST"> F  </i>
     <i type="int" name="MAXMIX">   -45</i>
     <i name="WC">    100.00000000</i>
     <i type="int" name="INIMIX">     1</i>
     <i type="int" name="MIXPRE">     1</i>
     <i type="int" name="MREMOVE">     5</i>
    </separator>
   </separator>
   <separator name="electronic dipolcorrection" >
    <i type="logical" name="LDIPOL"> F  </i>
    <i type="logical" name="LMONO"> F  </i>
    <i type="int" name="IDIPOL">     0</i>
    <i name="EPSILON">      1.00000000</i>
    <v name="DIPOL">   -100.00000000   -100.00000000   -100.00000000</v>
    <i name="EFIELD">      0.00000000</i>
   </separator>
  </separator>
  <separator name="grids" >
   <i type="int" name="NGX">    24</i>
   <i type="int" name="NGY">    24</i>
   <i type="int" name="NGZ">    24</i>
   <i type="int" name="NGXF">    48</i>
   <i type="int" name="NGYF">    48</i>
   <i type="int" name="NGZF">    48</i>
   <i type="logical" name="ADDGRID"> F  </i>
  </separator>
  <separator name="ionic" >
   <i type="int" name="NSW">     0</i>
   <i type="int" name="IBRION">    -1</i>
   <i type="int" name="MDALGO">     0</i>
   <i type="int" name="ISIF">     2</i>
   <i name="PSTRESS">      0.00000000</i>
   <i name="EDIFFG">      0.00050000</i>
   <i type="int" name="NFREE">     0</i>
   <i name="POTIM">      0.50000000</i>
   <i name="SMASS">     -3.00000000</i>
   <i name="SCALEE">      1.00000000</i>
  </separator>
  <separator name="ionic md" >
   <i name="TEBEG">      0.00010000</i>
   <i name="TEEND">      0.00010000</i>
   <i type="int" name="NBLOCK">     1</i>
   <i type="int" name="KBLOCK">     1</i>
   <i type="int" name="NPACO">   256</i>
   <i name="APACO">     16.00000000</i>
  </separator>
  <separator name="symmetry" >
   <i type="int" name="ISYM">     2</i>
   <i name="SYMPREC">      0.00001000</i>
  </separator>
  <separator name="dos" >
   <i type="int" name="LORBIT">    11</i>
   <v name="RWIGS">     -1.00000000</v>
   <i type="int" name="NEDOS">   301</i>
   <i name="EMIN">     10.00000000</i>
   <i name="EMAX">    -10.00000000</i>
   <i name="EFERMI">      0.00000000</i>
  </separator>
  <separator name="writing" >
   <i type="int" name="NWRITE">     2</i>
   <i type="logical" name="LWAVE"> F  </i>
   <i type="logical" name="LDOWNSAMPLE"> F  </i>
   <i type="logical" name="LCHARG"> T  </i>
   <i type="logical" name="LPARD"> F  </i>
   <i type="logical" name="LVTOT"> F  </i>
   <i type="logical" name="LVHAR"> F  </i>
   <i type="logical" name="LELF"> F  </i>
   <i type="logical" name="LOPTICS"> F  </i>
   <v name="STM">      0.00000000      0.00000000      0.00000000      0.00000000      0.00000000      0.00000000      0.00000000</v>
  </separator>
  <separator name="performance" >
   <i type="int" name="NPAR">    48</i>
   <i type="int" name="NSIM">     4</i>
   <i type="int" name="NBLK">    -1</i>
   <i type="logical" name="LPLANE"> T  </i>
   <i type="logical" name="LSCALAPACK"> T  </i>
   <i type="logical" name="LSCAAWARE"> T  </i>
   <i type="logical" name="LSCALU"> F  </i>
   <i type="logical" name="LASYNC"> F  </i>
   <i type="logical" name="LORBITALREAL"> F  </i>
  </separator>
  <separator name="miscellaneous" >
   <i type="int" name="IDIOT">     3</i>
   <i type="int" name="PHON_NSTRUCT">    -1</i>
   <i type="logical" name="LMUSIC"> F  </i>
   <v name="POMASS">     26.98100000</v>
   <v name="DARWINR">      0.00000000</v>
   <v name="DARWINV">      1.00000000</v>
   <i type="logical" name="LCORR"> T  </i>
  </separator>
  <i type="logical" name="GGA_COMPAT"> T  </i>
  <i type="logical" name="LBERRY"> F  </i>
  <i type="int" name="ICORELEVEL">     0</i>
  <i type="logical" name="LDAU"> F  </i>
  <i type="int" name="I_CONSTRAINED_M">     0</i>
  <separator name="electronic exchange-correlation" >
   <i type="string" name="GGA">--</i>
   <i type="int" name="VOSKOWN">     0</i>
   <i type="logical" name="LHFCALC"> F  </i>
   <i type="string" name="PRECFOCK"></i>
   <i type="logical" name="LSYMGRAD"> F  </i>
   <i type="logical" name="LHFONE"> F  </i>
   <i type="logical" name="LRHFCALC"> F  </i>
   <i type="logical" name="LTHOMAS"> F  </i>
   <i type="logical" name="LMODELHF"> F  </i>
   <i type="logical" name="LFOCKACE"> F  </i>
   <i name="ENCUT4O">     -1.00000000</i>
   <i type="int" name="EXXOEP">     0</i>
   <i type="int" name="FOURORBIT">     0</i>
   <i name="AEXX">      0.00000000</i>
   <i name="HFALPHA">      0.00000000</i>
   <i name="MCALPHA">      0.00000000</i>
   <i name="ALDAX">      1.00000000</i>
   <i name="AGGAX">      1.00000000</i>
   <i name="ALDAC">      1.00000000</i>
   <i name="AGGAC">      1.00000000</i>
   <i type="int" name="NKREDX">     1</i>
   <i type="int" name="NKREDY">     1</i>
   <i type="int" name="NKREDZ">     1</i>
   <i type="logical" name="SHIFTRED"> F  </i>
   <i type="logical" name="ODDONLY"> F  </i>
   <i type="logical" name="EVENONLY"> F  </i>
   <i type="int" name="LMAXFOCK">     0</i>
   <i type="int" name="NMAXFOCKAE">     0</i>
   <i type="logical" name="LFOCKAEDFT"> F  </i>
   <i name="HFSCREEN">      0.00000000</i>
   <i name="HFSCREENC">      0.00000000</i>
   <i type="int" name="NBANDSGWLOW">     0</i>
  </separator>
  <separator name="vdW DFT" >
   <i type="logical" name="LUSE_VDW"> F  </i>
   <i name="Zab_VDW">     -0.84910000</i>
   <i name="PARAM1">      0.12340000</i>
   <i name="PARAM2">      1.00000000</i>
   <i name="PARAM3">      0.00000000</i>
  </separator>
  <separator name="model GW" >
   <i type="int" name="MODEL_GW">     0</i>
   <i name="MODEL_EPS0">      9.94976379</i>
   <i name="MODEL_ALPHA">      1.00000000</i>
  </separator>
  <separator name="linear response parameters" >
   <i type="logical" name="LEPSILON"> F  </i>
   <i type="logical" name="LRPA"> F  </i>
   <i type="logical" name="LNABLA"> F  </i>
   <i type="logical" name="LVEL"> F  </i>
   <i type="int" name="KINTER">     0</i>
   <i name="CSHIFT">      0.10000000</i>
   <i name="OMEGAMAX">     -1.00000000</i>
   <i name="DEG_THRESHOLD">      0.00200000</i>
   <i name="RTIME">     -0.10000000</i>
   <i name="WPLASMAI">      0.00000000</i>
   <v name="DFIELD">      0.00000000      0.00000000      0.00000000</v>
   <v name="WPLASMA">      0.00000000      0.00000000      0.00000000      0.00000000      0.00000000      0.00000000      0.00000000      0.00000000      0.00000000</v>
  </separator>
  <separator name="orbital magnetization" >
   <i type="logical" name="NUCIND"> F  </i>
   <v name="MAGPOS">      0.00000000      0.00000000      0.00000000</v>
   <i type="logical" name="LNICSALL"> T  </i>
   <i type="logical" name="ORBITALMAG"> F  </i>
   <i type="logical" name="LMAGBLOCH"> F  </i>
   <i type="logical" name="LCHIMAG"> F  </i>
   <i type="logical" name="LGAUGE"> T  </i>
   <i type="int" name="MAGATOM">     0</i>
   <v name="MAGDIPOL">      0.00000000      0.00000000      0.00000000</v>
   <v name="AVECCONST">      0.00000000      0.00000000      0.00000000</v>
  </separator>
  <separator name="response functions" >
   <i type="logical" name="LFINITE_TEMPERATURE"> F  </i>
   <i type="logical" name="LADDER"> F  </i>
   <i type="logical" name="LRPAFORCE"> F  </i>
   <i type="logical" name="LFXC"> F  </i>
   <i type="logical" name="LHARTREE"> T  </i>
   <i type="int" name="IBSE">     0</i>
   <v type="int" name="KPOINT">    -1     0     0     0</v>
   <i type="logical" name="LTCTC"> F  </i>
   <i type="logical" name="LTCTE"> F  </i>
   <i type="logical" name="LTETE"> F  </i>
   <i type="logical" name="LTRIPLET"> F  </i>
   <i type="logical" name="LFXCEPS"> F  </i>
   <i type="logical" name="LFXHEG"> F  </i>
   <i type="int" name="NATURALO">     2</i>
   <i type="logical" name="LHOLEGF"> F  </i>
   <i type="logical" name="L2ORDER"> F  </i>
   <i type="logical" name="LDMP1"> F  </i>
   <i type="logical" name="LMP2LT"> F  </i>
   <i type="logical" name="LSMP2LT"> F  </i>
   <i type="logical" name="LGWLF"> F  </i>
   <i name="ENCUTGW">     -2.00000000</i>
   <i name="ENCUTGWSOFT">     -2.00000000</i>
   <i name="ENCUTLF">     -1.00000000</i>
   <i type="logical" name="LESF_SPLINES"> F  </i>
   <i type="int" name="LMAXMP2">    -1</i>
   <i name="SCISSOR">      0.00000000</i>
   <i type="int" name="NOMEGA">     0</i>
   <i type="int" name="NOMEGAR">     0</i>
   <i type="int" name="NBANDSGW">    -1</i>
   <i type="int" name="NBANDSO">    -1</i>
   <i type="int" name="NBANDSV">    -1</i>
   <i type="int" name="NELM">   100</i>
   <i type="int" name="NELMHF">     1</i>
   <i type="int" name="DIM">     3</i>
   <i type="int" name="IESPILON">     4</i>
   <i type="int" name="ANTIRES">     0</i>
   <i name="OMEGAMAX">    -30.00000000</i>
   <i name="OMEGAMIN">    -30.00000000</i>
   <i name="OMEGATL">   -200.00000000</i>
   <i type="int" name="OMEGAGRID">     0</i>
   <i name="CSHIFT">     -0.10000000</i>
   <i type="logical" name="LSELFENERGY"> F  </i>
   <i type="logical" name="LSPECTRAL"> F  </i>
   <i type="logical" name="LSPECTRALGW"> F  </i>
   <i type="logical" name="LSINGLES"> F  </i>
   <i type="logical" name="LFERMIGW"> F  </i>
   <i type="logical" name="ODDONLYGW"> F  </i>
   <i type="logical" name="EVENONLYGW"> F  </i>
   <i type="int" name="NKREDLFX">     1</i>
   <i type="int" name="NKREDLFY">     1</i>
   <i type="int" name="NKREDLFZ">     1</i>
   <i type="int" name="MAXMEM">  2800</i>
   <i type="int" name="TELESCOPE">     0</i>
   <i type="int" name="NTAUPAR">    -1</i>
   <i type="int" name="NOMEGAPAR">    -1</i>
   <i name="DAMP_NEWTON">      0.80000001</i>
   <i name="LAMBDA">      1.00000000</i>
  </separator>
  <separator name="External order field" >
   <i name="OFIELD_KAPPA">      0.00000000</i>
   <v name="OFIELD_K">      0.00000000      0.00000000      0.00000000</v>
   <i name="OFIELD_Q6_NEAR">      0.00000000</i>
   <i name="OFIELD_Q6_FAR">      0.00000000</i>
   <i name="OFIELD_A">      0.00000000</i>
  </separator>
 </parameters>
 <atominfo>
  <atoms>       1 </atoms>
  <types>       1 </types>
  <array name="atoms" >
   <dimension dim="1">ion</dimension>
   <field type="string">element</field>
   <field type="int">atomtype</field>
   <set>
    <rc><c>Al</c><c>   1</c></rc>
   </set>
  </array>
  <array name="atomtypes" >
   <dimension dim="1">type</dimension>
   <field type="int">atomspertype</field>
   <field type="string">element</field>
   <field>mass</field>
   <field>valence</field>
   <field type="string">pseudopotential</field>
   <set>
    <rc><c>   1</c><c>Al</c><c>     26.98100000</c><c>      3.00000000</c><c>  PAW_PBE Al 04Jan2001                  </c></rc>
   </set>
  </array>
 </atominfo>
 <structure name="initialpos" >
  <crystal>
   <varray name="basis" >
    <v>       0.00000000       2.02400000       2.02400000 </v>
    <v>       2.02400000       0.00000000       2.02400000 </v>
    <v>       2.02400000       2.02400000       0.00000000 </v>
   </varray>
   <i name="volume">     16.58293965 </i>
   <varray name="rec_basis" >
    <v>      -0.24703557       0.24703557       0.24703557 </v>
    <v>       0.24703557      -0.24703557       0.24703557 </v>
    <v>       0.24703557       0.24703557      -0.24703557 </v>
   </varray>
  </crystal>
  <varray name="positions" >
   <v>       0.00000000       0.00000000       0.00000000 </v>
  </varray>
 </structure>
 <calculation>
  <scstep>
   <time name="dav">    6.92    6.92</time>
   <time name="total">    7.32    7.32</time>
   <energy>
    <i name="alphaZ">     -0.20254611 </i>
    <i name="ewald">    -73.39295237 </i>
    <i name="hartreedc">     -0.10329695 </i>
    <i name="XCdc">    -26.19545267 </i>
    <i name="pawpsdc">     66.16230985 </i>
    <i name="pawaedc">    -34.20858819 </i>
    <i name="eentropy">      0.00000000 </i>
    <i name="bandstr">     10.77585050 </i>
    <i name="atom">     53.53845706 </i>
    <i name="e_fr_energy">     -3.62621888 </i>
    <i name="e_wo_entrp">     -3.62621888 </i>
    <i name="e_0_energy">     -3.62621888 </i>
   </energy>
  </scstep>
  <scstep>
   <time name="dav">    6.42    6.42</time>
   <time name="total">    6.46    6.46</time>
   <energy>
    <i name="e_fr_energy">     -3.68007731 </i>
    <i name="e_wo_entrp">     -3.68007731 </i>
    <i name="e_0_energy">     -3.68007731 </i>
   </energy>
  </scstep>
  <scstep>
   <time name="dav">    9.50    9.50</time>
   <time name="total">    9.53    9.53</time>
   <energy>
    <i name="e_fr_energy">     -3.68008006 </i>
    <i name="e_wo_entrp">     -3.68008006 </i>
    <i name="e_0_energy">     -3.68008006 </i>
   </energy>
  </scstep>
  <scstep>
   <time name="dav">    9.31    9.31</time>
   <time name="total">    9.35    9.35</time>
   <energy>
    <i name="e_fr_energy">     -3.68008006 </i>
    <i name="e_wo_entrp">     -3.68008006 </i>
    <i name="e_0_energy">     -3.68008006 </i>
   </energy>
  </scstep>
  <scstep>
   <time name="dav">    9.40    9.40</time>
   <time name="total">    9.47    9.47</time>
   <energy>
    <i name="e_fr_energy">     -3.68008006 </i>
    <i name="e_wo_entrp">     -3.68008006 </i>
    <i name="e_0_energy">     -3.68008006 </i>
   </energy>
  </scstep>
  <scstep>
   <time name="diag">    0.30    0.30</time>
   <time name="diis">    0.18    0.18</time>
   <time name="orth">    0.04    0.04</time>
   <time name="total">    0.75    0.75</time>
   <energy>
    <i name="e_fr_energy">     -3.74555552 </i>
    <i name="e_wo_entrp">     -3.74555552 </i>
    <i name="e_0_energy">     -3.74555552 </i>
   </energy>
  </scstep>
  <scstep>
   <time name="diag">    0.29    0.29</time>
   <time name="diis">    0.20    0.20</time>
   <time name="orth">    0.04    0.04</time>
   <time name="total">    0.77    0.77</time>
   <energy>
    <i name="e_fr_energy">     -3.73679954 </i>
    <i name="e_wo_entrp">     -3.73679954 </i>
    <i name="e_0_energy">     -3.73679954 </i>
   </energy>
  </scstep>
  <scstep>
   <time name="diag">    0.29    0.29</time>
   <time name="diis">    0.20    0.20</time>
   <time name="orth">    0.04    0.04</time>
   <time name="total">    0.76    0.76</time>
   <energy>
    <i name="e_fr_energy">     -3.73690991 </i>
    <i name="e_wo_entrp">     -3.73690991 </i>
    <i name="e_0_energy">     -3.73690991 </i>
   </energy>
  </scstep>
  <scstep>
   <time name="diag">    0.29    0.29</time>
   <time name="diis">    0.24    0.24</time>
   <time name="orth">    0.04    0.04</time>
   <time name="total">    0.77    0.77</time>
   <energy>
    <i name="alphaZ">     -0.20254611 </i>
    <i name="ewald">    -73.39295237 </i>
    <i name="hartreedc">     -0.10184710 </i>
    <i name="XCdc">    -26.14093240 </i>
    <i name="pawpsdc">    145.02058248 </i>
    <i name="pawaedc">   -113.07493846 </i>
    <i name="eentropy">      0.00000000 </i>
    <i name="bandstr">     10.61726276 </i>
    <i name="atom">     53.53845706 </i>
    <i name="e_fr_energy">     -3.73691414 </i>
    <i name="e_wo_entrp">     -3.73691414 </i>
    <i name="e_0_energy">     -3.73691414 </i>
   </energy>
  </scstep>
  <structure>
   <crystal>
    <varray name="basis" >
     <v>       0.00000000       2.02400000       2.02400000 </v>
     <v>       2.02400000       0.00000000       2.02400000 </v>
     <v>       2.02400000       2.02400000       0.00000000 </v>
    </varray>
    <i name="volume">     16.58293965 </i>
    <varray name="rec_basis" >
     <v>      -0.24703557       0.24703557       0.24703557 </v>
     <v>       0.24703557      -0.24703557       0.24703557 </v>
     <v>       0.24703557       0.24703557      -0.24703557 </v>
    </varray>
   </crystal>
   <varray name="positions" >
    <v>       0.00000000       0.00000000       0.00000000 </v>
   </varray>
  </structure>
  <varray name="forces" >
   <v>       0.00000000       0.00000000       0.00000000 </v>
  </varray>
  <varray name="stress" >
   <v>     -11.19567137       0.00000000       0.00000000 </v>
   <v>       0.00000000     -11.19567137       0.00000000 </v>
   <v>      -0.00000000      -0.00000000     -11.19567137 </v>
  </varray>
  <energy>
   <i name="e_fr_energy">     -3.73691414 </i>
   <i name="e_wo_entrp">     -3.73691414 </i>
   <i name="e_0_energy">     -3.73691414 </i>
  </energy>
  <time name="totalsc">   45.77   45.78</time>
  <eigenvalues>
   <array>
    <dimension dim="1">band</dimension>
    <dimension dim="2">kpoint</dimension>
    <dimension dim="3">spin</dimension>
    <field>eigene</field>
    <field>occ</field>
    <set>
     <set comment="spin 1">
      <set comment="kpoint 1">
       <r>   -3.1523    1.0000 </r>
       <r>   20.5391    0.0000 </r>
       <r>   20.5391    0.0000 </r>
       <r>   20.5391    0.0000 </r>
       <r>   21.9932    0.0000 </r>
       <r>   21.9932    0.0000 </r>
       <r>   21.9932    0.0000 </r>
       <r>   24.3755    0.0000 </r>
       <r>   27.3138    0.0000 </r>
       <r>   27.3138    0.0000 </r>
       <r>   30.1613    0.0000 </r>
       <r>   32.5106    0.0000 </r>
       <r>   32.5106    0.0000 </r>
       <r>   32.5106    0.0000 </r>
       <r>   41.0586    0.0000 </r>
       <r>   56.0097    0.0000 </r>
       <r>   56.0097    0.0000 </r>
       <r>   56.0097    0.0000 </r>
       <r>   56.0458    0.0000 </r>
       <r>   59.2117    0.0000 </r>
       <r>   59.2117    0.0000 </r>
       <r>   59.2117    0.0000 </r>
       <r>   62.8320    0.0000 </r>
       <r>   62.8320    0.0000 </r>
       <r>   65.0767    0.0000 </r>
       <r>   65.0767    0.0000 </r>
       <r>   65.0767    0.0000 </r>
       <r>   73.1763    0.0000 </r>
       <r>   73.1763    0.0000 </r>
       <r>   73.1763    0.0000 </r>
       <r>   80.8181    0.0000 </r>
       <r>   83.0771    0.0000 </r>
       <r>   83.0771    0.0000 </r>
       <r>   87.2044    0.0000 </r>
       <r>   87.2044    0.0000 </r>
       <r>   87.2044    0.0000 </r>
       <r>   90.0878    0.0000 </r>
       <r>   90.0878    0.0000 </r>
       <r>   90.0878    0.0000 </r>
       <r>   90.8949    0.0000 </r>
       <r>   93.4602    0.0000 </r>
       <r>   93.4602    0.0000 </r>
       <r>   93.4602    0.0000 </r>
       <r>   93.9351    0.0000 </r>
       <r>   93.9351    0.0000 </r>
       <r>   93.9351    0.0000 </r>
       <r>   96.3733    0.0000 </r>
       <r>   96.3733    0.0000 </r>
      </set>
      <set comment="kpoint 2">
       <r>   -2.8815    1.0000 </r>
       <r>   17.2505    0.0000 </r>
       <r>   19.8082    0.0000 </r>
       <r>   19.8082    0.0000 </r>
       <r>   22.6616    0.0000 </r>
       <r>   23.1286    0.0000 </r>
       <r>   23.1286    0.0000 </r>
       <r>   26.0287    0.0000 </r>
       <r>   26.0287    0.0000 </r>
       <r>   26.8121    0.0000 </r>
       <r>   29.2764    0.0000 </r>
       <r>   33.8160    0.0000 </r>
       <r>   34.3540    0.0000 </r>
       <r>   34.3540    0.0000 </r>
       <r>   42.1064    0.0000 </r>
       <r>   55.1715    0.0000 </r>
       <r>   55.3652    0.0000 </r>
       <r>   55.3652    0.0000 </r>
       <r>   56.3732    0.0000 </r>
       <r>   56.9486    0.0000 </r>
       <r>   56.9486    0.0000 </r>
       <r>   59.1926    0.0000 </r>
       <r>   61.5530    0.0000 </r>
       <r>   61.5530    0.0000 </r>
       <r>   65.3195    0.0000 </r>
       <r>   69.3985    0.0000 </r>
       <r>   69.3985    0.0000 </r>
       <r>   71.2690    0.0000 </r>
       <r>   72.9445    0.0000 </r>
       <r>   72.9445    0.0000 </r>
       <r>   81.5583    0.0000 </r>
       <r>   81.5583    0.0000 </r>
       <r>   82.1739    0.0000 </r>
       <r>   84.1129    0.0000 </r>
       <r>   85.5688    0.0000 </r>
       <r>   85.5688    0.0000 </r>
       <r>   87.6896    0.0000 </r>
       <r>   87.6896    0.0000 </r>
       <r>   88.5651    0.0000 </r>
       <r>   90.0203    0.0000 </r>
       <r>   91.1190    0.0000 </r>
       <r>   91.1190    0.0000 </r>
       <r>   92.7882    0.0000 </r>
       <r>   94.2167    0.0000 </r>
       <r>   95.8397    0.0000 </r>
       <r>   95.8397    0.0000 </r>
       <r>   97.4442    0.0000 </r>
       <r>   97.4442    0.0000 </r>
      </set>
      <set comment="kpoint 3">
       <r>   -2.0723    1.0000 </r>
       <r>   13.2653    0.0000 </r>
       <r>   19.0493    0.0000 </r>
       <r>   19.0493    0.0000 </r>
       <r>   22.3785    0.0000 </r>
       <r>   23.5401    0.0000 </r>
       <r>   23.5401    0.0000 </r>
       <r>   25.6252    0.0000 </r>
       <r>   25.6252    0.0000 </r>
       <r>   27.5608    0.0000 </r>
       <r>   30.6638    0.0000 </r>
       <r>   37.1664    0.0000 </r>
       <r>   37.9434    0.0000 </r>
       <r>   37.9434    0.0000 </r>
       <r>   44.6839    0.0000 </r>
       <r>   50.7961    0.0000 </r>
       <r>   50.7961    0.0000 </r>
       <r>   53.5140    0.0000 </r>
       <r>   56.3777    0.0000 </r>
       <r>   56.3777    0.0000 </r>
       <r>   56.5846    0.0000 </r>
       <r>   58.7211    0.0000 </r>
       <r>   61.8049    0.0000 </r>
       <r>   61.8049    0.0000 </r>
       <r>   66.0299    0.0000 </r>
       <r>   68.3821    0.0000 </r>
       <r>   70.6576    0.0000 </r>
       <r>   70.6576    0.0000 </r>
       <r>   74.3477    0.0000 </r>
       <r>   74.3477    0.0000 </r>
       <r>   78.1641    0.0000 </r>
       <r>   78.7274    0.0000 </r>
       <r>   78.7274    0.0000 </r>
       <r>   82.1362    0.0000 </r>
       <r>   82.1362    0.0000 </r>
       <r>   84.0480    0.0000 </r>
       <r>   84.1185    0.0000 </r>
       <r>   86.6735    0.0000 </r>
       <r>   86.6735    0.0000 </r>
       <r>   88.1558    0.0000 </r>
       <r>   89.3945    0.0000 </r>
       <r>   89.8717    0.0000 </r>
       <r>   89.8717    0.0000 </r>
       <r>   93.7509    0.0000 </r>
       <r>   97.3347    0.0000 </r>
       <r>   97.3347    0.0000 </r>
       <r>  100.0187    0.0000 </r>
       <r>  100.0187    0.0000 </r>
      </set>
      <set comment="kpoint 4">
       <r>   -0.7335    1.0000 </r>
       <r>    9.5814   -0.0452 </r>
       <r>   18.6984    0.0000 </r>
       <r>   18.6984    0.0000 </r>
       <r>   21.7948    0.0000 </r>
       <r>   21.7948    0.0000 </r>
       <r>   22.2096    0.0000 </r>
       <r>   25.7747    0.0000 </r>
       <r>   28.0945    0.0000 </r>
       <r>   28.0945    0.0000 </r>
       <r>   34.2736    0.0000 </r>
       <r>   41.8125    0.0000 </r>
       <r>   41.8125    0.0000 </r>
       <r>   41.8777    0.0000 </r>
       <r>   46.3418    0.0000 </r>
       <r>   46.3418    0.0000 </r>
       <r>   47.8695    0.0000 </r>
       <r>   51.3492    0.0000 </r>
       <r>   56.3381    0.0000 </r>
       <r>   56.3381    0.0000 </r>
       <r>   56.8518    0.0000 </r>
       <r>   57.5244    0.0000 </r>
       <r>   62.2281    0.0000 </r>
       <r>   62.2281    0.0000 </r>
       <r>   65.5393    0.0000 </r>
       <r>   66.5548    0.0000 </r>
       <r>   66.5548    0.0000 </r>
       <r>   67.1409    0.0000 </r>
       <r>   74.1881    0.0000 </r>
       <r>   74.1881    0.0000 </r>
       <r>   74.3186    0.0000 </r>
       <r>   77.1883    0.0000 </r>
       <r>   78.5603    0.0000 </r>
       <r>   78.5603    0.0000 </r>
       <r>   80.0656    0.0000 </r>
       <r>   80.0656    0.0000 </r>
       <r>   80.2129    0.0000 </r>
       <r>   88.6593    0.0000 </r>
       <r>   89.1652    0.0000 </r>
       <r>   89.1652    0.0000 </r>
       <r>   89.3890    0.0000 </r>
       <r>   89.3890    0.0000 </r>
       <r>   91.3090    0.0000 </r>
       <r>   93.2746    0.0000 </r>
       <r>   97.7660    0.0000 </r>
       <r>   97.7661    0.0000 </r>
       <r>  101.5888    0.0000 </r>
       <r>  103.2219    0.0000 </r>
      </set>
      <set comment="kpoint 5">
       <r>    1.1202    1.0000 </r>
       <r>    6.3048    1.0575 </r>
       <r>   18.7934    0.0000 </r>
       <r>   18.7934    0.0000 </r>
       <r>   20.3513    0.0000 </r>
       <r>   20.3513    0.0000 </r>
       <r>   22.4241    0.0000 </r>
       <r>   24.2414    0.0000 </r>
       <r>   30.9072    0.0000 </r>
       <r>   30.9072    0.0000 </r>
       <r>   37.5971    0.0000 </r>
       <r>   40.7805    0.0000 </r>
       <r>   40.7805    0.0000 </r>
       <r>   46.3365    0.0000 </r>
       <r>   47.8923    0.0000 </r>
       <r>   47.8923    0.0000 </r>
       <r>   47.9976    0.0000 </r>
       <r>   53.1336    0.0000 </r>
       <r>   55.6038    0.0000 </r>
       <r>   56.1511    0.0000 </r>
       <r>   56.1511    0.0000 </r>
       <r>   57.2057    0.0000 </r>
       <r>   59.8954    0.0000 </r>
       <r>   59.8954    0.0000 </r>
       <r>   62.8574    0.0000 </r>
       <r>   64.1706    0.0000 </r>
       <r>   64.1706    0.0000 </r>
       <r>   67.0070    0.0000 </r>
       <r>   68.4229    0.0000 </r>
       <r>   73.7040    0.0000 </r>
       <r>   73.7040    0.0000 </r>
       <r>   76.2466    0.0000 </r>
       <r>   76.2466    0.0000 </r>
       <r>   76.6398    0.0000 </r>
       <r>   77.2962    0.0000 </r>
       <r>   80.5117    0.0000 </r>
       <r>   80.5117    0.0000 </r>
       <r>   88.5287    0.0000 </r>
       <r>   89.0034    0.0000 </r>
       <r>   89.0035    0.0000 </r>
       <r>   89.8965    0.0000 </r>
       <r>   93.5205    0.0000 </r>
       <r>   93.5205    0.0000 </r>
       <r>   94.3410    0.0000 </r>
       <r>   99.9943    0.0000 </r>
       <r>   99.9945    0.0000 </r>
       <r>  103.4067    0.0000 </r>
       <r>  104.1564    0.0000 </r>
      </set>
      <set comment="kpoint 6">
       <r>    3.3745    1.0000 </r>
       <r>    3.5743    1.0000 </r>
       <r>   19.3035    0.0000 </r>
       <r>   19.3035    0.0000 </r>
       <r>   19.3862    0.0000 </r>
       <r>   19.3862    0.0000 </r>
       <r>   23.0428    0.0000 </r>
       <r>   23.1631    0.0000 </r>
       <r>   32.6701    0.0000 </r>
       <r>   32.6701    0.0000 </r>
       <r>   38.6887    0.0000 </r>
       <r>   38.6887    0.0000 </r>
       <r>   39.4836    0.0000 </r>
       <r>   45.4033    0.0000 </r>
       <r>   50.5639    0.0000 </r>
       <r>   51.5337    0.0000 </r>
       <r>   51.5337    0.0000 </r>
       <r>   53.4951    0.0000 </r>
       <r>   54.6472    0.0000 </r>
       <r>   54.6472    0.0000 </r>
       <r>   56.2391    0.0000 </r>
       <r>   57.4967    0.0000 </r>
       <r>   57.4967    0.0000 </r>
       <r>   58.4209    0.0000 </r>
       <r>   60.6112    0.0000 </r>
       <r>   62.6248    0.0000 </r>
       <r>   64.2725    0.0000 </r>
       <r>   64.2725    0.0000 </r>
       <r>   69.1223    0.0000 </r>
       <r>   73.5783    0.0000 </r>
       <r>   73.5783    0.0000 </r>
       <r>   75.3330    0.0000 </r>
       <r>   75.3330    0.0000 </r>
       <r>   76.0524    0.0000 </r>
       <r>   76.9476    0.0000 </r>
       <r>   80.5428    0.0000 </r>
       <r>   80.5428    0.0000 </r>
       <r>   88.6857    0.0000 </r>
       <r>   88.8474    0.0000 </r>
       <r>   88.8474    0.0000 </r>
       <r>   88.9397    0.0000 </r>
       <r>   94.1302    0.0000 </r>
       <r>   95.5448    0.0000 </r>
       <r>   95.5448    0.0000 </r>
       <r>  101.3575    0.0000 </r>
       <r>  101.3575    0.0000 </r>
       <r>  107.1791    0.0000 </r>
       <r>  107.1791    0.0000 </r>
      </set>
      <set comment="kpoint 7">
       <r>   -2.7914    1.0000 </r>
       <r>   18.4111    0.0000 </r>
       <r>   18.4111    0.0000 </r>
       <r>   18.7031    0.0000 </r>
       <r>   21.2046    0.0000 </r>
       <r>   23.8324    0.0000 </r>
       <r>   24.6419    0.0000 </r>
       <r>   24.6419    0.0000 </r>
       <r>   26.9331    0.0000 </r>
       <r>   27.6477    0.0000 </r>
       <r>   30.7426    0.0000 </r>
       <r>   32.9311    0.0000 </r>
       <r>   32.9311    0.0000 </r>
       <r>   35.9391    0.0000 </r>
       <r>   42.6590    0.0000 </r>
       <r>   54.9430    0.0000 </r>
       <r>   54.9430    0.0000 </r>
       <r>   55.3368    0.0000 </r>
       <r>   56.5721    0.0000 </r>
       <r>   57.2916    0.0000 </r>
       <r>   57.3181    0.0000 </r>
       <r>   57.3181    0.0000 </r>
       <r>   59.4477    0.0000 </r>
       <r>   62.7226    0.0000 </r>
       <r>   67.8085    0.0000 </r>
       <r>   67.8085    0.0000 </r>
       <r>   69.9798    0.0000 </r>
       <r>   71.0664    0.0000 </r>
       <r>   73.4776    0.0000 </r>
       <r>   73.4776    0.0000 </r>
       <r>   80.3487    0.0000 </r>
       <r>   82.0098    0.0000 </r>
       <r>   82.0098    0.0000 </r>
       <r>   82.4989    0.0000 </r>
       <r>   82.7818    0.0000 </r>
       <r>   84.5532    0.0000 </r>
       <r>   88.1955    0.0000 </r>
       <r>   89.8049    0.0000 </r>
       <r>   89.8049    0.0000 </r>
       <r>   90.2214    0.0000 </r>
       <r>   90.2214    0.0000 </r>
       <r>   91.8898    0.0000 </r>
       <r>   93.6120    0.0000 </r>
       <r>   94.7428    0.0000 </r>
       <r>   95.0588    0.0000 </r>
       <r>   97.3180    0.0000 </r>
       <r>   97.3465    0.0000 </r>
       <r>   97.3465    0.0000 </r>
      </set>
      <set comment="kpoint 8">
       <r>   -2.1619    1.0000 </r>
       <r>   14.7306    0.0000 </r>
       <r>   17.4354    0.0000 </r>
       <r>   18.8381    0.0000 </r>
       <r>   21.2404    0.0000 </r>
       <r>   22.0430    0.0000 </r>
       <r>   25.0265    0.0000 </r>
       <r>   25.9626    0.0000 </r>
       <r>   27.3079    0.0000 </r>
       <r>   29.7373    0.0000 </r>
       <r>   30.4046    0.0000 </r>
       <r>   35.1346    0.0000 </r>
       <r>   35.5935    0.0000 </r>
       <r>   38.4647    0.0000 </r>
       <r>   45.1005    0.0000 </r>
       <r>   50.7889    0.0000 </r>
       <r>   52.0997    0.0000 </r>
       <r>   55.3204    0.0000 </r>
       <r>   55.4976    0.0000 </r>
       <r>   56.0127    0.0000 </r>
       <r>   57.0470    0.0000 </r>
       <r>   57.7053    0.0000 </r>
       <r>   59.3700    0.0000 </r>
       <r>   62.3061    0.0000 </r>
       <r>   66.8492    0.0000 </r>
       <r>   68.8121    0.0000 </r>
       <r>   71.2720    0.0000 </r>
       <r>   72.5466    0.0000 </r>
       <r>   72.6793    0.0000 </r>
       <r>   75.5562    0.0000 </r>
       <r>   76.4984    0.0000 </r>
       <r>   77.5241    0.0000 </r>
       <r>   80.1194    0.0000 </r>
       <r>   81.2896    0.0000 </r>
       <r>   82.2897    0.0000 </r>
       <r>   83.3339    0.0000 </r>
       <r>   85.9332    0.0000 </r>
       <r>   86.3832    0.0000 </r>
       <r>   88.1735    0.0000 </r>
       <r>   89.3071    0.0000 </r>
       <r>   89.8910    0.0000 </r>
       <r>   91.2921    0.0000 </r>
       <r>   93.5145    0.0000 </r>
       <r>   94.6435    0.0000 </r>
       <r>   94.8118    0.0000 </r>
       <r>   95.8940    0.0000 </r>
       <r>   97.0061    0.0000 </r>
       <r>   98.2622    0.0000 </r>
      </set>
      <set comment="kpoint 9">
       <r>   -1.0003    1.0000 </r>
       <r>   10.9713   -0.0092 </r>
       <r>   16.9117    0.0000 </r>
       <r>   18.5076    0.0000 </r>
       <r>   19.2317    0.0000 </r>
       <r>   24.0760    0.0000 </r>
       <r>   24.5657    0.0000 </r>
       <r>   25.0159    0.0000 </r>
       <r>   28.0648    0.0000 </r>
       <r>   29.3354    0.0000 </r>
       <r>   34.0808    0.0000 </r>
       <r>   38.9137    0.0000 </r>
       <r>   40.2566    0.0000 </r>
       <r>   41.7551    0.0000 </r>
       <r>   45.8855    0.0000 </r>
       <r>   48.0048    0.0000 </r>
       <r>   48.4227    0.0000 </r>
       <r>   53.3026    0.0000 </r>
       <r>   55.4724    0.0000 </r>
       <r>   56.1231    0.0000 </r>
       <r>   57.1617    0.0000 </r>
       <r>   58.3276    0.0000 </r>
       <r>   58.3709    0.0000 </r>
       <r>   62.6632    0.0000 </r>
       <r>   63.9816    0.0000 </r>
       <r>   67.8041    0.0000 </r>
       <r>   68.8014    0.0000 </r>
       <r>   71.0706    0.0000 </r>
       <r>   71.2358    0.0000 </r>
       <r>   72.7134    0.0000 </r>
       <r>   76.9544    0.0000 </r>
       <r>   77.2494    0.0000 </r>
       <r>   77.4601    0.0000 </r>
       <r>   79.4175    0.0000 </r>
       <r>   80.8895    0.0000 </r>
       <r>   81.5201    0.0000 </r>
       <r>   82.4211    0.0000 </r>
       <r>   86.6880    0.0000 </r>
       <r>   86.8102    0.0000 </r>
       <r>   87.5156    0.0000 </r>
       <r>   91.2832    0.0000 </r>
       <r>   92.8522    0.0000 </r>
       <r>   92.8905    0.0000 </r>
       <r>   94.4572    0.0000 </r>
       <r>   94.4986    0.0000 </r>
       <r>   97.4563    0.0000 </r>
       <r>  100.0972    0.0000 </r>
       <r>  101.5457    0.0000 </r>
      </set>
      <set comment="kpoint 10">
       <r>    0.6807    1.0000 </r>
       <r>    7.5683    0.6424 </r>
       <r>   16.8459    0.0000 </r>
       <r>   17.5519    0.0000 </r>
       <r>   18.5185    0.0000 </r>
       <r>   23.0491    0.0000 </r>
       <r>   24.7816    0.0000 </r>
       <r>   26.1017    0.0000 </r>
       <r>   27.6388    0.0000 </r>
       <r>   31.8409    0.0000 </r>
       <r>   37.5489    0.0000 </r>
       <r>   40.3418    0.0000 </r>
       <r>   42.5661    0.0000 </r>
       <r>   44.7970    0.0000 </r>
       <r>   45.3616    0.0000 </r>
       <r>   47.1519    0.0000 </r>
       <r>   49.6714    0.0000 </r>
       <r>   53.2440    0.0000 </r>
       <r>   55.5136    0.0000 </r>
       <r>   55.9078    0.0000 </r>
       <r>   56.2230    0.0000 </r>
       <r>   57.5421    0.0000 </r>
       <r>   58.8763    0.0000 </r>
       <r>   60.3928    0.0000 </r>
       <r>   63.4664    0.0000 </r>
       <r>   63.6208    0.0000 </r>
       <r>   65.0926    0.0000 </r>
       <r>   69.4282    0.0000 </r>
       <r>   69.7075    0.0000 </r>
       <r>   70.2507    0.0000 </r>
       <r>   71.8875    0.0000 </r>
       <r>   75.6745    0.0000 </r>
       <r>   76.5542    0.0000 </r>
       <r>   77.8102    0.0000 </r>
       <r>   80.5286    0.0000 </r>
       <r>   81.8866    0.0000 </r>
       <r>   83.3419    0.0000 </r>
       <r>   84.4796    0.0000 </r>
       <r>   87.4992    0.0000 </r>
       <r>   88.6799    0.0000 </r>
       <r>   92.8549    0.0000 </r>
       <r>   94.3277    0.0000 </r>
       <r>   94.7765    0.0000 </r>
       <r>   94.9454    0.0000 </r>
       <r>   97.7092    0.0000 </r>
       <r>   98.6422    0.0000 </r>
       <r>  101.7650    0.0000 </r>
       <r>  103.1425    0.0000 </r>
      </set>
      <set comment="kpoint 11">
       <r>    2.8603    1.0000 </r>
       <r>    4.5995    1.0000 </r>
       <r>   16.3575    0.0000 </r>
       <r>   17.2404    0.0000 </r>
       <r>   18.9578    0.0000 </r>
       <r>   21.9150    0.0000 </r>
       <r>   24.8001    0.0000 </r>
       <r>   25.5456    0.0000 </r>
       <r>   30.4425    0.0000 </r>
       <r>   32.7512    0.0000 </r>
       <r>   39.0174    0.0000 </r>
       <r>   39.0273    0.0000 </r>
       <r>   40.4715    0.0000 </r>
       <r>   46.8530    0.0000 </r>
       <r>   49.3462    0.0000 </r>
       <r>   49.7863    0.0000 </r>
       <r>   50.8061    0.0000 </r>
       <r>   53.7339    0.0000 </r>
       <r>   54.6342    0.0000 </r>
       <r>   55.9847    0.0000 </r>
       <r>   56.1864    0.0000 </r>
       <r>   56.6486    0.0000 </r>
       <r>   57.6320    0.0000 </r>
       <r>   59.0990    0.0000 </r>
       <r>   61.7451    0.0000 </r>
       <r>   61.9125    0.0000 </r>
       <r>   63.6982    0.0000 </r>
       <r>   64.3367    0.0000 </r>
       <r>   68.2173    0.0000 </r>
       <r>   69.0950    0.0000 </r>
       <r>   72.6390    0.0000 </r>
       <r>   74.6903    0.0000 </r>
       <r>   76.0873    0.0000 </r>
       <r>   77.6241    0.0000 </r>
       <r>   80.2592    0.0000 </r>
       <r>   81.9253    0.0000 </r>
       <r>   83.0009    0.0000 </r>
       <r>   83.1553    0.0000 </r>
       <r>   88.3883    0.0000 </r>
       <r>   88.5768    0.0000 </r>
       <r>   92.3002    0.0000 </r>
       <r>   95.2211    0.0000 </r>
       <r>   96.5927    0.0000 </r>
       <r>   98.3065    0.0000 </r>
       <r>  100.1223    0.0000 </r>
       <r>  100.8230    0.0000 </r>
       <r>  101.5922    0.0000 </r>
       <r>  104.5533    0.0000 </r>
      </set>
      <set comment="kpoint 12">
       <r>    2.0810    1.0000 </r>
       <r>    5.5358    1.0436 </r>
       <r>   15.6348    0.0000 </r>
       <r>   18.0954    0.0000 </r>
       <r>   19.8717    0.0000 </r>
       <r>   21.2199    0.0000 </r>
       <r>   24.1149    0.0000 </r>
       <r>   26.3280    0.0000 </r>
       <r>   30.3098    0.0000 </r>
       <r>   31.8084    0.0000 </r>
       <r>   37.7754    0.0000 </r>
       <r>   39.9866    0.0000 </r>
       <r>   41.5821    0.0000 </r>
       <r>   46.5072    0.0000 </r>
       <r>   47.5006    0.0000 </r>
       <r>   49.1717    0.0000 </r>
       <r>   51.1088    0.0000 </r>
       <r>   54.4836    0.0000 </r>
       <r>   55.1383    0.0000 </r>
       <r>   55.2422    0.0000 </r>
       <r>   55.7750    0.0000 </r>
       <r>   57.6353    0.0000 </r>
       <r>   57.7158    0.0000 </r>
       <r>   59.5351    0.0000 </r>
       <r>   60.9481    0.0000 </r>
       <r>   61.8455    0.0000 </r>
       <r>   64.1058    0.0000 </r>
       <r>   66.5879    0.0000 </r>
       <r>   68.8378    0.0000 </r>
       <r>   68.8425    0.0000 </r>
       <r>   72.1610    0.0000 </r>
       <r>   75.1042    0.0000 </r>
       <r>   76.2708    0.0000 </r>
       <r>   78.0958    0.0000 </r>
       <r>   79.8754    0.0000 </r>
       <r>   82.1269    0.0000 </r>
       <r>   83.1324    0.0000 </r>
       <r>   83.1456    0.0000 </r>
       <r>   88.1078    0.0000 </r>
       <r>   88.1823    0.0000 </r>
       <r>   92.6515    0.0000 </r>
       <r>   95.2583    0.0000 </r>
       <r>   95.3280    0.0000 </r>
       <r>   96.6200    0.0000 </r>
       <r>   99.8852    0.0000 </r>
       <r>  101.1655    0.0000 </r>
       <r>  102.1480    0.0000 </r>
       <r>  106.8086    0.0000 </r>
      </set>
      <set comment="kpoint 13">
       <r>    0.0637    1.0000 </r>
       <r>    8.6516    0.2062 </r>
       <r>   15.3959    0.0000 </r>
       <r>   19.3999    0.0000 </r>
       <r>   20.9781    0.0000 </r>
       <r>   21.2396    0.0000 </r>
       <r>   23.7419    0.0000 </r>
       <r>   27.2469    0.0000 </r>
       <r>   27.4370    0.0000 </r>
       <r>   29.9903    0.0000 </r>
       <r>   36.5513    0.0000 </r>
       <r>   40.1465    0.0000 </r>
       <r>   43.1643    0.0000 </r>
       <r>   43.7627    0.0000 </r>
       <r>   44.6317    0.0000 </r>
       <r>   47.7846    0.0000 </r>
       <r>   49.5393    0.0000 </r>
       <r>   51.9347    0.0000 </r>
       <r>   55.6510    0.0000 </r>
       <r>   55.8347    0.0000 </r>
       <r>   56.8171    0.0000 </r>
       <r>   57.8103    0.0000 </r>
       <r>   59.9423    0.0000 </r>
       <r>   61.2698    0.0000 </r>
       <r>   62.2002    0.0000 </r>
       <r>   64.1369    0.0000 </r>
       <r>   67.2358    0.0000 </r>
       <r>   69.5002    0.0000 </r>
       <r>   71.0500    0.0000 </r>
       <r>   71.2328    0.0000 </r>
       <r>   73.1796    0.0000 </r>
       <r>   75.8695    0.0000 </r>
       <r>   77.0631    0.0000 </r>
       <r>   78.7152    0.0000 </r>
       <r>   79.5441    0.0000 </r>
       <r>   82.7743    0.0000 </r>
       <r>   83.8869    0.0000 </r>
       <r>   84.5774    0.0000 </r>
       <r>   86.6112    0.0000 </r>
       <r>   87.0735    0.0000 </r>
       <r>   91.4544    0.0000 </r>
       <r>   91.8634    0.0000 </r>
       <r>   94.9752    0.0000 </r>
       <r>   95.5496    0.0000 </r>
       <r>   97.2466    0.0000 </r>
       <r>  100.1890    0.0000 </r>
       <r>  101.3296    0.0000 </r>
       <r>  105.1184    0.0000 </r>
      </set>
      <set comment="kpoint 14">
       <r>   -1.4460    1.0000 </r>
       <r>   12.1632    0.0000 </r>
       <r>   15.6584    0.0000 </r>
       <r>   20.9386    0.0000 </r>
       <r>   21.3357    0.0000 </r>
       <r>   23.0023    0.0000 </r>
       <r>   23.6903    0.0000 </r>
       <r>   24.5407    0.0000 </r>
       <r>   26.7434    0.0000 </r>
       <r>   29.6819    0.0000 </r>
       <r>   33.0667    0.0000 </r>
       <r>   36.8020    0.0000 </r>
       <r>   39.3111    0.0000 </r>
       <r>   41.5460    0.0000 </r>
       <r>   46.3753    0.0000 </r>
       <r>   46.7576    0.0000 </r>
       <r>   51.0514    0.0000 </r>
       <r>   53.4241    0.0000 </r>
       <r>   55.5079    0.0000 </r>
       <r>   55.7450    0.0000 </r>
       <r>   57.2531    0.0000 </r>
       <r>   58.8128    0.0000 </r>
       <r>   59.2259    0.0000 </r>
       <r>   61.0701    0.0000 </r>
       <r>   66.4728    0.0000 </r>
       <r>   67.4261    0.0000 </r>
       <r>   70.0506    0.0000 </r>
       <r>   70.1596    0.0000 </r>
       <r>   73.9267    0.0000 </r>
       <r>   74.2542    0.0000 </r>
       <r>   75.8405    0.0000 </r>
       <r>   78.0945    0.0000 </r>
       <r>   78.6834    0.0000 </r>
       <r>   78.7818    0.0000 </r>
       <r>   81.4270    0.0000 </r>
       <r>   83.4906    0.0000 </r>
       <r>   84.1851    0.0000 </r>
       <r>   84.9979    0.0000 </r>
       <r>   86.6060    0.0000 </r>
       <r>   86.6857    0.0000 </r>
       <r>   88.8038    0.0000 </r>
       <r>   90.9682    0.0000 </r>
       <r>   92.4261    0.0000 </r>
       <r>   94.7076    0.0000 </r>
       <r>   96.9053    0.0000 </r>
       <r>   97.8231    0.0000 </r>
       <r>   99.7234    0.0000 </r>
       <r>  101.9877    0.0000 </r>
      </set>
      <set comment="kpoint 15">
       <r>   -2.4314    1.0000 </r>
       <r>   15.6539    0.0000 </r>
       <r>   16.7315    0.0000 </r>
       <r>   21.2410    0.0000 </r>
       <r>   22.3119    0.0000 </r>
       <r>   23.4879    0.0000 </r>
       <r>   23.7582    0.0000 </r>
       <r>   24.6399    0.0000 </r>
       <r>   25.2342    0.0000 </r>
       <r>   29.4288    0.0000 </r>
       <r>   30.4285    0.0000 </r>
       <r>   33.4710    0.0000 </r>
       <r>   36.0906    0.0000 </r>
       <r>   37.6150    0.0000 </r>
       <r>   43.7744    0.0000 </r>
       <r>   51.2853    0.0000 </r>
       <r>   55.0354    0.0000 </r>
       <r>   55.2117    0.0000 </r>
       <r>   55.5433    0.0000 </r>
       <r>   55.6345    0.0000 </r>
       <r>   57.0320    0.0000 </r>
       <r>   59.3303    0.0000 </r>
       <r>   59.5696    0.0000 </r>
       <r>   60.9323    0.0000 </r>
       <r>   68.5478    0.0000 </r>
       <r>   69.0276    0.0000 </r>
       <r>   70.1994    0.0000 </r>
       <r>   71.2021    0.0000 </r>
       <r>   72.8361    0.0000 </r>
       <r>   74.4811    0.0000 </r>
       <r>   79.7143    0.0000 </r>
       <r>   79.8007    0.0000 </r>
       <r>   80.4636    0.0000 </r>
       <r>   80.8806    0.0000 </r>
       <r>   82.1251    0.0000 </r>
       <r>   85.6158    0.0000 </r>
       <r>   86.4334    0.0000 </r>
       <r>   86.6356    0.0000 </r>
       <r>   87.3829    0.0000 </r>
       <r>   89.4227    0.0000 </r>
       <r>   90.4315    0.0000 </r>
       <r>   91.4244    0.0000 </r>
       <r>   92.3780    0.0000 </r>
       <r>   92.6077    0.0000 </r>
       <r>   93.6136    0.0000 </r>
       <r>   96.3185    0.0000 </r>
       <r>   98.2783    0.0000 </r>
       <r>   99.2189    0.0000 </r>
      </set>
      <set comment="kpoint 16">
       <r>   -1.7140    1.0000 </r>
       <r>   16.2833    0.0000 </r>
       <r>   16.2833    0.0000 </r>
       <r>   16.3732    0.0000 </r>
       <r>   18.6660    0.0000 </r>
       <r>   19.6671    0.0000 </r>
       <r>   28.1498    0.0000 </r>
       <r>   28.1498    0.0000 </r>
       <r>   28.6345    0.0000 </r>
       <r>   31.4248    0.0000 </r>
       <r>   32.9837    0.0000 </r>
       <r>   34.3485    0.0000 </r>
       <r>   34.3485    0.0000 </r>
       <r>   39.2952    0.0000 </r>
       <r>   47.6341    0.0000 </r>
       <r>   50.9748    0.0000 </r>
       <r>   50.9748    0.0000 </r>
       <r>   51.4343    0.0000 </r>
       <r>   54.3924    0.0000 </r>
       <r>   56.8277    0.0000 </r>
       <r>   56.8277    0.0000 </r>
       <r>   57.0079    0.0000 </r>
       <r>   60.0728    0.0000 </r>
       <r>   61.1993    0.0000 </r>
       <r>   66.4443    0.0000 </r>
       <r>   69.9723    0.0000 </r>
       <r>   69.9723    0.0000 </r>
       <r>   71.8771    0.0000 </r>
       <r>   71.8771    0.0000 </r>
       <r>   74.7202    0.0000 </r>
       <r>   76.9520    0.0000 </r>
       <r>   77.6832    0.0000 </r>
       <r>   78.3556    0.0000 </r>
       <r>   78.3556    0.0000 </r>
       <r>   82.9461    0.0000 </r>
       <r>   83.3862    0.0000 </r>
       <r>   86.8639    0.0000 </r>
       <r>   86.8639    0.0000 </r>
       <r>   88.6654    0.0000 </r>
       <r>   89.4758    0.0000 </r>
       <r>   91.8904    0.0000 </r>
       <r>   91.8904    0.0000 </r>
       <r>   93.0329    0.0000 </r>
       <r>   93.0726    0.0000 </r>
       <r>   93.3210    0.0000 </r>
       <r>   93.3210    0.0000 </r>
       <r>   98.8945    0.0000 </r>
       <r>   98.9890    0.0000 </r>
      </set>
      <set comment="kpoint 17">
       <r>   -0.7337    1.0000 </r>
       <r>   12.7653    0.0000 </r>
       <r>   15.5953    0.0000 </r>
       <r>   16.3236    0.0000 </r>
       <r>   17.0223    0.0000 </r>
       <r>   20.3945    0.0000 </r>
       <r>   27.6063    0.0000 </r>
       <r>   28.8164    0.0000 </r>
       <r>   30.6519    0.0000 </r>
       <r>   31.6751    0.0000 </r>
       <r>   34.8569    0.0000 </r>
       <r>   36.9031    0.0000 </r>
       <r>   38.5030    0.0000 </r>
       <r>   41.2263    0.0000 </r>
       <r>   46.0257    0.0000 </r>
       <r>   48.0311    0.0000 </r>
       <r>   50.9908    0.0000 </r>
       <r>   51.9453    0.0000 </r>
       <r>   54.2155    0.0000 </r>
       <r>   55.7555    0.0000 </r>
       <r>   56.8334    0.0000 </r>
       <r>   57.0572    0.0000 </r>
       <r>   59.8040    0.0000 </r>
       <r>   60.5470    0.0000 </r>
       <r>   64.1498    0.0000 </r>
       <r>   67.0540    0.0000 </r>
       <r>   67.3032    0.0000 </r>
       <r>   70.4665    0.0000 </r>
       <r>   71.4173    0.0000 </r>
       <r>   72.3523    0.0000 </r>
       <r>   76.7833    0.0000 </r>
       <r>   77.6887    0.0000 </r>
       <r>   78.4405    0.0000 </r>
       <r>   79.0545    0.0000 </r>
       <r>   81.9809    0.0000 </r>
       <r>   82.6078    0.0000 </r>
       <r>   83.8002    0.0000 </r>
       <r>   86.6447    0.0000 </r>
       <r>   87.0651    0.0000 </r>
       <r>   90.1385    0.0000 </r>
       <r>   90.4567    0.0000 </r>
       <r>   92.0008    0.0000 </r>
       <r>   93.3529    0.0000 </r>
       <r>   93.4214    0.0000 </r>
       <r>   94.6248    0.0000 </r>
       <r>   97.8939    0.0000 </r>
       <r>   99.0394    0.0000 </r>
       <r>   99.6779    0.0000 </r>
      </set>
      <set comment="kpoint 18">
       <r>    0.7677    1.0000 </r>
       <r>    9.3011    0.0189 </r>
       <r>   14.4754    0.0000 </r>
       <r>   15.3702    0.0000 </r>
       <r>   17.0326    0.0000 </r>
       <r>   22.9069    0.0000 </r>
       <r>   26.1488    0.0000 </r>
       <r>   28.7186    0.0000 </r>
       <r>   30.3019    0.0000 </r>
       <r>   32.8983    0.0000 </r>
       <r>   38.4683    0.0000 </r>
       <r>   40.1396    0.0000 </r>
       <r>   42.6662    0.0000 </r>
       <r>   42.6963    0.0000 </r>
       <r>   44.2146    0.0000 </r>
       <r>   45.5637    0.0000 </r>
       <r>   52.9588    0.0000 </r>
       <r>   53.1329    0.0000 </r>
       <r>   54.3698    0.0000 </r>
       <r>   54.7777    0.0000 </r>
       <r>   55.4594    0.0000 </r>
       <r>   56.8755    0.0000 </r>
       <r>   59.0110    0.0000 </r>
       <r>   60.3475    0.0000 </r>
       <r>   61.7139    0.0000 </r>
       <r>   64.2909    0.0000 </r>
       <r>   64.3886    0.0000 </r>
       <r>   67.7177    0.0000 </r>
       <r>   68.9327    0.0000 </r>
       <r>   71.3141    0.0000 </r>
       <r>   74.0799    0.0000 </r>
       <r>   74.9933    0.0000 </r>
       <r>   77.4412    0.0000 </r>
       <r>   78.0634    0.0000 </r>
       <r>   80.9258    0.0000 </r>
       <r>   82.0799    0.0000 </r>
       <r>   83.3978    0.0000 </r>
       <r>   87.3409    0.0000 </r>
       <r>   88.0056    0.0000 </r>
       <r>   90.9617    0.0000 </r>
       <r>   92.5846    0.0000 </r>
       <r>   92.7293    0.0000 </r>
       <r>   94.8016    0.0000 </r>
       <r>   94.9295    0.0000 </r>
       <r>   98.6859    0.0000 </r>
       <r>   99.1442    0.0000 </r>
       <r>  100.5913    0.0000 </r>
       <r>  100.6936    0.0000 </r>
      </set>
      <set comment="kpoint 19">
       <r>    2.7718    1.0000 </r>
       <r>    6.2113    1.0491 </r>
       <r>   13.0902    0.0000 </r>
       <r>   15.6079    0.0000 </r>
       <r>   17.3613    0.0000 </r>
       <r>   24.9268    0.0000 </r>
       <r>   25.7803    0.0000 </r>
       <r>   28.2243    0.0000 </r>
       <r>   30.0232    0.0000 </r>
       <r>   33.0035    0.0000 </r>
       <r>   39.4015    0.0000 </r>
       <r>   39.9722    0.0000 </r>
       <r>   42.0640    0.0000 </r>
       <r>   46.4825    0.0000 </r>
       <r>   47.4609    0.0000 </r>
       <r>   49.0928    0.0000 </r>
       <r>   51.2266    0.0000 </r>
       <r>   52.3541    0.0000 </r>
       <r>   53.9035    0.0000 </r>
       <r>   54.6764    0.0000 </r>
       <r>   56.7927    0.0000 </r>
       <r>   56.9386    0.0000 </r>
       <r>   57.4201    0.0000 </r>
       <r>   59.6138    0.0000 </r>
       <r>   61.1790    0.0000 </r>
       <r>   62.1700    0.0000 </r>
       <r>   63.4631    0.0000 </r>
       <r>   64.0643    0.0000 </r>
       <r>   66.4953    0.0000 </r>
       <r>   68.0463    0.0000 </r>
       <r>   71.3037    0.0000 </r>
       <r>   75.1482    0.0000 </r>
       <r>   76.5691    0.0000 </r>
       <r>   77.2619    0.0000 </r>
       <r>   79.9637    0.0000 </r>
       <r>   80.9450    0.0000 </r>
       <r>   84.5569    0.0000 </r>
       <r>   88.2192    0.0000 </r>
       <r>   88.5830    0.0000 </r>
       <r>   91.2546    0.0000 </r>
       <r>   93.4459    0.0000 </r>
       <r>   94.1523    0.0000 </r>
       <r>   96.4608    0.0000 </r>
       <r>   97.0131    0.0000 </r>
       <r>   99.9743    0.0000 </r>
       <r>  100.9366    0.0000 </r>
       <r>  101.6097    0.0000 </r>
       <r>  103.7486    0.0000 </r>
      </set>
      <set comment="kpoint 20">
       <r>    3.5491    1.0000 </r>
       <r>    5.2698    1.0038 </r>
       <r>   12.2007    0.0000 </r>
       <r>   16.3087    0.0000 </r>
       <r>   18.1563    0.0000 </r>
       <r>   24.1019    0.0000 </r>
       <r>   26.6151    0.0000 </r>
       <r>   29.5646    0.0000 </r>
       <r>   30.1142    0.0000 </r>
       <r>   30.4016    0.0000 </r>
       <r>   36.6904    0.0000 </r>
       <r>   42.5885    0.0000 </r>
       <r>   42.6867    0.0000 </r>
       <r>   45.8573    0.0000 </r>
       <r>   49.7833    0.0000 </r>
       <r>   50.1770    0.0000 </r>
       <r>   50.9438    0.0000 </r>
       <r>   53.5925    0.0000 </r>
       <r>   54.5167    0.0000 </r>
       <r>   54.9708    0.0000 </r>
       <r>   55.7541    0.0000 </r>
       <r>   57.1329    0.0000 </r>
       <r>   57.5014    0.0000 </r>
       <r>   59.1112    0.0000 </r>
       <r>   60.0840    0.0000 </r>
       <r>   60.9189    0.0000 </r>
       <r>   62.0906    0.0000 </r>
       <r>   63.5008    0.0000 </r>
       <r>   65.3997    0.0000 </r>
       <r>   68.6365    0.0000 </r>
       <r>   71.9065    0.0000 </r>
       <r>   75.0485    0.0000 </r>
       <r>   76.7377    0.0000 </r>
       <r>   77.3208    0.0000 </r>
       <r>   79.2848    0.0000 </r>
       <r>   80.4287    0.0000 </r>
       <r>   84.0883    0.0000 </r>
       <r>   88.1215    0.0000 </r>
       <r>   88.8657    0.0000 </r>
       <r>   90.7243    0.0000 </r>
       <r>   90.8276    0.0000 </r>
       <r>   95.8396    0.0000 </r>
       <r>   96.5305    0.0000 </r>
       <r>  100.1356    0.0000 </r>
       <r>  100.4625    0.0000 </r>
       <r>  101.5950    0.0000 </r>
       <r>  103.1880    0.0000 </r>
       <r>  107.2061    0.0000 </r>
      </set>
      <set comment="kpoint 21">
       <r>    1.3824    1.0000 </r>
       <r>    8.1696    0.4224 </r>
       <r>   11.8509    0.0000 </r>
       <r>   17.4722    0.0000 </r>
       <r>   19.4221    0.0000 </r>
       <r>   23.6986    0.0000 </r>
       <r>   26.0907    0.0000 </r>
       <r>   26.8505    0.0000 </r>
       <r>   29.4769    0.0000 </r>
       <r>   31.7522    0.0000 </r>
       <r>   36.3562    0.0000 </r>
       <r>   39.5477    0.0000 </r>
       <r>   43.5456    0.0000 </r>
       <r>   45.8196    0.0000 </r>
       <r>   46.4079    0.0000 </r>
       <r>   50.0407    0.0000 </r>
       <r>   51.1818    0.0000 </r>
       <r>   53.8242    0.0000 </r>
       <r>   54.1968    0.0000 </r>
       <r>   54.8506    0.0000 </r>
       <r>   55.8672    0.0000 </r>
       <r>   57.4148    0.0000 </r>
       <r>   58.9349    0.0000 </r>
       <r>   59.3567    0.0000 </r>
       <r>   60.6793    0.0000 </r>
       <r>   61.2502    0.0000 </r>
       <r>   64.4961    0.0000 </r>
       <r>   65.3486    0.0000 </r>
       <r>   66.9093    0.0000 </r>
       <r>   72.2483    0.0000 </r>
       <r>   74.1110    0.0000 </r>
       <r>   74.8580    0.0000 </r>
       <r>   76.8386    0.0000 </r>
       <r>   78.4554    0.0000 </r>
       <r>   78.8506    0.0000 </r>
       <r>   81.1688    0.0000 </r>
       <r>   83.0994    0.0000 </r>
       <r>   85.3521    0.0000 </r>
       <r>   88.1579    0.0000 </r>
       <r>   89.3714    0.0000 </r>
       <r>   90.9303    0.0000 </r>
       <r>   94.5307    0.0000 </r>
       <r>   95.7846    0.0000 </r>
       <r>   99.7727    0.0000 </r>
       <r>  100.8395    0.0000 </r>
       <r>  101.5580    0.0000 </r>
       <r>  102.8361    0.0000 </r>
       <r>  104.6825    0.0000 </r>
      </set>
      <set comment="kpoint 22">
       <r>   -0.2901    1.0000 </r>
       <r>   11.0166    0.0000 </r>
       <r>   12.4875    0.0000 </r>
       <r>   19.0895    0.0000 </r>
       <r>   21.1088    0.0000 </r>
       <r>   23.3325    0.0000 </r>
       <r>   24.3218    0.0000 </r>
       <r>   25.3123    0.0000 </r>
       <r>   27.7039    0.0000 </r>
       <r>   32.6896    0.0000 </r>
       <r>   34.0985    0.0000 </r>
       <r>   39.4191    0.0000 </r>
       <r>   41.5870    0.0000 </r>
       <r>   42.1815    0.0000 </r>
       <r>   45.5391    0.0000 </r>
       <r>   49.9689    0.0000 </r>
       <r>   50.4177    0.0000 </r>
       <r>   53.1644    0.0000 </r>
       <r>   53.8711    0.0000 </r>
       <r>   54.6627    0.0000 </r>
       <r>   57.2539    0.0000 </r>
       <r>   57.8354    0.0000 </r>
       <r>   59.3653    0.0000 </r>
       <r>   60.0232    0.0000 </r>
       <r>   63.4607    0.0000 </r>
       <r>   65.3353    0.0000 </r>
       <r>   65.5874    0.0000 </r>
       <r>   69.0641    0.0000 </r>
       <r>   72.4582    0.0000 </r>
       <r>   72.9555    0.0000 </r>
       <r>   75.0472    0.0000 </r>
       <r>   77.3400    0.0000 </r>
       <r>   77.5492    0.0000 </r>
       <r>   78.8477    0.0000 </r>
       <r>   81.0277    0.0000 </r>
       <r>   81.5343    0.0000 </r>
       <r>   82.3933    0.0000 </r>
       <r>   83.0421    0.0000 </r>
       <r>   86.0985    0.0000 </r>
       <r>   89.4136    0.0000 </r>
       <r>   89.6357    0.0000 </r>
       <r>   92.8186    0.0000 </r>
       <r>   94.5025    0.0000 </r>
       <r>   96.2803    0.0000 </r>
       <r>   97.1023    0.0000 </r>
       <r>  100.5475    0.0000 </r>
       <r>  102.1982    0.0000 </r>
       <r>  104.0964    0.0000 </r>
      </set>
      <set comment="kpoint 23">
       <r>    0.0628    1.0000 </r>
       <r>   13.8166    0.0000 </r>
       <r>   14.6238    0.0000 </r>
       <r>   14.7474    0.0000 </r>
       <r>   14.7474    0.0000 </r>
       <r>   18.2435    0.0000 </r>
       <r>   30.2099    0.0000 </r>
       <r>   31.3260    0.0000 </r>
       <r>   31.3260    0.0000 </r>
       <r>   35.8318    0.0000 </r>
       <r>   36.7673    0.0000 </r>
       <r>   37.2295    0.0000 </r>
       <r>   37.2295    0.0000 </r>
       <r>   41.8422    0.0000 </r>
       <r>   46.3392    0.0000 </r>
       <r>   46.9924    0.0000 </r>
       <r>   46.9924    0.0000 </r>
       <r>   52.9558    0.0000 </r>
       <r>   54.1217    0.0000 </r>
       <r>   56.3520    0.0000 </r>
       <r>   56.7658    0.0000 </r>
       <r>   56.7658    0.0000 </r>
       <r>   58.8677    0.0000 </r>
       <r>   60.5368    0.0000 </r>
       <r>   63.2601    0.0000 </r>
       <r>   63.2601    0.0000 </r>
       <r>   65.2901    0.0000 </r>
       <r>   66.7602    0.0000 </r>
       <r>   72.6412    0.0000 </r>
       <r>   72.6412    0.0000 </r>
       <r>   76.9469    0.0000 </r>
       <r>   77.6978    0.0000 </r>
       <r>   79.7742    0.0000 </r>
       <r>   80.5545    0.0000 </r>
       <r>   80.5545    0.0000 </r>
       <r>   85.1744    0.0000 </r>
       <r>   85.1744    0.0000 </r>
       <r>   87.3406    0.0000 </r>
       <r>   87.6910    0.0000 </r>
       <r>   89.3106    0.0000 </r>
       <r>   89.3253    0.0000 </r>
       <r>   89.3253    0.0000 </r>
       <r>   89.8359    0.0000 </r>
       <r>   90.4246    0.0000 </r>
       <r>   96.5204    0.0000 </r>
       <r>   96.5204    0.0000 </r>
       <r>  100.4974    0.0000 </r>
       <r>  104.3742    0.0000 </r>
      </set>
      <set comment="kpoint 24">
       <r>    1.3790    1.0000 </r>
       <r>   11.3852   -0.0034 </r>
       <r>   11.8170    0.0000 </r>
       <r>   14.3647    0.0000 </r>
       <r>   15.6710    0.0000 </r>
       <r>   19.2264    0.0000 </r>
       <r>   29.4964    0.0000 </r>
       <r>   31.7233    0.0000 </r>
       <r>   33.5227    0.0000 </r>
       <r>   35.2667    0.0000 </r>
       <r>   39.6860    0.0000 </r>
       <r>   40.1054    0.0000 </r>
       <r>   41.8599    0.0000 </r>
       <r>   42.3106    0.0000 </r>
       <r>   43.4470    0.0000 </r>
       <r>   45.0009    0.0000 </r>
       <r>   47.8168    0.0000 </r>
       <r>   52.4990    0.0000 </r>
       <r>   54.3084    0.0000 </r>
       <r>   55.9233    0.0000 </r>
       <r>   56.7037    0.0000 </r>
       <r>   56.9517    0.0000 </r>
       <r>   58.4462    0.0000 </r>
       <r>   59.7780    0.0000 </r>
       <r>   59.9536    0.0000 </r>
       <r>   60.3707    0.0000 </r>
       <r>   64.5466    0.0000 </r>
       <r>   65.6530    0.0000 </r>
       <r>   70.3190    0.0000 </r>
       <r>   72.4204    0.0000 </r>
       <r>   76.1733    0.0000 </r>
       <r>   76.2079    0.0000 </r>
       <r>   79.4075    0.0000 </r>
       <r>   80.3282    0.0000 </r>
       <r>   81.6543    0.0000 </r>
       <r>   82.7633    0.0000 </r>
       <r>   83.7244    0.0000 </r>
       <r>   84.3168    0.0000 </r>
       <r>   87.2296    0.0000 </r>
       <r>   88.0460    0.0000 </r>
       <r>   89.5473    0.0000 </r>
       <r>   92.9673    0.0000 </r>
       <r>   94.4795    0.0000 </r>
       <r>   95.2149    0.0000 </r>
       <r>   97.1331    0.0000 </r>
       <r>   98.4669    0.0000 </r>
       <r>   99.8182    0.0000 </r>
       <r>  103.9889    0.0000 </r>
      </set>
      <set comment="kpoint 25">
       <r>    3.1942    1.0000 </r>
       <r>    8.2802    0.3681 </r>
       <r>   10.2133    0.0000 </r>
       <r>   14.4454    0.0000 </r>
       <r>   16.0332    0.0000 </r>
       <r>   22.0699    0.0000 </r>
       <r>   28.3030    0.0000 </r>
       <r>   30.9065    0.0000 </r>
       <r>   33.4251    0.0000 </r>
       <r>   34.8529    0.0000 </r>
       <r>   40.2672    0.0000 </r>
       <r>   41.1435    0.0000 </r>
       <r>   43.4083    0.0000 </r>
       <r>   44.3104    0.0000 </r>
       <r>   45.7052    0.0000 </r>
       <r>   48.0581    0.0000 </r>
       <r>   49.2682    0.0000 </r>
       <r>   50.7715    0.0000 </r>
       <r>   53.5082    0.0000 </r>
[...]
       <set comment="band 2">
        <r>  0.0000  0.0000  0.0000  0.2091  0.0000  0.0000  0.0000  0.0000  0.0000 </r>
       </set>
       <set comment="band 3">
        <r>  0.1184  0.1157  0.0004  0.0000  0.0000  0.0000  0.0000  0.0000  0.0000 </r>
       </set>
       <set comment="band 4">
        <r>  0.2103  0.0031  0.1319  0.0000  0.0000  0.0000  0.0000  0.0000  0.0000 </r>
       </set>
       <set comment="band 5">
        <r>  0.0000  0.0000  0.0000  0.1163  0.0000  0.0000  0.0000  0.0000  0.0000 </r>
       </set>
       <set comment="band 6">
        <r>  0.0261  0.3084  0.0296  0.0000  0.0000  0.0000  0.0000  0.0000  0.0000 </r>
       </set>
       <set comment="band 7">
        <r>  0.0799  0.0042  0.0114  0.0000  0.0000  0.0000  0.0000  0.0000  0.0000 </r>
       </set>
       <set comment="band 8">
        <r>  0.0083  0.0423  0.0740  0.0000  0.0000  0.0000  0.0000  0.0000  0.0000 </r>
       </set>
       <set comment="band 9">
        <r>  0.0000  0.0000  0.0000  0.0759  0.0000  0.0000  0.0000  0.0000  0.0000 </r>
       </set>
       <set comment="band 10">
        <r>  0.0038  0.0060  0.0200  0.0000  0.0000  0.0000  0.0000  0.0000  0.0000 </r>
       </set>
       <set comment="band 11">
        <r>  0.0000  0.0000  0.0000  0.0165  0.0000  0.0000  0.0000  0.0000  0.0000 </r>
       </set>
       <set comment="band 12">
        <r>  0.1015  0.0219  0.0384  0.0000  0.0000  0.0000  0.0000  0.0000  0.0000 </r>
       </set>
       <set comment="band 13">
        <r>  0.0000  0.0000  0.0000  0.1807  0.0000  0.0000  0.0000  0.0000  0.0000 </r>
       </set>
       <set comment="band 14">
        <r>  0.0028  0.0158  0.1255  0.0000  0.0000  0.0000  0.0000  0.0000  0.0000 </r>
       </set>
       <set comment="band 15">
        <r>  0.1833  0.0020  0.0064  0.0000  0.0000  0.0000  0.0000  0.0000  0.0000 </r>
       </set>
       <set comment="band 16">
        <r>  0.0000  0.0000  0.0000  0.0157  0.0000  0.0000  0.0000  0.0000  0.0000 </r>
       </set>
       <set comment="band 17">
        <r>  0.2962  0.0974  0.4587  0.0000  0.0000  0.0000  0.0000  0.0000  0.0000 </r>
       </set>
       <set comment="band 18">
        <r>  0.0000  0.0000  0.0000  0.0518  0.0000  0.0000  0.0000  0.0000  0.0000 </r>
       </set>
       <set comment="band 19">
        <r>  1.2820  0.0556  0.1434  0.0000  0.0000  0.0000  0.0000  0.0000  0.0000 </r>
       </set>
       <set comment="band 20">
        <r>  0.0000  0.0000  0.0000  1.9321  0.0000  0.0000  0.0000  0.0000  0.0000 </r>
       </set>
       <set comment="band 21">
        <r>  0.2192  2.3797  0.2526  0.0000  0.0000  0.0000  0.0000  0.0000  0.0000 </r>
       </set>
       <set comment="band 22">
        <r>  7.7264  0.3673  0.0241  0.0000  0.0000  0.0000  0.0000  0.0000  0.0000 </r>
       </set>
       <set comment="band 23">
        <r>  0.2182  0.2481  3.5717  0.0000  0.0000  0.0000  0.0000  0.0000  0.0000 </r>
       </set>
       <set comment="band 24">
        <r>  0.0000  0.0000  0.0000  2.8662  0.0000  0.0000  0.0000  0.0000  0.0000 </r>
       </set>
       <set comment="band 25">
        <r>  0.0001  0.7347  0.2718  0.0000  0.0000  0.0000  0.0000  0.0000  0.0000 </r>
       </set>
       <set comment="band 26">
        <r>  0.0340  0.1078  0.0066  0.0000  0.0000  0.0000  0.0000  0.0000  0.0000 </r>
       </set>
       <set comment="band 27">
        <r>  0.0000  0.0000  0.0000  0.0112  0.0000  0.0000  0.0000  0.0000  0.0000 </r>
       </set>
       <set comment="band 28">
        <r>  0.5556  0.6300  0.0022  0.0000  0.0000  0.0000  0.0000  0.0000  0.0000 </r>
       </set>
       <set comment="band 29">
        <r>  0.0046  0.5963  0.0451  0.0000  0.0000  0.0000  0.0000  0.0000  0.0000 </r>
       </set>
       <set comment="band 30">
        <r>  0.0000  0.0000  0.0000  0.2068  0.0000  0.0000  0.0000  0.0000  0.0000 </r>
       </set>
       <set comment="band 31">
        <r>  0.0000  0.0000  0.0000  0.1020  0.0000  0.0000  0.0000  0.0000  0.0000 </r>
       </set>
       <set comment="band 32">
        <r>  0.0613  0.0314  0.5767  0.0000  0.0000  0.0000  0.0000  0.0000  0.0000 </r>
       </set>
       <set comment="band 33">
        <r>  0.3996  0.0845  0.0937  0.0000  0.0000  0.0000  0.0000  0.0000  0.0000 </r>
       </set>
       <set comment="band 34">
        <r>  0.3251  0.0006  0.0866  0.0000  0.0000  0.0000  0.0000  0.0000  0.0000 </r>
       </set>
       <set comment="band 35">
        <r>  0.0000  0.0000  0.0000  0.0112  0.0000  0.0000  0.0000  0.0000  0.0000 </r>
       </set>
       <set comment="band 36">
        <r>  0.0000  0.0000  0.0000  0.2980  0.0000  0.0000  0.0000  0.0000  0.0000 </r>
       </set>
       <set comment="band 37">
        <r>  0.0003  0.1200  0.0240  0.0000  0.0000  0.0000  0.0000  0.0000  0.0000 </r>
       </set>
       <set comment="band 38">
        <r>  0.0554  0.1150  0.0601  0.0000  0.0000  0.0000  0.0000  0.0000  0.0000 </r>
       </set>
       <set comment="band 39">
        <r>  0.0000  0.0000  0.0000  0.0101  0.0000  0.0000  0.0000  0.0000  0.0000 </r>
       </set>
       <set comment="band 40">
        <r>  0.0351  0.0050  0.0080  0.0000  0.0000  0.0000  0.0000  0.0000  0.0000 </r>
       </set>
       <set comment="band 41">
        <r>  0.0046  0.0034  0.0067  0.0000  0.0000  0.0000  0.0000  0.0000  0.0000 </r>
       </set>
       <set comment="band 42">
        <r>  0.0000  0.0000  0.0000  0.0129  0.0000  0.0000  0.0000  0.0000  0.0000 </r>
       </set>
       <set comment="band 43">
        <r>  0.1357  0.0069  0.0004  0.0000  0.0000  0.0000  0.0000  0.0000  0.0000 </r>
       </set>
       <set comment="band 44">
        <r>  0.0000  0.0000  0.0000  0.0204  0.0000  0.0000  0.0000  0.0000  0.0000 </r>
       </set>
       <set comment="band 45">
        <r>  0.0000  0.0000  0.0000  0.2272  0.0000  0.0000  0.0000  0.0000  0.0000 </r>
       </set>
       <set comment="band 46">
        <r>  0.0289  0.1494  0.0136  0.0000  0.0000  0.0000  0.0000  0.0000  0.0000 </r>
       </set>
       <set comment="band 47">
        <r>  0.0070  0.0264  0.1894  0.0000  0.0000  0.0000  0.0000  0.0000  0.0000 </r>
       </set>
       <set comment="band 48">
        <r>  0.0122  0.0152  0.0029  0.0000  0.0000  0.0000  0.0000  0.0000  0.0000 </r>
       </set>
      </set>
      <set comment="kpoint 46">
       <set comment="band 1">
        <r>  0.0000  0.0507  0.0749  0.0749  0.0000  0.0000  0.0000  0.0000  0.0000 </r>
       </set>
       <set comment="band 2">
        <r>  0.1547  0.0000  0.0639  0.0639  0.0000  0.0000  0.0000  0.0000  0.0000 </r>
       </set>
       <set comment="band 3">
        <r>  0.0000  0.0852  0.0355  0.0355  0.0000  0.0000  0.0000  0.0000  0.0000 </r>
       </set>
       <set comment="band 4">
        <r>  0.3128  0.0000  0.0490  0.0490  0.0000  0.0000  0.0000  0.0000  0.0000 </r>
       </set>
       <set comment="band 5">
        <r>  0.0000  0.1829  0.0341  0.0341  0.0000  0.0000  0.0000  0.0000  0.0000 </r>
       </set>
       <set comment="band 6">
        <r>  0.0412  0.0000  0.0282  0.0282  0.0000  0.0000  0.0000  0.0000  0.0000 </r>
       </set>
       <set comment="band 7">
        <r>  0.0000  0.1962  0.0180  0.0180  0.0000  0.0000  0.0000  0.0000  0.0000 </r>
       </set>
       <set comment="band 8">
        <r>  0.0719  0.0000  0.0306  0.0306  0.0000  0.0000  0.0000  0.0000  0.0000 </r>
       </set>
       <set comment="band 9">
        <r>  0.0047  0.0000  0.0223  0.0223  0.0000  0.0000  0.0000  0.0000  0.0000 </r>
       </set>
       <set comment="band 10">
        <r>  0.0000  0.0018  0.0081  0.0081  0.0000  0.0000  0.0000  0.0000  0.0000 </r>
       </set>
       <set comment="band 11">
        <r>  0.0961  0.0000  0.0301  0.0301  0.0000  0.0000  0.0000  0.0000  0.0000 </r>
       </set>
       <set comment="band 12">
        <r>  0.0000  0.0002  0.0540  0.0540  0.0000  0.0000  0.0000  0.0000  0.0000 </r>
       </set>
       <set comment="band 13">
        <r>  0.0000  0.0031  0.0497  0.0497  0.0000  0.0000  0.0000  0.0000  0.0000 </r>
       </set>
       <set comment="band 14">
        <r>  0.0232  0.0000  0.0033  0.0033  0.0000  0.0000  0.0000  0.0000  0.0000 </r>
       </set>
       <set comment="band 15">
        <r>  0.1064  0.0000  0.0750  0.0750  0.0000  0.0000  0.0000  0.0000  0.0000 </r>
       </set>
       <set comment="band 16">
        <r>  0.0000  0.0114  0.0236  0.0236  0.0000  0.0000  0.0000  0.0000  0.0000 </r>
       </set>
       <set comment="band 17">
        <r>  0.0000  0.1686  0.2092  0.2092  0.0000  0.0000  0.0000  0.0000  0.0000 </r>
       </set>
       <set comment="band 18">
        <r>  0.5914  0.0000  0.3640  0.3640  0.0000  0.0000  0.0000  0.0000  0.0000 </r>
       </set>
       <set comment="band 19">
        <r>  0.0000  2.7423  0.0959  0.0959  0.0000  0.0000  0.0000  0.0000  0.0000 </r>
       </set>
       <set comment="band 20">
        <r>  8.8331  0.0000  0.0875  0.0875  0.0000  0.0000  0.0000  0.0000  0.0000 </r>
       </set>
       <set comment="band 21">
        <r>  0.0249  0.0000  0.4608  0.4608  0.0000  0.0000  0.0000  0.0000  0.0000 </r>
       </set>
       <set comment="band 22">
        <r>  0.0000  0.0662  1.1396  1.1396  0.0000  0.0000  0.0000  0.0000  0.0000 </r>
       </set>
       <set comment="band 23">
        <r>  0.0000  0.2552  0.1260  0.1260  0.0000  0.0000  0.0000  0.0000  0.0000 </r>
       </set>
       <set comment="band 24">
        <r>  0.3752  0.0000  0.0130  0.0130  0.0000  0.0000  0.0000  0.0000  0.0000 </r>
       </set>
       <set comment="band 25">
        <r>  0.1590  0.0000  1.4954  1.4954  0.0000  0.0000  0.0000  0.0000  0.0000 </r>
       </set>
       <set comment="band 26">
        <r>  0.0000  0.1264  0.7106  0.7106  0.0000  0.0000  0.0000  0.0000  0.0000 </r>
       </set>
       <set comment="band 27">
        <r>  0.0054  0.0000  0.0279  0.0279  0.0000  0.0000  0.0000  0.0000  0.0000 </r>
       </set>
       <set comment="band 28">
        <r>  0.0000  1.1359  0.0709  0.0709  0.0000  0.0000  0.0000  0.0000  0.0000 </r>
       </set>
       <set comment="band 29">
        <r>  0.0000  0.0270  0.1211  0.1211  0.0000  0.0000  0.0000  0.0000  0.0000 </r>
       </set>
       <set comment="band 30">
        <r>  0.0000  0.8296  0.0958  0.0958  0.0000  0.0000  0.0000  0.0000  0.0000 </r>
       </set>
       <set comment="band 31">
        <r>  0.2737  0.0000  0.0641  0.0641  0.0000  0.0000  0.0000  0.0000  0.0000 </r>
       </set>
       <set comment="band 32">
        <r>  0.0000  0.0262  0.1038  0.1038  0.0000  0.0000  0.0000  0.0000  0.0000 </r>
       </set>
       <set comment="band 33">
        <r>  0.2190  0.0000  0.1420  0.1420  0.0000  0.0000  0.0000  0.0000  0.0000 </r>
       </set>
       <set comment="band 34">
        <r>  0.6822  0.0000  0.0030  0.0030  0.0000  0.0000  0.0000  0.0000  0.0000 </r>
       </set>
       <set comment="band 35">
        <r>  0.0000  0.0715  0.0069  0.0069  0.0000  0.0000  0.0000  0.0000  0.0000 </r>
       </set>
       <set comment="band 36">
        <r>  0.0533  0.0000  0.0402  0.0402  0.0000  0.0000  0.0000  0.0000  0.0000 </r>
       </set>
       <set comment="band 37">
        <r>  0.0882  0.0000  0.0582  0.0582  0.0000  0.0000  0.0000  0.0000  0.0000 </r>
       </set>
       <set comment="band 38">
        <r>  0.0000  0.0415  0.1077  0.1077  0.0000  0.0000  0.0000  0.0000  0.0000 </r>
       </set>
       <set comment="band 39">
        <r>  0.0114  0.0000  0.0066  0.0066  0.0000  0.0000  0.0000  0.0000  0.0000 </r>
       </set>
       <set comment="band 40">
        <r>  0.0000  0.0451  0.0108  0.0108  0.0000  0.0000  0.0000  0.0000  0.0000 </r>
       </set>
       <set comment="band 41">
        <r>  0.0203  0.0000  0.0287  0.0287  0.0000  0.0000  0.0000  0.0000  0.0000 </r>
       </set>
       <set comment="band 42">
        <r>  0.0000  0.0001  0.0475  0.0475  0.0000  0.0000  0.0000  0.0000  0.0000 </r>
       </set>
       <set comment="band 43">
        <r>  0.0152  0.0000  0.0145  0.0145  0.0000  0.0000  0.0000  0.0000  0.0000 </r>
       </set>
       <set comment="band 44">
        <r>  0.0000  0.1669  0.0000  0.0000  0.0000  0.0000  0.0000  0.0000  0.0000 </r>
       </set>
       <set comment="band 45">
        <r>  0.0000  0.0519  0.0091  0.0091  0.0000  0.0000  0.0000  0.0000  0.0000 </r>
       </set>
       <set comment="band 46">
        <r>  0.0389  0.0000  0.0036  0.0036  0.0000  0.0000  0.0000  0.0000  0.0000 </r>
       </set>
       <set comment="band 47">
        <r>  0.0637  0.0000  0.0029  0.0029  0.0000  0.0000  0.0000  0.0000  0.0000 </r>
       </set>
       <set comment="band 48">
        <r>  0.0000  0.0652  0.0017  0.0017  0.0000  0.0000  0.0000  0.0000  0.0000 </r>
       </set>
      </set>
      <set comment="kpoint 47">
       <set comment="band 1">
        <r>  0.0000  0.0000  0.2292  0.0000  0.0000  0.0000  0.0000  0.0000  0.0000 </r>
       </set>
       <set comment="band 2">
        <r>  0.1472  0.0747  0.0000  0.0000  0.0000  0.0000  0.0000  0.0000  0.0000 </r>
       </set>
       <set comment="band 3">
        <r>  0.0000  0.0000  0.0000  0.2120  0.0000  0.0000  0.0000  0.0000  0.0000 </r>
       </set>
       <set comment="band 4">
        <r>  0.3202  0.0679  0.0000  0.0000  0.0000  0.0000  0.0000  0.0000  0.0000 </r>
       </set>
       <set comment="band 5">
        <r>  0.0000  0.0000  0.0000  0.1210  0.0000  0.0000  0.0000  0.0000  0.0000 </r>
       </set>
       <set comment="band 6">
        <r>  0.0663  0.2660  0.0000  0.0000  0.0000  0.0000  0.0000  0.0000  0.0000 </r>
       </set>
       <set comment="band 7">
        <r>  0.0000  0.0000  0.0892  0.0000  0.0000  0.0000  0.0000  0.0000  0.0000 </r>
       </set>
       <set comment="band 8">
        <r>  0.0614  0.1027  0.0000  0.0000  0.0000  0.0000  0.0000  0.0000  0.0000 </r>
       </set>
       <set comment="band 9">
        <r>  0.0000  0.0000  0.0000  0.0000  0.0000  0.0000  0.0000  0.0000  0.0000 </r>
       </set>
       <set comment="band 10">
        <r>  0.0070  0.0001  0.0000  0.0000  0.0000  0.0000  0.0000  0.0000  0.0000 </r>
       </set>
       <set comment="band 11">
        <r>  0.0000  0.0000  0.0000  0.2096  0.0000  0.0000  0.0000  0.0000  0.0000 </r>
       </set>
       <set comment="band 12">
        <r>  0.0000  0.0000  0.1603  0.0000  0.0000  0.0000  0.0000  0.0000  0.0000 </r>
       </set>
       <set comment="band 13">
        <r>  0.0000  0.0000  0.0283  0.0000  0.0000  0.0000  0.0000  0.0000  0.0000 </r>
       </set>
       <set comment="band 14">
        <r>  0.2046  0.0209  0.0000  0.0000  0.0000  0.0000  0.0000  0.0000  0.0000 </r>
       </set>
       <set comment="band 15">
        <r>  0.0000  0.0000  0.0000  0.0679  0.0000  0.0000  0.0000  0.0000  0.0000 </r>
       </set>
       <set comment="band 16">
        <r>  0.0000  0.0000  0.0000  0.0000  0.0000  0.0000  0.0000  0.0000  0.0000 </r>
       </set>
       <set comment="band 17">
        <r>  0.0000  0.0000  0.7135  0.0000  0.0000  0.0000  0.0000  0.0000  0.0000 </r>
       </set>
       <set comment="band 18">
        <r>  0.0000  0.0000  0.0000  0.8311  0.0000  0.0000  0.0000  0.0000  0.0000 </r>
       </set>
       <set comment="band 19">
        <r>  2.9597  1.7055  0.0000  0.0000  0.0000  0.0000  0.0000  0.0000  0.0000 </r>
       </set>
       <set comment="band 20">
        <r>  5.1952  0.8405  0.0000  0.0000  0.0000  0.0000  0.0000  0.0000  0.0000 </r>
       </set>
       <set comment="band 21">
        <r>  1.5506  0.4160  0.0000  0.0000  0.0000  0.0000  0.0000  0.0000  0.0000 </r>
       </set>
       <set comment="band 22">
        <r>  0.0000  0.0000  0.0000  2.6804  0.0000  0.0000  0.0000  0.0000  0.0000 </r>
       </set>
       <set comment="band 23">
        <r>  0.0000  0.0000  0.0000  0.0000  0.0000  0.0000  0.0000  0.0000  0.0000 </r>
       </set>
       <set comment="band 24">
        <r>  0.0000  0.0000  3.1012  0.0000  0.0000  0.0000  0.0000  0.0000  0.0000 </r>
       </set>
       <set comment="band 25">
        <r>  0.0000  0.0000  0.8119  0.0000  0.0000  0.0000  0.0000  0.0000  0.0000 </r>
       </set>
       <set comment="band 26">
        <r>  0.3283  1.1462  0.0000  0.0000  0.0000  0.0000  0.0000  0.0000  0.0000 </r>
       </set>
       <set comment="band 27">
        <r>  0.0000  0.0000  0.0000  1.5799  0.0000  0.0000  0.0000  0.0000  0.0000 </r>
       </set>
       <set comment="band 28">
        <r>  0.0000  0.0000  0.0000  0.0000  0.0000  0.0000  0.0000  0.0000  0.0000 </r>
       </set>
       <set comment="band 29">
        <r>  0.0000  0.0000  0.7293  0.0000  0.0000  0.0000  0.0000  0.0000  0.0000 </r>
       </set>
       <set comment="band 30">
        <r>  0.1016  1.1637  0.0000  0.0000  0.0000  0.0000  0.0000  0.0000  0.0000 </r>
       </set>
       <set comment="band 31">
        <r>  0.0000  0.0000  0.0000  0.0892  0.0000  0.0000  0.0000  0.0000  0.0000 </r>
       </set>
       <set comment="band 32">
        <r>  0.6411  0.0063  0.0000  0.0000  0.0000  0.0000  0.0000  0.0000  0.0000 </r>
       </set>
       <set comment="band 33">
        <r>  0.1195  0.1135  0.0000  0.0000  0.0000  0.0000  0.0000  0.0000  0.0000 </r>
       </set>
       <set comment="band 34">
        <r>  0.0000  0.0000  0.2274  0.0000  0.0000  0.0000  0.0000  0.0000  0.0000 </r>
       </set>
       <set comment="band 35">
        <r>  0.0000  0.0000  0.0000  0.0220  0.0000  0.0000  0.0000  0.0000  0.0000 </r>
       </set>
       <set comment="band 36">
        <r>  0.3745  0.0708  0.0000  0.0000  0.0000  0.0000  0.0000  0.0000  0.0000 </r>
       </set>
       <set comment="band 37">
        <r>  0.0000  0.0000  0.0000  0.4456  0.0000  0.0000  0.0000  0.0000  0.0000 </r>
       </set>
       <set comment="band 38">
        <r>  0.0000  0.0000  0.0548  0.0000  0.0000  0.0000  0.0000  0.0000  0.0000 </r>
       </set>
       <set comment="band 39">
        <r>  0.0000  0.0000  0.0000  0.0000  0.0000  0.0000  0.0000  0.0000  0.0000 </r>
       </set>
       <set comment="band 40">
        <r>  0.0067  0.0435  0.0000  0.0000  0.0000  0.0000  0.0000  0.0000  0.0000 </r>
       </set>
       <set comment="band 41">
        <r>  0.0000  0.0000  0.0000  0.0190  0.0000  0.0000  0.0000  0.0000  0.0000 </r>
       </set>
       <set comment="band 42">
        <r>  0.0000  0.0000  0.1633  0.0000  0.0000  0.0000  0.0000  0.0000  0.0000 </r>
       </set>
       <set comment="band 43">
        <r>  0.0547  0.1709  0.0000  0.0000  0.0000  0.0000  0.0000  0.0000  0.0000 </r>
       </set>
       <set comment="band 44">
        <r>  0.0000  0.0000  0.0000  0.0000  0.0000  0.0000  0.0000  0.0000  0.0000 </r>
       </set>
       <set comment="band 45">
        <r>  0.0044  0.0471  0.0000  0.0000  0.0000  0.0000  0.0000  0.0000  0.0000 </r>
       </set>
       <set comment="band 46">
        <r>  0.0000  0.0000  0.0061  0.0000  0.0000  0.0000  0.0000  0.0000  0.0000 </r>
       </set>
       <set comment="band 47">
        <r>  0.0000  0.0000  0.0000  0.0298  0.0000  0.0000  0.0000  0.0000  0.0000 </r>
       </set>
       <set comment="band 48">
        <r>  0.1953  0.0001  0.0000  0.0000  0.0000  0.0000  0.0000  0.0000  0.0000 </r>
       </set>
      </set>
     </set>
    </set>
   </array>
  </projected>
 </calculation>
 <structure name="finalpos" >
  <crystal>
   <varray name="basis" >
    <v>       0.00000000       2.02400000       2.02400000 </v>
    <v>       2.02400000       0.00000000       2.02400000 </v>
    <v>       2.02400000       2.02400000       0.00000000 </v>
   </varray>
   <i name="volume">     16.58293965 </i>
   <varray name="rec_basis" >
    <v>      -0.24703557       0.24703557       0.24703557 </v>
    <v>       0.24703557      -0.24703557       0.24703557 </v>
    <v>       0.24703557       0.24703557      -0.24703557 </v>
   </varray>
  </crystal>
  <varray name="positions" >
   <v>       0.00000000       0.00000000       0.00000000 </v>
  </varray>
 </structure>
</modeling>
