   1   1   1   0
  0.1658294E+02  0.2862368E-09  0.2862368E-09  0.2862368E-09  0.5000000E-15
   1.0000000000000000E-004
  CAR 
 unknown system                          
    117.40133946     -8.89347824  301      7.97227071      1.00000000
     -8.893  0.0000E+00  0.0000E+00  0.0000E+00  0.0000E+00
     -8.472  0.0000E+00  0.0000E+00  0.0000E+00  0.0000E+00
     -8.052  0.0000E+00  0.0000E+00  0.0000E+00  0.0000E+00
     -7.631  0.0000E+00  0.0000E+00  0.0000E+00  0.0000E+00
     -7.210  0.0000E+00  0.0000E+00  0.0000E+00  0.0000E+00
     -6.789  0.0000E+00  0.0000E+00  0.0000E+00  0.0000E+00
     -6.368  0.0000E+00  0.0000E+00  0.0000E+00  0.0000E+00
     -5.947  0.0000E+00  0.0000E+00  0.0000E+00  0.0000E+00
     -5.526  0.0000E+00  0.0000E+00  0.0000E+00  0.0000E+00
     -5.105  0.0000E+00  0.0000E+00  0.0000E+00  0.0000E+00
     -4.684  0.0000E+00  0.0000E+00  0.0000E+00  0.0000E+00
     -4.263  0.0000E+00  0.0000E+00  0.0000E+00  0.0000E+00
     -3.842  0.0000E+00  0.0000E+00  0.0000E+00  0.0000E+00
     -3.421  0.0000E+00  0.0000E+00  0.0000E+00  0.0000E+00
     -3.000  0.2103E-01  0.2114E-01  0.1683E-02  0.1707E-02
     -2.579  0.5455E-01  0.5459E-01  0.1559E-01  0.1565E-01
     -2.158  0.5733E-01  0.5736E-01  0.3685E-01  0.3692E-01
     -1.737  0.6968E-01  0.7132E-01  0.6348E-01  0.6356E-01
     -1.316  0.7893E-01  0.7896E-01  0.9465E-01  0.9475E-01
     -0.895  0.8793E-01  0.8796E-01  0.1299E+00  0.1300E+00
     -0.474  0.9671E-01  0.9674E-01  0.1687E+00  0.1689E+00
     -0.053  0.1040E+00  0.1040E+00  0.2110E+00  0.2111E+00
      0.368  0.1119E+00  0.1119E+00  0.2564E+00  0.2566E+00
      0.789  0.1184E+00  0.1184E+00  0.3049E+00  0.3050E+00
      1.210  0.1254E+00  0.1255E+00  0.3562E+00  0.3564E+00
      1.631  0.1317E+00  0.1318E+00  0.4104E+00  0.4105E+00
      2.052  0.1382E+00  0.1382E+00  0.4672E+00  0.4673E+00
      2.473  0.1448E+00  0.1448E+00  0.5268E+00  0.5269E+00
      2.894  0.1554E+00  0.1554E+00  0.5895E+00  0.5897E+00
      3.315  0.1685E+00  0.1685E+00  0.6587E+00  0.6589E+00
      3.736  0.1509E+00  0.1509E+00  0.7252E+00  0.7253E+00
      4.157  0.1648E+00  0.1648E+00  0.7921E+00  0.7923E+00
      4.578  0.1814E+00  0.1814E+00  0.8636E+00  0.8638E+00
      4.999  0.1921E+00  0.1922E+00  0.9436E+00  0.9438E+00
      5.420  0.1900E+00  0.1899E+00  0.1025E+01  0.1025E+01
      5.841  0.1732E+00  0.1732E+00  0.1101E+01  0.1101E+01
      6.262  0.1790E+00  0.1790E+00  0.1172E+01  0.1172E+01
      6.683  0.1861E+00  0.1862E+00  0.1247E+01  0.1247E+01
      7.104  0.2079E+00  0.2079E+00  0.1330E+01  0.1330E+01
      7.525  0.1985E+00  0.1982E+00  0.1417E+01  0.1417E+01
      7.946  0.1908E+00  0.1908E+00  0.1495E+01  0.1495E+01
      8.367  0.2106E+00  0.2106E+00  0.1579E+01  0.1580E+01
      8.788  0.2180E+00  0.2180E+00  0.1668E+01  0.1669E+01
      9.209  0.2118E+00  0.2119E+00  0.1760E+01  0.1760E+01
      9.630  0.2182E+00  0.2183E+00  0.1851E+01  0.1851E+01
     10.051  0.2194E+00  0.2194E+00  0.1943E+01  0.1943E+01
     10.472  0.2340E+00  0.2340E+00  0.2039E+01  0.2039E+01
     10.893  0.2336E+00  0.2336E+00  0.2137E+01  0.2137E+01
     11.314  0.2379E+00  0.2380E+00  0.2235E+01  0.2236E+01
     11.735  0.2471E+00  0.2471E+00  0.2338E+01  0.2338E+01
     12.156  0.2501E+00  0.2502E+00  0.2442E+01  0.2442E+01
     12.577  0.2567E+00  0.2567E+00  0.2549E+01  0.2550E+01
     12.998  0.2716E+00  0.2716E+00  0.2660E+01  0.2660E+01
     13.419  0.2977E+00  0.2979E+00  0.2779E+01  0.2779E+01
     13.840  0.2948E+00  0.2946E+00  0.2906E+01  0.2907E+01
     14.261  0.2793E+00  0.2792E+00  0.3026E+01  0.3027E+01
     14.682  0.2724E+00  0.2724E+00  0.3142E+01  0.3143E+01
     15.103  0.2629E+00  0.2628E+00  0.3255E+01  0.3255E+01
     15.524  0.2656E+00  0.2657E+00  0.3365E+01  0.3365E+01
     15.945  0.2654E+00  0.2654E+00  0.3477E+01  0.3477E+01
     16.365  0.2638E+00  0.2639E+00  0.3588E+01  0.3588E+01
     16.786  0.2645E+00  0.2645E+00  0.3700E+01  0.3700E+01
     17.207  0.2658E+00  0.2659E+00  0.3811E+01  0.3811E+01
     17.628  0.2781E+00  0.2782E+00  0.3925E+01  0.3926E+01
     18.049  0.2783E+00  0.2783E+00  0.4042E+01  0.4043E+01
     18.470  0.2853E+00  0.2854E+00  0.4160E+01  0.4161E+01
     18.891  0.3152E+00  0.3154E+00  0.4285E+01  0.4286E+01
     19.312  0.3259E+00  0.3261E+00  0.4421E+01  0.4421E+01
     19.733  0.3681E+00  0.3683E+00  0.4566E+01  0.4567E+01
     20.154  0.3586E+00  0.3581E+00  0.4727E+01  0.4728E+01
     20.575  0.3370E+00  0.3372E+00  0.4865E+01  0.4866E+01
     20.996  0.2889E+00  0.2889E+00  0.4997E+01  0.4997E+01
     21.417  0.3151E+00  0.3151E+00  0.5121E+01  0.5122E+01
     21.838  0.2746E+00  0.2749E+00  0.5242E+01  0.5242E+01
     22.259  0.2824E+00  0.2830E+00  0.5355E+01  0.5356E+01
     22.680  0.3982E+00  0.3971E+00  0.5507E+01  0.5508E+01
     23.101  0.3990E+00  0.3989E+00  0.5664E+01  0.5665E+01
     23.522  0.3084E+00  0.3077E+00  0.5817E+01  0.5818E+01
     23.943  0.3092E+00  0.3095E+00  0.5942E+01  0.5942E+01
     24.364  0.3283E+00  0.3277E+00  0.6079E+01  0.6080E+01
     24.785  0.3886E+00  0.3893E+00  0.6226E+01  0.6227E+01
     25.206  0.3729E+00  0.3735E+00  0.6383E+01  0.6385E+01
     25.627  0.3942E+00  0.3944E+00  0.6547E+01  0.6548E+01
     26.048  0.3784E+00  0.3784E+00  0.6708E+01  0.6709E+01
     26.469  0.3753E+00  0.3750E+00  0.6868E+01  0.6869E+01
     26.890  0.3795E+00  0.3784E+00  0.7023E+01  0.7024E+01
     27.311  0.3439E+00  0.3434E+00  0.7172E+01  0.7173E+01
     27.732  0.3105E+00  0.3109E+00  0.7307E+01  0.7308E+01
     28.153  0.3705E+00  0.3714E+00  0.7449E+01  0.7450E+01
     28.574  0.4276E+00  0.4278E+00  0.7622E+01  0.7623E+01
     28.995  0.4338E+00  0.4342E+00  0.7800E+01  0.7802E+01
     29.416  0.3761E+00  0.3763E+00  0.7959E+01  0.7960E+01
     29.837  0.4613E+00  0.4610E+00  0.8129E+01  0.8130E+01
     30.258  0.3995E+00  0.3995E+00  0.8308E+01  0.8309E+01
     30.679  0.3740E+00  0.3738E+00  0.8470E+01  0.8471E+01
     31.100  0.3912E+00  0.3916E+00  0.8631E+01  0.8632E+01
     31.521  0.4251E+00  0.4254E+00  0.8804E+01  0.8806E+01
     31.942  0.4454E+00  0.4458E+00  0.8987E+01  0.8988E+01
     32.363  0.4359E+00  0.4363E+00  0.9174E+01  0.9175E+01
     32.784  0.4036E+00  0.4025E+00  0.9352E+01  0.9353E+01
     33.205  0.3545E+00  0.3536E+00  0.9511E+01  0.9512E+01
     33.626  0.3282E+00  0.3282E+00  0.9650E+01  0.9651E+01
     34.047  0.2737E+00  0.2731E+00  0.9775E+01  0.9776E+01
     34.468  0.2741E+00  0.2718E+00  0.9885E+01  0.9886E+01
     34.889  0.1746E+00  0.1739E+00  0.9977E+01  0.9977E+01
     35.310  0.1692E+00  0.1692E+00  0.1005E+02  0.1005E+02
     35.731  0.1756E+00  0.1757E+00  0.1012E+02  0.1012E+02
     36.152  0.1981E+00  0.1982E+00  0.1020E+02  0.1020E+02
     36.573  0.2594E+00  0.2594E+00  0.1029E+02  0.1029E+02
     36.994  0.2652E+00  0.2653E+00  0.1040E+02  0.1040E+02
     37.415  0.2782E+00  0.2782E+00  0.1052E+02  0.1052E+02
     37.836  0.2960E+00  0.2961E+00  0.1064E+02  0.1064E+02
     38.257  0.3160E+00  0.3162E+00  0.1077E+02  0.1077E+02
     38.678  0.3536E+00  0.3537E+00  0.1091E+02  0.1091E+02
     39.099  0.3481E+00  0.3481E+00  0.1105E+02  0.1105E+02
     39.520  0.4280E+00  0.4284E+00  0.1121E+02  0.1121E+02
     39.941  0.5719E+00  0.5721E+00  0.1142E+02  0.1142E+02
     40.362  0.4630E+00  0.4668E+00  0.1164E+02  0.1164E+02
     40.782  0.4336E+00  0.4337E+00  0.1183E+02  0.1183E+02
     41.203  0.4963E+00  0.4960E+00  0.1203E+02  0.1203E+02
     41.624  0.5209E+00  0.5217E+00  0.1224E+02  0.1224E+02
     42.045  0.5180E+00  0.5188E+00  0.1244E+02  0.1244E+02
     42.466  0.4926E+00  0.4938E+00  0.1263E+02  0.1263E+02
     42.887  0.5792E+00  0.5794E+00  0.1287E+02  0.1287E+02
     43.308  0.4885E+00  0.4890E+00  0.1308E+02  0.1308E+02
     43.729  0.5040E+00  0.5036E+00  0.1329E+02  0.1329E+02
     44.150  0.4221E+00  0.4223E+00  0.1348E+02  0.1348E+02
     44.571  0.3862E+00  0.3863E+00  0.1364E+02  0.1364E+02
     44.992  0.4280E+00  0.4278E+00  0.1382E+02  0.1382E+02
     45.413  0.4489E+00  0.4489E+00  0.1400E+02  0.1400E+02
     45.834  0.4914E+00  0.4917E+00  0.1420E+02  0.1420E+02
     46.255  0.5624E+00  0.5623E+00  0.1442E+02  0.1442E+02
     46.676  0.4963E+00  0.4961E+00  0.1464E+02  0.1464E+02
     47.097  0.4291E+00  0.4289E+00  0.1483E+02  0.1483E+02
     47.518  0.4408E+00  0.4407E+00  0.1501E+02  0.1501E+02
     47.939  0.4439E+00  0.4441E+00  0.1519E+02  0.1519E+02
     48.360  0.5066E+00  0.5068E+00  0.1539E+02  0.1539E+02
     48.781  0.5012E+00  0.5011E+00  0.1561E+02  0.1561E+02
     49.202  0.4706E+00  0.4707E+00  0.1582E+02  0.1582E+02
     49.623  0.4332E+00  0.4331E+00  0.1600E+02  0.1600E+02
     50.044  0.4322E+00  0.4320E+00  0.1618E+02  0.1618E+02
     50.465  0.3526E+00  0.3529E+00  0.1634E+02  0.1634E+02
     50.886  0.4925E+00  0.4927E+00  0.1651E+02  0.1651E+02
     51.307  0.5843E+00  0.5838E+00  0.1674E+02  0.1674E+02
     51.728  0.5524E+00  0.5518E+00  0.1699E+02  0.1699E+02
     52.149  0.4275E+00  0.4276E+00  0.1718E+02  0.1718E+02
     52.570  0.4931E+00  0.4943E+00  0.1736E+02  0.1736E+02
     52.991  0.6454E+00  0.6503E+00  0.1759E+02  0.1759E+02
     53.412  0.7410E+00  0.7281E+00  0.1789E+02  0.1789E+02
     53.833  0.8791E+00  0.8788E+00  0.1821E+02  0.1821E+02
     54.254  0.8534E+00  0.8565E+00  0.1857E+02  0.1857E+02
     54.675  0.1079E+01  0.1079E+01  0.1898E+02  0.1898E+02
     55.096  0.1211E+01  0.1213E+01  0.1945E+02  0.1945E+02
     55.517  0.1046E+01  0.1046E+01  0.1990E+02  0.1990E+02
     55.938  0.1422E+01  0.1422E+01  0.2039E+02  0.2039E+02
     56.359  0.1367E+01  0.1358E+01  0.2098E+02  0.2098E+02
     56.780  0.1300E+01  0.1295E+01  0.2143E+02  0.2143E+02
     57.201  0.1084E+01  0.1082E+01  0.2192E+02  0.2193E+02
     57.622  0.8885E+00  0.8857E+00  0.2229E+02  0.2229E+02
     58.043  0.4940E+00  0.4955E+00  0.2258E+02  0.2258E+02
     58.464  0.5986E+00  0.5992E+00  0.2279E+02  0.2279E+02
     58.885  0.7051E+00  0.7060E+00  0.2306E+02  0.2306E+02
     59.306  0.1170E+01  0.1182E+01  0.2347E+02  0.2347E+02
     59.727  0.7501E+00  0.7370E+00  0.2382E+02  0.2382E+02
     60.148  0.4850E+00  0.4853E+00  0.2405E+02  0.2405E+02
     60.569  0.5764E+00  0.5767E+00  0.2428E+02  0.2428E+02
     60.990  0.6047E+00  0.6041E+00  0.2453E+02  0.2453E+02
     61.411  0.5955E+00  0.5958E+00  0.2476E+02  0.2476E+02
     61.832  0.7900E+00  0.7900E+00  0.2505E+02  0.2505E+02
     62.253  0.5128E+00  0.5124E+00  0.2531E+02  0.2531E+02
     62.674  0.5498E+00  0.5506E+00  0.2552E+02  0.2552E+02
     63.095  0.5476E+00  0.5473E+00  0.2576E+02  0.2576E+02
     63.516  0.5429E+00  0.5525E+00  0.2598E+02  0.2598E+02
     63.937  0.4758E+00  0.4661E+00  0.2619E+02  0.2619E+02
     64.358  0.4832E+00  0.4838E+00  0.2638E+02  0.2638E+02
     64.778  0.5553E+00  0.5552E+00  0.2661E+02  0.2661E+02
     65.199  0.4979E+00  0.4980E+00  0.2683E+02  0.2684E+02
     65.620  0.5009E+00  0.5010E+00  0.2703E+02  0.2704E+02
     66.041  0.5180E+00  0.5178E+00  0.2726E+02  0.2726E+02
     66.462  0.4487E+00  0.4486E+00  0.2746E+02  0.2746E+02
     66.883  0.4194E+00  0.4193E+00  0.2765E+02  0.2765E+02
     67.304  0.4064E+00  0.4061E+00  0.2782E+02  0.2782E+02
     67.725  0.4857E+00  0.4862E+00  0.2800E+02  0.2800E+02
     68.146  0.4882E+00  0.4882E+00  0.2821E+02  0.2821E+02
     68.567  0.4645E+00  0.4645E+00  0.2841E+02  0.2841E+02
     68.988  0.4677E+00  0.4677E+00  0.2860E+02  0.2860E+02
     69.409  0.4634E+00  0.4619E+00  0.2880E+02  0.2880E+02
     69.830  0.4568E+00  0.4571E+00  0.2898E+02  0.2898E+02
     70.251  0.4514E+00  0.4514E+00  0.2917E+02  0.2917E+02
     70.672  0.4595E+00  0.4595E+00  0.2936E+02  0.2936E+02
     71.093  0.4628E+00  0.4629E+00  0.2955E+02  0.2955E+02
     71.514  0.5021E+00  0.5021E+00  0.2976E+02  0.2976E+02
     71.935  0.6533E+00  0.6531E+00  0.2999E+02  0.2999E+02
     72.356  0.5623E+00  0.5623E+00  0.3023E+02  0.3023E+02
     72.777  0.5405E+00  0.5402E+00  0.3047E+02  0.3047E+02
     73.198  0.4736E+00  0.4734E+00  0.3068E+02  0.3068E+02
     73.619  0.4029E+00  0.4030E+00  0.3086E+02  0.3086E+02
     74.040  0.4004E+00  0.4006E+00  0.3102E+02  0.3103E+02
     74.461  0.4336E+00  0.4339E+00  0.3120E+02  0.3120E+02
     74.882  0.4346E+00  0.4342E+00  0.3139E+02  0.3139E+02
     75.303  0.4170E+00  0.4170E+00  0.3157E+02  0.3157E+02
     75.724  0.4251E+00  0.4253E+00  0.3175E+02  0.3175E+02
     76.145  0.4556E+00  0.4559E+00  0.3193E+02  0.3193E+02
     76.566  0.5178E+00  0.5181E+00  0.3214E+02  0.3214E+02
     76.987  0.5215E+00  0.5213E+00  0.3236E+02  0.3236E+02
     77.408  0.4968E+00  0.4970E+00  0.3258E+02  0.3258E+02
     77.829  0.6081E+00  0.6082E+00  0.3281E+02  0.3281E+02
     78.250  0.5922E+00  0.5925E+00  0.3306E+02  0.3306E+02
     78.671  0.7100E+00  0.7105E+00  0.3333E+02  0.3333E+02
     79.092  0.4737E+00  0.4719E+00  0.3361E+02  0.3361E+02
     79.513  0.5175E+00  0.5186E+00  0.3377E+02  0.3377E+02
     79.934  0.7497E+00  0.7500E+00  0.3407E+02  0.3407E+02
     80.355  0.6394E+00  0.6394E+00  0.3435E+02  0.3436E+02
     80.776  0.5059E+00  0.5055E+00  0.3459E+02  0.3459E+02
     81.197  0.5409E+00  0.5436E+00  0.3479E+02  0.3479E+02
     81.618  0.5346E+00  0.5348E+00  0.3501E+02  0.3501E+02
     82.039  0.5801E+00  0.5801E+00  0.3525E+02  0.3525E+02
     82.460  0.5419E+00  0.5418E+00  0.3548E+02  0.3548E+02
     82.881  0.4862E+00  0.4864E+00  0.3570E+02  0.3570E+02
     83.302  0.5052E+00  0.5051E+00  0.3591E+02  0.3591E+02
     83.723  0.5154E+00  0.5156E+00  0.3612E+02  0.3612E+02
     84.144  0.6189E+00  0.6187E+00  0.3636E+02  0.3636E+02
     84.565  0.5715E+00  0.5714E+00  0.3662E+02  0.3662E+02
     84.986  0.4995E+00  0.4996E+00  0.3684E+02  0.3684E+02
     85.407  0.4785E+00  0.4785E+00  0.3705E+02  0.3705E+02
     85.828  0.4879E+00  0.4879E+00  0.3725E+02  0.3725E+02
     86.249  0.4588E+00  0.4592E+00  0.3744E+02  0.3744E+02
     86.670  0.4600E+00  0.4600E+00  0.3764E+02  0.3764E+02
     87.091  0.5138E+00  0.5147E+00  0.3784E+02  0.3784E+02
     87.512  0.7649E+00  0.7650E+00  0.3810E+02  0.3810E+02
     87.933  0.6975E+00  0.6972E+00  0.3841E+02  0.3841E+02
     88.354  0.5933E+00  0.5932E+00  0.3867E+02  0.3867E+02
     88.775  0.7064E+00  0.7066E+00  0.3893E+02  0.3893E+02
     89.195  0.6581E+00  0.6579E+00  0.3923E+02  0.3923E+02
     89.616  0.5064E+00  0.5060E+00  0.3947E+02  0.3947E+02
     90.037  0.4258E+00  0.4257E+00  0.3966E+02  0.3966E+02
     90.458  0.4622E+00  0.4623E+00  0.3984E+02  0.3984E+02
     90.879  0.4529E+00  0.4499E+00  0.4003E+02  0.4003E+02
     91.300  0.4786E+00  0.4786E+00  0.4024E+02  0.4024E+02
     91.721  0.4939E+00  0.4941E+00  0.4045E+02  0.4045E+02
     92.142  0.5984E+00  0.5989E+00  0.4067E+02  0.4067E+02
     92.563  0.6449E+00  0.6448E+00  0.4095E+02  0.4095E+02
     92.984  0.5648E+00  0.5649E+00  0.4120E+02  0.4120E+02
     93.405  0.6946E+00  0.6942E+00  0.4146E+02  0.4147E+02
     93.826  0.5417E+00  0.5417E+00  0.4171E+02  0.4171E+02
     94.247  0.5115E+00  0.5114E+00  0.4193E+02  0.4193E+02
     94.668  0.5295E+00  0.5294E+00  0.4215E+02  0.4215E+02
     95.089  0.5507E+00  0.5508E+00  0.4237E+02  0.4237E+02
     95.510  0.7102E+00  0.7106E+00  0.4263E+02  0.4263E+02
     95.931  0.6711E+00  0.6709E+00  0.4293E+02  0.4293E+02
     96.352  0.6955E+00  0.6937E+00  0.4321E+02  0.4321E+02
     96.773  0.6106E+00  0.6104E+00  0.4347E+02  0.4347E+02
     97.194  0.5912E+00  0.5912E+00  0.4373E+02  0.4373E+02
     97.615  0.5578E+00  0.5567E+00  0.4397E+02  0.4397E+02
     98.036  0.4569E+00  0.4568E+00  0.4418E+02  0.4418E+02
     98.457  0.4269E+00  0.4269E+00  0.4437E+02  0.4437E+02
     98.878  0.4855E+00  0.4854E+00  0.4456E+02  0.4456E+02
     99.299  0.5088E+00  0.5086E+00  0.4476E+02  0.4476E+02
     99.720  0.5858E+00  0.5858E+00  0.4498E+02  0.4498E+02
    100.141  0.7694E+00  0.7699E+00  0.4526E+02  0.4526E+02
    100.562  0.7074E+00  0.7076E+00  0.4557E+02  0.4557E+02
    100.983  0.6715E+00  0.6712E+00  0.4586E+02  0.4586E+02
    101.404  0.5345E+00  0.5312E+00  0.4610E+02  0.4610E+02
    101.825  0.4896E+00  0.4894E+00  0.4632E+02  0.4632E+02
    102.246  0.5362E+00  0.5369E+00  0.4652E+02  0.4652E+02
    102.667  0.5203E+00  0.5206E+00  0.4675E+02  0.4675E+02
    103.088  0.4484E+00  0.4486E+00  0.4696E+02  0.4696E+02
    103.509  0.4951E+00  0.4948E+00  0.4716E+02  0.4716E+02
    103.930  0.3633E+00  0.3628E+00  0.4733E+02  0.4733E+02
    104.351  0.3427E+00  0.3429E+00  0.4748E+02  0.4748E+02
    104.772  0.2757E+00  0.2756E+00  0.4761E+02  0.4761E+02
    105.193  0.3336E+00  0.3333E+00  0.4773E+02  0.4774E+02
    105.614  0.1798E+00  0.1795E+00  0.4785E+02  0.4785E+02
    106.035  0.1076E+00  0.1074E+00  0.4791E+02  0.4791E+02
    106.456  0.6989E-01  0.6975E-01  0.4794E+02  0.4794E+02
    106.877  0.2651E-01  0.2644E-01  0.4797E+02  0.4797E+02
    107.298  0.1488E-01  0.1487E-01  0.4797E+02  0.4797E+02
    107.719  0.1306E-01  0.1306E-01  0.4798E+02  0.4798E+02
    108.140  0.1568E-01  0.1567E-01  0.4799E+02  0.4799E+02
    108.561  0.9436E-02  0.9431E-02  0.4799E+02  0.4799E+02
    108.982  0.7349E-02  0.7336E-02  0.4800E+02  0.4800E+02
    109.403  0.4939E-02  0.4916E-02  0.4800E+02  0.4800E+02
    109.824  0.1709E-02  0.1704E-02  0.4800E+02  0.4800E+02
    110.245  0.1016E-02  0.1012E-02  0.4800E+02  0.4800E+02
    110.666  0.5015E-03  0.4994E-03  0.4800E+02  0.4800E+02
    111.087  0.1669E-03  0.1660E-03  0.4800E+02  0.4800E+02
    111.508  0.1187E-04  0.1169E-04  0.4800E+02  0.4800E+02
    111.929  0.0000E+00  0.0000E+00  0.4800E+02  0.4800E+02
    112.350  0.0000E+00  0.0000E+00  0.4800E+02  0.4800E+02
    112.771  0.0000E+00  0.0000E+00  0.4800E+02  0.4800E+02
    113.192  0.0000E+00  0.0000E+00  0.4800E+02  0.4800E+02
    113.612  0.0000E+00  0.0000E+00  0.4800E+02  0.4800E+02
    114.033  0.0000E+00  0.0000E+00  0.4800E+02  0.4800E+02
    114.454  0.0000E+00  0.0000E+00  0.4800E+02  0.4800E+02
    114.875  0.0000E+00  0.0000E+00  0.4800E+02  0.4800E+02
    115.296  0.0000E+00  0.0000E+00  0.4800E+02  0.4800E+02
    115.717  0.0000E+00  0.0000E+00  0.4800E+02  0.4800E+02
    116.138  0.0000E+00  0.0000E+00  0.4800E+02  0.4800E+02
    116.559  0.0000E+00  0.0000E+00  0.4800E+02  0.4800E+02
    116.980  0.0000E+00  0.0000E+00  0.4800E+02  0.4800E+02
    117.401  0.0000E+00  0.0000E+00  0.4800E+02  0.4800E+02
    117.40133946     -8.89347824  301      7.97227071      1.00000000
     -8.893  0.0000E+00  0.0000E+00  0.0000E+00  0.0000E+00  0.0000E+00  0.0000E+00  0.0000E+00  0.0000E+00  0.0000E+00  0.0000E+00  0.0000E+00  0.0000E+00  0.0000E+00  0.0000E+00  0.0000E+00  0.0000E+00  0.0000E+00  0.0000E+00
     -8.472  0.0000E+00  0.0000E+00  0.0000E+00  0.0000E+00  0.0000E+00  0.0000E+00  0.0000E+00  0.0000E+00  0.0000E+00  0.0000E+00  0.0000E+00  0.0000E+00  0.0000E+00  0.0000E+00  0.0000E+00  0.0000E+00  0.0000E+00  0.0000E+00
     -8.052  0.0000E+00  0.0000E+00  0.0000E+00  0.0000E+00  0.0000E+00  0.0000E+00  0.0000E+00  0.0000E+00  0.0000E+00  0.0000E+00  0.0000E+00  0.0000E+00  0.0000E+00  0.0000E+00  0.0000E+00  0.0000E+00  0.0000E+00  0.0000E+00
     -7.631  0.0000E+00  0.0000E+00  0.0000E+00  0.0000E+00  0.0000E+00  0.0000E+00  0.0000E+00  0.0000E+00  0.0000E+00  0.0000E+00  0.0000E+00  0.0000E+00  0.0000E+00  0.0000E+00  0.0000E+00  0.0000E+00  0.0000E+00  0.0000E+00
     -7.210  0.0000E+00  0.0000E+00  0.0000E+00  0.0000E+00  0.0000E+00  0.0000E+00  0.0000E+00  0.0000E+00  0.0000E+00  0.0000E+00  0.0000E+00  0.0000E+00  0.0000E+00  0.0000E+00  0.0000E+00  0.0000E+00  0.0000E+00  0.0000E+00
     -6.789  0.0000E+00  0.0000E+00  0.0000E+00  0.0000E+00  0.0000E+00  0.0000E+00  0.0000E+00  0.0000E+00  0.0000E+00  0.0000E+00  0.0000E+00  0.0000E+00  0.0000E+00  0.0000E+00  0.0000E+00  0.0000E+00  0.0000E+00  0.0000E+00
     -6.368  0.0000E+00  0.0000E+00  0.0000E+00  0.0000E+00  0.0000E+00  0.0000E+00  0.0000E+00  0.0000E+00  0.0000E+00  0.0000E+00  0.0000E+00  0.0000E+00  0.0000E+00  0.0000E+00  0.0000E+00  0.0000E+00  0.0000E+00  0.0000E+00
     -5.947  0.0000E+00  0.0000E+00  0.0000E+00  0.0000E+00  0.0000E+00  0.0000E+00  0.0000E+00  0.0000E+00  0.0000E+00  0.0000E+00  0.0000E+00  0.0000E+00  0.0000E+00  0.0000E+00  0.0000E+00  0.0000E+00  0.0000E+00  0.0000E+00
     -5.526  0.0000E+00  0.0000E+00  0.0000E+00  0.0000E+00  0.0000E+00  0.0000E+00  0.0000E+00  0.0000E+00  0.0000E+00  0.0000E+00  0.0000E+00  0.0000E+00  0.0000E+00  0.0000E+00  0.0000E+00  0.0000E+00  0.0000E+00  0.0000E+00
     -5.105  0.0000E+00  0.0000E+00  0.0000E+00  0.0000E+00  0.0000E+00  0.0000E+00  0.0000E+00  0.0000E+00  0.0000E+00  0.0000E+00  0.0000E+00  0.0000E+00  0.0000E+00  0.0000E+00  0.0000E+00  0.0000E+00  0.0000E+00  0.0000E+00
     -4.684  0.0000E+00  0.0000E+00  0.0000E+00  0.0000E+00  0.0000E+00  0.0000E+00  0.0000E+00  0.0000E+00  0.0000E+00  0.0000E+00  0.0000E+00  0.0000E+00  0.0000E+00  0.0000E+00  0.0000E+00  0.0000E+00  0.0000E+00  0.0000E+00
     -4.263  0.0000E+00  0.0000E+00  0.0000E+00  0.0000E+00  0.0000E+00  0.0000E+00  0.0000E+00  0.0000E+00  0.0000E+00  0.0000E+00  0.0000E+00  0.0000E+00  0.0000E+00  0.0000E+00  0.0000E+00  0.0000E+00  0.0000E+00  0.0000E+00
     -3.842  0.0000E+00  0.0000E+00  0.0000E+00  0.0000E+00  0.0000E+00  0.0000E+00  0.0000E+00  0.0000E+00  0.0000E+00  0.0000E+00  0.0000E+00  0.0000E+00  0.0000E+00  0.0000E+00  0.0000E+00  0.0000E+00  0.0000E+00  0.0000E+00
     -3.421  0.0000E+00  0.0000E+00  0.0000E+00  0.0000E+00  0.0000E+00  0.0000E+00  0.0000E+00  0.0000E+00  0.0000E+00  0.0000E+00  0.0000E+00  0.0000E+00  0.0000E+00  0.0000E+00  0.0000E+00  0.0000E+00  0.0000E+00  0.0000E+00
     -3.000  0.5592E-02  0.5624E-02  0.2410E-04  0.2437E-04  0.2410E-04  0.2437E-04  0.2410E-04  0.2437E-04  0.0000E+00  0.0000E+00  0.0000E+00  0.0000E+00  0.0000E+00  0.0000E+00  0.0000E+00  0.0000E+00  0.0000E+00  0.0000E+00
     -2.579  0.1410E-01  0.1412E-01  0.1979E-03  0.1985E-03  0.1979E-03  0.1985E-03  0.1979E-03  0.1985E-03  0.0000E+00  0.0000E+00  0.0000E+00  0.0000E+00  0.0000E+00  0.0000E+00  0.0000E+00  0.0000E+00  0.0000E+00  0.0000E+00
     -2.158  0.1429E-01  0.1431E-01  0.3835E-03  0.3844E-03  0.3835E-03  0.3844E-03  0.3835E-03  0.3844E-03  0.0000E+00  0.0000E+00  0.0000E+00  0.0000E+00  0.0000E+00  0.0000E+00  0.0000E+00  0.0000E+00  0.0000E+00  0.0000E+00
     -1.737  0.1684E-01  0.1725E-01  0.6401E-03  0.6546E-03  0.6401E-03  0.6546E-03  0.6401E-03  0.6546E-03  0.0000E+00  0.0000E+00  0.0000E+00  0.0000E+00  0.0000E+00  0.0000E+00  0.0000E+00  0.0000E+00  0.0000E+00  0.0000E+00
     -1.316  0.1839E-01  0.1840E-01  0.9503E-03  0.9515E-03  0.9503E-03  0.9515E-03  0.9503E-03  0.9515E-03  0.0000E+00  0.0000E+00  0.0000E+00  0.0000E+00  0.0000E+00  0.0000E+00  0.0000E+00  0.0000E+00  0.0000E+00  0.0000E+00
     -0.895  0.1976E-01  0.1977E-01  0.1290E-02  0.1292E-02  0.1290E-02  0.1292E-02  0.1290E-02  0.1292E-02  0.0000E+00  0.0000E+00  0.0000E+00  0.0000E+00  0.0000E+00  0.0000E+00  0.0000E+00  0.0000E+00  0.0000E+00  0.0000E+00
     -0.474  0.2099E-01  0.2101E-01  0.1650E-02  0.1651E-02  0.1650E-02  0.1651E-02  0.1650E-02  0.1651E-02  0.0000E+00  0.0000E+00  0.0000E+00  0.0000E+00  0.0000E+00  0.0000E+00  0.0000E+00  0.0000E+00  0.0000E+00  0.0000E+00
     -0.053  0.2168E-01  0.2170E-01  0.2054E-02  0.2056E-02  0.2054E-02  0.2056E-02  0.2054E-02  0.2056E-02  0.0000E+00  0.0000E+00  0.0000E+00  0.0000E+00  0.0000E+00  0.0000E+00  0.0000E+00  0.0000E+00  0.0000E+00  0.0000E+00
      0.368  0.2248E-01  0.2250E-01  0.2464E-02  0.2466E-02  0.2464E-02  0.2466E-02  0.2464E-02  0.2466E-02  0.0000E+00  0.0000E+00  0.0000E+00  0.0000E+00  0.0000E+00  0.0000E+00  0.0000E+00  0.0000E+00  0.0000E+00  0.0000E+00
      0.789  0.2274E-01  0.2275E-01  0.2921E-02  0.2924E-02  0.2921E-02  0.2924E-02  0.2921E-02  0.2924E-02  0.0000E+00  0.0000E+00  0.0000E+00  0.0000E+00  0.0000E+00  0.0000E+00  0.0000E+00  0.0000E+00  0.0000E+00  0.0000E+00
      1.210  0.2310E-01  0.2312E-01  0.3384E-02  0.3386E-02  0.3384E-02  0.3386E-02  0.3384E-02  0.3386E-02  0.0000E+00  0.0000E+00  0.0000E+00  0.0000E+00  0.0000E+00  0.0000E+00  0.0000E+00  0.0000E+00  0.0000E+00  0.0000E+00
      1.631  0.2309E-01  0.2310E-01  0.3890E-02  0.3892E-02  0.3890E-02  0.3892E-02  0.3890E-02  0.3892E-02  0.0000E+00  0.0000E+00  0.0000E+00  0.0000E+00  0.0000E+00  0.0000E+00  0.0000E+00  0.0000E+00  0.0000E+00  0.0000E+00
      2.052  0.2299E-01  0.2301E-01  0.4420E-02  0.4423E-02  0.4420E-02  0.4423E-02  0.4420E-02  0.4423E-02  0.0000E+00  0.0000E+00  0.0000E+00  0.0000E+00  0.0000E+00  0.0000E+00  0.0000E+00  0.0000E+00  0.0000E+00  0.0000E+00
      2.473  0.2266E-01  0.2268E-01  0.5016E-02  0.5019E-02  0.5016E-02  0.5019E-02  0.5016E-02  0.5019E-02  0.0000E+00  0.0000E+00  0.0000E+00  0.0000E+00  0.0000E+00  0.0000E+00  0.0000E+00  0.0000E+00  0.0000E+00  0.0000E+00
      2.894  0.2200E-01  0.2202E-01  0.5966E-02  0.5970E-02  0.5966E-02  0.5970E-02  0.5966E-02  0.5970E-02  0.0000E+00  0.0000E+00  0.0000E+00  0.0000E+00  0.0000E+00  0.0000E+00  0.0000E+00  0.0000E+00  0.0000E+00  0.0000E+00
      3.315  0.2129E-01  0.2131E-01  0.7093E-02  0.7095E-02  0.7093E-02  0.7095E-02  0.7093E-02  0.7095E-02  0.0000E+00  0.0000E+00  0.0000E+00  0.0000E+00  0.0000E+00  0.0000E+00  0.0000E+00  0.0000E+00  0.0000E+00  0.0000E+00
      3.736  0.1758E-01  0.1760E-01  0.6735E-02  0.6738E-02  0.6735E-02  0.6738E-02  0.6735E-02  0.6738E-02  0.0000E+00  0.0000E+00  0.0000E+00  0.0000E+00  0.0000E+00  0.0000E+00  0.0000E+00  0.0000E+00  0.0000E+00  0.0000E+00
      4.157  0.1943E-01  0.1945E-01  0.7349E-02  0.7352E-02  0.7349E-02  0.7352E-02  0.7349E-02  0.7352E-02  0.0000E+00  0.0000E+00  0.0000E+00  0.0000E+00  0.0000E+00  0.0000E+00  0.0000E+00  0.0000E+00  0.0000E+00  0.0000E+00
      4.578  0.2148E-01  0.2150E-01  0.8171E-02  0.8176E-02  0.8171E-02  0.8176E-02  0.8171E-02  0.8176E-02  0.0000E+00  0.0000E+00  0.0000E+00  0.0000E+00  0.0000E+00  0.0000E+00  0.0000E+00  0.0000E+00  0.0000E+00  0.0000E+00
      4.999  0.1960E-01  0.1963E-01  0.9536E-02  0.9541E-02  0.9536E-02  0.9541E-02  0.9536E-02  0.9541E-02  0.0000E+00  0.0000E+00  0.0000E+00  0.0000E+00  0.0000E+00  0.0000E+00  0.0000E+00  0.0000E+00  0.0000E+00  0.0000E+00
      5.420  0.1926E-01  0.1927E-01  0.9455E-02  0.9457E-02  0.9455E-02  0.9457E-02  0.9455E-02  0.9457E-02  0.0000E+00  0.0000E+00  0.0000E+00  0.0000E+00  0.0000E+00  0.0000E+00  0.0000E+00  0.0000E+00  0.0000E+00  0.0000E+00
      5.841  0.1686E-01  0.1686E-01  0.8718E-02  0.8720E-02  0.8718E-02  0.8720E-02  0.8718E-02  0.8720E-02  0.0000E+00  0.0000E+00  0.0000E+00  0.0000E+00  0.0000E+00  0.0000E+00  0.0000E+00  0.0000E+00  0.0000E+00  0.0000E+00
      6.262  0.1774E-01  0.1775E-01  0.8974E-02  0.8986E-02  0.8974E-02  0.8986E-02  0.8974E-02  0.8986E-02  0.0000E+00  0.0000E+00  0.0000E+00  0.0000E+00  0.0000E+00  0.0000E+00  0.0000E+00  0.0000E+00  0.0000E+00  0.0000E+00
      6.683  0.1785E-01  0.1788E-01  0.9212E-02  0.9220E-02  0.9212E-02  0.9220E-02  0.9212E-02  0.9220E-02  0.0000E+00  0.0000E+00  0.0000E+00  0.0000E+00  0.0000E+00  0.0000E+00  0.0000E+00  0.0000E+00  0.0000E+00  0.0000E+00
      7.104  0.1931E-01  0.1931E-01  0.1002E-01  0.1002E-01  0.1002E-01  0.1002E-01  0.1002E-01  0.1002E-01  0.0000E+00  0.0000E+00  0.0000E+00  0.0000E+00  0.0000E+00  0.0000E+00  0.0000E+00  0.0000E+00  0.0000E+00  0.0000E+00
      7.525  0.1649E-01  0.1647E-01  0.9864E-02  0.9864E-02  0.9864E-02  0.9864E-02  0.9864E-02  0.9864E-02  0.0000E+00  0.0000E+00  0.0000E+00  0.0000E+00  0.0000E+00  0.0000E+00  0.0000E+00  0.0000E+00  0.0000E+00  0.0000E+00
      7.946  0.1913E-01  0.1916E-01  0.9032E-02  0.9032E-02  0.9032E-02  0.9032E-02  0.9032E-02  0.9032E-02  0.0000E+00  0.0000E+00  0.0000E+00  0.0000E+00  0.0000E+00  0.0000E+00  0.0000E+00  0.0000E+00  0.0000E+00  0.0000E+00
      8.367  0.2219E-01  0.2221E-01  0.9569E-02  0.9575E-02  0.9569E-02  0.9575E-02  0.9569E-02  0.9575E-02  0.0000E+00  0.0000E+00  0.0000E+00  0.0000E+00  0.0000E+00  0.0000E+00  0.0000E+00  0.0000E+00  0.0000E+00  0.0000E+00
      8.788  0.2160E-01  0.2162E-01  0.1017E-01  0.1018E-01  0.1017E-01  0.1018E-01  0.1017E-01  0.1018E-01  0.0000E+00  0.0000E+00  0.0000E+00  0.0000E+00  0.0000E+00  0.0000E+00  0.0000E+00  0.0000E+00  0.0000E+00  0.0000E+00
      9.209  0.1942E-01  0.1944E-01  0.1016E-01  0.1017E-01  0.1016E-01  0.1017E-01  0.1016E-01  0.1017E-01  0.0000E+00  0.0000E+00  0.0000E+00  0.0000E+00  0.0000E+00  0.0000E+00  0.0000E+00  0.0000E+00  0.0000E+00  0.0000E+00
      9.630  0.2200E-01  0.2202E-01  0.1036E-01  0.1037E-01  0.1036E-01  0.1037E-01  0.1036E-01  0.1037E-01  0.0000E+00  0.0000E+00  0.0000E+00  0.0000E+00  0.0000E+00  0.0000E+00  0.0000E+00  0.0000E+00  0.0000E+00  0.0000E+00
     10.051  0.2222E-01  0.2226E-01  0.1053E-01  0.1055E-01  0.1053E-01  0.1055E-01  0.1053E-01  0.1055E-01  0.0000E+00  0.0000E+00  0.0000E+00  0.0000E+00  0.0000E+00  0.0000E+00  0.0000E+00  0.0000E+00  0.0000E+00  0.0000E+00
     10.472  0.2357E-01  0.2358E-01  0.1146E-01  0.1147E-01  0.1146E-01  0.1147E-01  0.1146E-01  0.1147E-01  0.0000E+00  0.0000E+00  0.0000E+00  0.0000E+00  0.0000E+00  0.0000E+00  0.0000E+00  0.0000E+00  0.0000E+00  0.0000E+00
     10.893  0.2266E-01  0.2267E-01  0.1178E-01  0.1179E-01  0.1178E-01  0.1179E-01  0.1178E-01  0.1179E-01  0.0000E+00  0.0000E+00  0.0000E+00  0.0000E+00  0.0000E+00  0.0000E+00  0.0000E+00  0.0000E+00  0.0000E+00  0.0000E+00
     11.314  0.2331E-01  0.2333E-01  0.1223E-01  0.1225E-01  0.1223E-01  0.1225E-01  0.1223E-01  0.1225E-01  0.0000E+00  0.0000E+00  0.0000E+00  0.0000E+00  0.0000E+00  0.0000E+00  0.0000E+00  0.0000E+00  0.0000E+00  0.0000E+00
     11.735  0.2338E-01  0.2338E-01  0.1322E-01  0.1323E-01  0.1322E-01  0.1323E-01  0.1322E-01  0.1323E-01  0.0000E+00  0.0000E+00  0.0000E+00  0.0000E+00  0.0000E+00  0.0000E+00  0.0000E+00  0.0000E+00  0.0000E+00  0.0000E+00
     12.156  0.2235E-01  0.2236E-01  0.1382E-01  0.1384E-01  0.1382E-01  0.1384E-01  0.1382E-01  0.1384E-01  0.0000E+00  0.0000E+00  0.0000E+00  0.0000E+00  0.0000E+00  0.0000E+00  0.0000E+00  0.0000E+00  0.0000E+00  0.0000E+00