       N       E                     dE             d eps       ncg     rms          rms(c)
DAV:   1    -0.363363931045E+01   -0.36336E+01   -0.88683E+02 53232   0.342E+01
DAV:   2    -0.368259502917E+01   -0.48956E-01   -0.48924E-01 47712   0.107E+00
DAV:   3    -0.368259721270E+01   -0.21835E-05   -0.21859E-05 56592   0.672E-03
DAV:   4    -0.368259721194E+01    0.76400E-09   -0.96586E-11 53472   0.928E-06
DAV:   5    -0.368259721303E+01   -0.10932E-08   -0.55520E-13 54240   0.420E-09    0.174E+00
RMM:   6    -0.375505996873E+01   -0.72463E-01   -0.23458E-03 37451   0.757E-02    0.823E-01
RMM:   7    -0.374658248108E+01    0.84775E-02   -0.85193E-04 39003   0.433E-02    0.658E-01
RMM:   8    -0.374627199099E+01    0.31049E-03   -0.18601E-04 38845   0.231E-02    0.207E-01
RMM:   9    -0.374625346618E+01    0.18525E-04   -0.24403E-05 40642   0.760E-03
   1 F= -.37462535E+01 E0= -.37462535E+01  d E =0.000000E+00  mag=     0.0012
