    1    1    1    2
  0.1658294E+02  0.2862368E-09  0.2862368E-09  0.2862368E-09  0.5000000E-15
   1.0000000000000000E-004
  CAR 
 unknown system                          
      3     56     48

  0.1262379E-14  0.1262379E-14  0.1262379E-14  0.7513148E-03
    1       -3.151173     -3.153012   1.000000   1.000000
    2       20.540500     20.539128   0.000000   0.000000
    3       20.540500     20.539128   0.000000   0.000000
    4       20.540500     20.539128   0.000000   0.000000
    5       21.995300     21.989894   0.000000   0.000000
    6       21.995301     21.989894   0.000000   0.000000
    7       21.995301     21.989895   0.000000   0.000000
    8       24.377656     24.377865   0.000000   0.000000
    9       27.315161     27.311237   0.000000   0.000000
   10       27.315161     27.311237   0.000000   0.000000
   11       30.160701     30.157516   0.000000   0.000000
   12       32.511032     32.509962   0.000000   0.000000
   13       32.511033     32.509962   0.000000   0.000000
   14       32.511033     32.509963   0.000000   0.000000
   15       41.063424     41.060866   0.000000   0.000000
   16       55.994577     55.993505   0.000000   0.000000
   17       55.994577     55.993506   0.000000   0.000000
   18       55.994577     55.993506   0.000000   0.000000
   19       56.045981     56.046099   0.000000   0.000000
   20       59.211936     59.209038   0.000000   0.000000
   21       59.211936     59.209039   0.000000   0.000000
   22       59.211936     59.209039   0.000000   0.000000
   23       62.832590     62.832023   0.000000   0.000000
   24       62.832590     62.832023   0.000000   0.000000
   25       65.076264     65.072199   0.000000   0.000000
   26       65.076264     65.072200   0.000000   0.000000
   27       65.076264     65.072200   0.000000   0.000000
   28       73.173574     73.172308   0.000000   0.000000
   29       73.173574     73.172308   0.000000   0.000000
   30       73.173575     73.172310   0.000000   0.000000
   31       80.817175     80.815935   0.000000   0.000000
   32       83.071833     83.069709   0.000000   0.000000
   33       83.071833     83.069709   0.000000   0.000000
   34       87.200984     87.200842   0.000000   0.000000
   35       87.200984     87.200843   0.000000   0.000000
   36       87.200984     87.200845   0.000000   0.000000
   37       90.083907     90.077675   0.000000   0.000000
   38       90.083907     90.077675   0.000000   0.000000
   39       90.083908     90.077675   0.000000   0.000000
   40       90.891503     90.884334   0.000000   0.000000
   41       93.457582     93.457207   0.000000   0.000000
   42       93.457582     93.457208   0.000000   0.000000
   43       93.457582     93.457208   0.000000   0.000000
   44       93.932406     93.928638   0.000000   0.000000
   45       93.932406     93.928638   0.000000   0.000000
   46       93.932406     93.928638   0.000000   0.000000
   47       96.373304     96.373704   0.000000   0.000000
   48       96.373343     96.373705   0.000000   0.000000

  0.9090909E-01  0.1262062E-14  0.1262062E-14  0.6010518E-02
    1       -2.927336     -2.929175   1.000000   1.000000
    2       17.619344     17.617243   0.000000   0.000000
    3       19.893942     19.891601   0.000000   0.000000
    4       19.893942     19.891601   0.000000   0.000000
    5       22.669879     22.666348   0.000000   0.000000
    6       22.980530     22.975933   0.000000   0.000000
    7       22.980530     22.975934   0.000000   0.000000
    8       26.202374     26.199146   0.000000   0.000000
    9       26.202374     26.199146   0.000000   0.000000
   10       26.470614     26.469765   0.000000   0.000000
   11       29.408763     29.405987   0.000000   0.000000
   12       33.603912     33.602196   0.000000   0.000000
   13       34.081257     34.079598   0.000000   0.000000
   14       34.081257     34.079599   0.000000   0.000000
   15       41.938473     41.936043   0.000000   0.000000
   16       55.268641     55.268048   0.000000   0.000000
   17       55.559727     55.558278   0.000000   0.000000
   18       55.559727     55.558278   0.000000   0.000000
   19       56.346142     56.345593   0.000000   0.000000
   20       57.168588     57.166077   0.000000   0.000000
   21       57.168588     57.166078   0.000000   0.000000
   22       59.198117     59.195418   0.000000   0.000000
   23       61.578957     61.577501   0.000000   0.000000
   24       61.578958     61.577502   0.000000   0.000000
   25       65.276819     65.272712   0.000000   0.000000
   26       68.933857     68.930810   0.000000   0.000000
   27       68.933857     68.930810   0.000000   0.000000
   28       71.527476     71.526375   0.000000   0.000000
   29       72.974172     72.972641   0.000000   0.000000
   30       72.974172     72.972642   0.000000   0.000000
   31       81.825094     81.822574   0.000000   0.000000
   32       81.825094     81.822575   0.000000   0.000000
   33       82.300034     82.298372   0.000000   0.000000
   34       84.086629     84.083420   0.000000   0.000000
   35       85.788077     85.787703   0.000000   0.000000
   36       85.788078     85.787703   0.000000   0.000000
   37       87.983169     87.980572   0.000000   0.000000
   38       87.983169     87.980573   0.000000   0.000000
   39       89.003501     89.001649   0.000000   0.000000
   40       90.083758     90.077616   0.000000   0.000000
   41       91.301515     91.299624   0.000000   0.000000
   42       91.301515     91.299624   0.000000   0.000000
   43       92.879069     92.877715   0.000000   0.000000
   44       94.803945     94.804187   0.000000   0.000000
   45       95.644297     95.644703   0.000000   0.000000
   46       95.644297     95.644703   0.000000   0.000000
   47       97.098244     97.094452   0.000000   0.000000
   48       97.098244     97.094453   0.000000   0.000000

  0.1818182E+00  0.1266963E-14  0.1266963E-14  0.6010518E-02
    1       -2.257951     -2.259789   1.000000   1.000000
    2       13.974358     13.972339   0.000000   0.000000
    3       19.160841     19.158152   0.000000   0.000000
    4       19.160841     19.158153   0.000000   0.000000
    5       22.437191     22.434262   0.000000   0.000000
    6       23.802978     23.798724   0.000000   0.000000
    7       23.802978     23.798725   0.000000   0.000000
    8       25.316119     25.313240   0.000000   0.000000
    9       25.316119     25.313241   0.000000   0.000000
   10       27.892812     27.890228   0.000000   0.000000
   11       29.979629     29.978219   0.000000   0.000000
   12       36.431404     36.428992   0.000000   0.000000
   13       37.235032     37.232835   0.000000   0.000000
   14       37.235032     37.232836   0.000000   0.000000
   15       44.145106     44.142987   0.000000   0.000000
   16       51.709366     51.707002   0.000000   0.000000
   17       51.709366     51.707003   0.000000   0.000000
   18       53.876773     53.876018   0.000000   0.000000
   19       56.382324     56.380995   0.000000   0.000000
   20       56.382324     56.380995   0.000000   0.000000
   21       56.546990     56.546265   0.000000   0.000000
   22       58.862199     58.860017   0.000000   0.000000
   23       61.719302     61.717639   0.000000   0.000000
   24       61.719302     61.717640   0.000000   0.000000
   25       65.867397     65.863142   0.000000   0.000000
   26       68.895666     68.894383   0.000000   0.000000
   27       71.063730     71.061272   0.000000   0.000000
   28       71.063731     71.061272   0.000000   0.000000
   29       73.947247     73.944974   0.000000   0.000000
   30       73.947247     73.944976   0.000000   0.000000
   31       78.845523     78.841565   0.000000   0.000000
   32       78.981988     78.979599   0.000000   0.000000
   33       78.981988     78.979599   0.000000   0.000000
   34       82.812466     82.812689   0.000000   0.000000
   35       82.812466     82.812689   0.000000   0.000000
   36       84.820238     84.818565   0.000000   0.000000
   37       85.651877     85.651498   0.000000   0.000000
   38       86.582564     86.580981   0.000000   0.000000
   39       86.582564     86.580981   0.000000   0.000000
   40       87.493067     87.491466   0.000000   0.000000
   41       89.445895     89.440565   0.000000   0.000000
   42       90.013913     90.011613   0.000000   0.000000
   43       90.013913     90.011614   0.000000   0.000000
   44       93.911205     93.911791   0.000000   0.000000
   45       97.284607     97.284025   0.000000   0.000000
   46       97.284607     97.284025   0.000000   0.000000
   47       99.486979     99.485355   0.000000   0.000000
   48       99.486980     99.485357   0.000000   0.000000

  0.2727273E+00  0.1237835E-14  0.1237835E-14  0.6010518E-02
    1       -1.149237     -1.151075   1.000000   1.000000
    2       10.549678     10.547722  -0.016184  -0.016290
    3       18.752051     18.749238   0.000000   0.000000
    4       18.752051     18.749239   0.000000   0.000000
    5       22.225288     22.222595   0.000000   0.000000
    6       22.257942     22.254662   0.000000   0.000000
    7       22.257942     22.254663   0.000000   0.000000
    8       26.247135     26.244572   0.000000   0.000000
    9       27.361167     27.357458   0.000000   0.000000
   10       27.361167     27.357458   0.000000   0.000000
   11       33.314387     33.312618   0.000000   0.000000
   12       40.516260     40.513277   0.000000   0.000000
   13       40.849006     40.846292   0.000000   0.000000
   14       40.849006     40.846293   0.000000   0.000000
   15       47.029826     47.028082   0.000000   0.000000
   16       47.368101     47.366135   0.000000   0.000000
   17       47.368101     47.366135   0.000000   0.000000
   18       51.910783     51.910098   0.000000   0.000000
   19       56.337320     56.336078   0.000000   0.000000
   20       56.337321     56.336078   0.000000   0.000000
   21       56.771032     56.770091   0.000000   0.000000
   22       57.913541     57.912069   0.000000   0.000000
   23       62.167412     62.165479   0.000000   0.000000
   24       62.167413     62.165478   0.000000   0.000000
   25       66.327588     66.325250   0.000000   0.000000
   26       66.805984     66.801428   0.000000   0.000000
   27       67.837527     67.834740   0.000000   0.000000
   28       67.837527     67.834741   0.000000   0.000000
   29       74.383051     74.382114   0.000000   0.000000
   30       74.383053     74.382116   0.000000   0.000000
   31       75.745583     75.741491   0.000000   0.000000
   32       78.380856     78.381222   0.000000   0.000000
   33       79.119500     79.119054   0.000000   0.000000
   34       79.119502     79.119055   0.000000   0.000000
   35       79.966965     79.965265   0.000000   0.000000
   36       79.966968     79.965265   0.000000   0.000000
   37       81.182292     81.180957   0.000000   0.000000
   38       88.162930     88.161279   0.000000   0.000000
   39       88.162931     88.161281   0.000000   0.000000
   40       88.740314     88.736420   0.000000   0.000000
   41       89.482728     89.480366   0.000000   0.000000
   42       89.482718     89.480366   0.000000   0.000000
   43       91.116020     91.114203   0.000000   0.000000
   44       93.031890     93.031633   0.000000   0.000000
   45       97.509597     97.508102   0.000000   0.000000
   46       97.509591     97.508130   0.000000   0.000000
   47      101.496017    101.494277   0.000000   0.000000
   48      102.442299    102.441786   0.000000   0.000000

  0.3636364E+00  0.1236297E-14  0.1236297E-14  0.6010518E-02
    1        0.388856      0.387020   1.000000   1.000000
    2        7.447192      7.445271   0.711074   0.711880
    3       18.708133     18.705238   0.000000   0.000000
    4       18.708133     18.705239   0.000000   0.000000
    5       20.828780     20.825753   0.000000   0.000000
    6       20.828780     20.825754   0.000000   0.000000
    7       22.296217     22.293674   0.000000   0.000000
    8       24.759416     24.756815   0.000000   0.000000
    9       29.889586     29.885418   0.000000   0.000000
   10       29.889586     29.885419   0.000000   0.000000
   11       36.444886     36.442602   0.000000   0.000000
   12       41.902939     41.900205   0.000000   0.000000
   13       41.902939     41.900205   0.000000   0.000000
   14       45.037757     45.034389   0.000000   0.000000
   15       46.437054     46.435284   0.000000   0.000000
   16       46.437054     46.435284   0.000000   0.000000
   17       48.329924     48.328511   0.000000   0.000000
   18       51.744621     51.744410   0.000000   0.000000
   19       56.261375     56.260153   0.000000   0.000000
   20       56.261376     56.260154   0.000000   0.000000
   21       56.384162     56.383065   0.000000   0.000000
   22       57.057759     57.056558   0.000000   0.000000
   23       61.345372     61.342264   0.000000   0.000000
   24       61.345372     61.342265   0.000000   0.000000
   25       63.742379     63.738975   0.000000   0.000000
   26       64.405713     64.404286   0.000000   0.000000
   27       64.405713     64.404287   0.000000   0.000000
   28       67.967254     67.962138   0.000000   0.000000
   29       69.671672     69.670530   0.000000   0.000000
   30       73.831648     73.830903   0.000000   0.000000
   31       73.831651     73.830905   0.000000   0.000000
   32       76.554800     76.552939   0.000000   0.000000
   33       76.967720     76.967412   0.000000   0.000000
   34       76.967720     76.967413   0.000000   0.000000
   35       78.219797     78.219046   0.000000   0.000000
   36       80.435162     80.433989   0.000000   0.000000
   37       80.435162     80.433990   0.000000   0.000000
   38       88.539032     88.535013   0.000000   0.000000
   39       89.120768     89.118549   0.000000   0.000000
   40       89.120775     89.118549   0.000000   0.000000
   41       90.467086     90.467042   0.000000   0.000000
   42       92.010572     92.008508   0.000000   0.000000
   43       92.010571     92.008509   0.000000   0.000000
   44       94.225720     94.224830   0.000000   0.000000
   45       98.963136     98.961131   0.000000   0.000000
   46       98.963177     98.961152   0.000000   0.000000
   47      102.339477    102.336529   0.000000   0.000000
   48      104.091309    104.090447   0.000000   0.000000

  0.4545455E+00  0.1248969E-14  0.1248969E-14  0.6010518E-02
    1        2.341747      2.339937   1.000000   1.000000
    2        4.708019      4.706089   1.000000   1.000000
    3       19.037316     19.034269   0.000000   0.000000
    4       19.037317     19.034269   0.000000   0.000000
    5       19.749517     19.746702   0.000000   0.000000
    6       19.749517     19.746703   0.000000   0.000000
    7       22.733698     22.731393   0.000000   0.000000
    8       23.570740     23.567947   0.000000   0.000000
    9       32.213058     32.208024   0.000000   0.000000
   10       32.213058     32.208024   0.000000   0.000000
   11       39.008485     39.005324   0.000000   0.000000
   12       39.226407     39.224925   0.000000   0.000000
   13       39.226407     39.224926   0.000000   0.000000
   14       45.811239     45.810900   0.000000   0.000000
   15       49.628892     49.625212   0.000000   0.000000
   16       50.321298     50.318871   0.000000   0.000000
   17       50.321298     50.318871   0.000000   0.000000
   18       54.196006     54.194667   0.000000   0.000000
   19       55.451396     55.449857   0.000000   0.000000
   20       55.451396     55.449858   0.000000   0.000000
   21       55.452339     55.452161   0.000000   0.000000
   22       57.647127     57.645553   0.000000   0.000000
   23       57.939595     57.936978   0.000000   0.000000
   24       57.939596     57.936978   0.000000   0.000000
   25       61.665512     61.662960   0.000000   0.000000
   26       63.624074     63.622801   0.000000   0.000000
   27       64.230560     64.229282   0.000000   0.000000
   28       64.230560     64.229283   0.000000   0.000000
   29       68.956741     68.950830   0.000000   0.000000
   30       73.601277     73.600581   0.000000   0.000000
   31       73.601277     73.600581   0.000000   0.000000
   32       75.529826     75.529259   0.000000   0.000000
   33       75.529826     75.529260   0.000000   0.000000
   34       76.329642     76.329698   0.000000   0.000000
   35       76.864008     76.861907   0.000000   0.000000
   36       80.536745     80.536057   0.000000   0.000000
   37       80.536746     80.536059   0.000000   0.000000
   38       88.589581     88.585302   0.000000   0.000000
   39       88.877328     88.875194   0.000000   0.000000
   40       88.877328     88.875196   0.000000   0.000000
   41       89.207488     89.207786   0.000000   0.000000
   42       94.200712     94.200213   0.000000   0.000000
   43       95.095621     95.093599   0.000000   0.000000
   44       95.095622     95.093599   0.000000   0.000000
   45      101.185975    101.184819   0.000000   0.000000
   46      101.185975    101.184819   0.000000   0.000000
   47      105.124907    105.122198   0.000000   0.000000
   48      105.124907    105.122204   0.000000   0.000000

  0.9090909E-01  0.9090909E-01  0.1262379E-14  0.4507889E-02
    1       -2.852800     -2.854639   1.000000   1.000000
    2       18.631951     18.629359   0.000000   0.000000
    3       18.631951     18.629359   0.000000   0.000000
    4       18.931649     18.930701   0.000000   0.000000
    5       21.328304     21.323015   0.000000   0.000000
    6       24.291897     24.289097   0.000000   0.000000
    7       24.336173     24.331805   0.000000   0.000000
    8       24.336174     24.331805   0.000000   0.000000
    9       26.582826     26.582597   0.000000   0.000000
   10       27.591200     27.587229   0.000000   0.000000
   11       30.594305     30.590877   0.000000   0.000000
   12       32.856764     32.855842   0.000000   0.000000
   13       32.856764     32.855843   0.000000   0.000000
   14       35.566723     35.564427   0.000000   0.000000
   15       42.373651     42.371281   0.000000   0.000000
   16       55.179429     55.177734   0.000000   0.000000
   17       55.179429     55.177734   0.000000   0.000000
   18       55.403554     55.403356   0.000000   0.000000
   19       56.518236     56.517488   0.000000   0.000000
   20       57.448095     57.445605   0.000000   0.000000
   21       57.448095     57.445605   0.000000   0.000000
   22       57.854624     57.852787   0.000000   0.000000
   23       59.406653     59.403739   0.000000   0.000000
   24       62.754432     62.753831   0.000000   0.000000
   25       67.471204     67.467448   0.000000   0.000000
   26       67.471204     67.467448   0.000000   0.000000
   27       70.390551     70.388857   0.000000   0.000000
   28       70.433198     70.430568   0.000000   0.000000
   29       73.431465     73.430428   0.000000   0.000000
   30       73.431466     73.430428   0.000000   0.000000
   31       80.620747     80.618388   0.000000   0.000000
   32       82.570408     82.568175   0.000000   0.000000
   33       82.683592     82.680874   0.000000   0.000000
   34       82.683592     82.680874   0.000000   0.000000
   35       83.405156     83.401776   0.000000   0.000000
   36       84.125857     84.124478   0.000000   0.000000
   37       88.739027     88.741330   0.000000   0.000000
   38       90.078339     90.076044   0.000000   0.000000
   39       90.078339     90.076044   0.000000   0.000000
   40       90.110248     90.108292   0.000000   0.000000
   41       90.110248     90.108293   0.000000   0.000000
   42       92.128251     92.126035   0.000000   0.000000
   43       93.133776     93.128299   0.000000   0.000000
   44       94.402358     94.398125   0.000000   0.000000
   45       94.794615     94.794238   0.000000   0.000000
   46       97.777309     97.775977   0.000000   0.000000
   47       97.802813     97.801157   0.000000   0.000000
   48       97.803373     97.801195   0.000000   0.000000

  0.1818182E+00  0.9090909E-01  0.1261396E-14  0.1803156E-01
    1       -2.332159     -2.333998   1.000000   1.000000
    2       15.296288     15.294311   0.000000   0.000000
    3       17.705843     17.703181   0.000000   0.000000
    4       19.047090     19.045034   0.000000   0.000000
    5       21.665570     21.660360   0.000000   0.000000
    6       22.280760     22.278708   0.000000   0.000000
    7       24.715286     24.711853   0.000000   0.000000
    8       25.736026     25.731261   0.000000   0.000000
    9       27.075834     27.072700   0.000000   0.000000
   10       29.500506     29.498628   0.000000   0.000000
   11       29.951688     29.949574   0.000000   0.000000
   12       34.729703     34.728259   0.000000   0.000000
   13       35.037473     35.035671   0.000000   0.000000
   14       37.875300     37.872543   0.000000   0.000000
   15       44.420965     44.418822   0.000000   0.000000
   16       51.716619     51.714321   0.000000   0.000000
   17       52.804044     52.801912   0.000000   0.000000
   18       55.403142     55.402399   0.000000   0.000000
   19       55.657683     55.656725   0.000000   0.000000
   20       56.171582     56.170280   0.000000   0.000000
   21       56.994884     56.993471   0.000000   0.000000
   22       57.965943     57.963574   0.000000   0.000000
   23       59.368657     59.366015   0.000000   0.000000
   24       62.307006     62.305997   0.000000   0.000000
   25       67.462742     67.460614   0.000000   0.000000
   26       68.412923     68.409296   0.000000   0.000000
   27       71.313088     71.310271   0.000000   0.000000
   28       72.533946     72.532558   0.000000   0.000000
   29       72.577227     72.575580   0.000000   0.000000
   30       74.910297     74.908586   0.000000   0.000000
   31       77.297629     77.294991   0.000000   0.000000
   32       78.427238     78.423774   0.000000   0.000000
   33       80.658721     80.655822   0.000000   0.000000
   34       81.701675     81.699674   0.000000   0.000000
   35       82.483804     82.482099   0.000000   0.000000
   36       84.087009     84.086368   0.000000   0.000000
   37       86.208905     86.207374   0.000000   0.000000
   38       86.272399     86.270328   0.000000   0.000000
   39       89.140338     89.139411   0.000000   0.000000
   40       89.255922     89.254798   0.000000   0.000000
   41       89.779511     89.777988   0.000000   0.000000
   42       91.352449     91.351824   0.000000   0.000000
   43       93.739977     93.737710   0.000000   0.000000
   44       94.417685     94.414289   0.000000   0.000000
   45       94.516348     94.514564   0.000000   0.000000
   46       96.174792     96.173465   0.000000   0.000000
   47       97.032670     97.032344   0.000000   0.000000
   48       97.617299     97.615430   0.000000   0.000000

  0.2727273E+00  0.9090909E-01  0.1266963E-14  0.1803156E-01
    1       -1.370298     -1.372135   1.000000   1.000000
    2       11.821680     11.819735   0.000000   0.000000
    3       17.149680     17.146985   0.000000   0.000000
    4       18.706959     18.704554   0.000000   0.000000
    5       20.016069     20.012961   0.000000   0.000000
    6       23.795812     23.791655   0.000000   0.000000
    7       24.649527     24.646870   0.000000   0.000000
    8       24.757555     24.753808   0.000000   0.000000
    9       28.254378     28.251888   0.000000   0.000000
   10       28.539774     28.535885   0.000000   0.000000
   11       33.055635     33.053857   0.000000   0.000000
   12       38.084492     38.082447   0.000000   0.000000
   13       39.026460     39.024047   0.000000   0.000000
   14       40.879998     40.876936   0.000000   0.000000
   15       47.132141     47.130143   0.000000   0.000000
   16       47.326814     47.324905   0.000000   0.000000
   17       49.079711     49.077589   0.000000   0.000000
   18       53.669869     53.668854   0.000000   0.000000
   19       55.539478     55.538909   0.000000   0.000000
   20       56.174632     56.173416   0.000000   0.000000
   21       57.124451     57.122946   0.000000   0.000000
   22       58.543378     58.540873   0.000000   0.000000
   23       58.615647     58.613745   0.000000   0.000000
   24       62.525435     62.524156   0.000000   0.000000
   25       65.013455     65.010775   0.000000   0.000000
   26       68.782371     68.778671   0.000000   0.000000
   27       68.847855     68.845105   0.000000   0.000000
   28       71.529803     71.528599   0.000000   0.000000
   29       72.015307     72.014344   0.000000   0.000000
   30       73.725942     73.722706   0.000000   0.000000
   31       76.998658     76.995946   0.000000   0.000000
   32       77.121722     77.121144   0.000000   0.000000
   33       78.609650     78.607215   0.000000   0.000000
   34       80.686894     80.685744   0.000000   0.000000
   35       81.017022     81.015134   0.000000   0.000000
   36       81.477134     81.475872   0.000000   0.000000
   37       82.625699     82.625006   0.000000   0.000000
   38       86.748246     86.746255   0.000000   0.000000
   39       86.794074     86.791593   0.000000   0.000000
   40       87.047835     87.046622   0.000000   0.000000
   41       91.009231     91.007587   0.000000   0.000000
   42       92.379826     92.379604   0.000000   0.000000
   43       92.603351     92.601220   0.000000   0.000000
   44       94.138699     94.135553   0.000000   0.000000
   45       94.483691     94.481980   0.000000   0.000000
   46       97.273992     97.273051   0.000000   0.000000
   47       99.728282     99.727201   0.000000   0.000000
   48      100.798782    100.798317   0.000000   0.000000

  0.3636364E+00  0.9090909E-01  0.1237502E-14  0.1803156E-01
    1        0.024005      0.022170   1.000000   1.000000
    2        8.621055      8.619138   0.196705   0.197551
    3       16.970471     16.967745   0.000000   0.000000
    4       18.366501     18.364561   0.000000   0.000000
    5       18.618356     18.614848   0.000000   0.000000
    6       23.298648     23.295279   0.000000   0.000000
    7       24.394322     24.390622   0.000000   0.000000
    8       26.045965     26.043338   0.000000   0.000000
    9       27.216430     27.213463   0.000000   0.000000
   10       30.850662     30.846201   0.000000   0.000000
   11       36.280167     36.277902   0.000000   0.000000
   12       40.871807     40.869258   0.000000   0.000000
   13       43.232569     43.229340   0.000000   0.000000
   14       43.714671     43.711406   0.000000   0.000000
   15       44.217845     44.216483   0.000000   0.000000
   16       46.384511     46.383116   0.000000   0.000000
   17       49.784042     49.782123   0.000000   0.000000
   18       52.264790     52.264328   0.000000   0.000000
   19       55.631157     55.630486   0.000000   0.000000
   20       56.244253     56.243080   0.000000   0.000000
   21       56.667849     56.666171   0.000000   0.000000
   22       57.592901     57.591609   0.000000   0.000000
   23       59.154324     59.151551   0.000000   0.000000
   24       61.726187     61.723112   0.000000   0.000000
   25       63.220306     63.218985   0.000000   0.000000
   26       64.914998     64.911687   0.000000   0.000000
   27       66.456067     66.452988   0.000000   0.000000
   28       70.426860     70.426314   0.000000   0.000000
   29       70.481135     70.480175   0.000000   0.000000
   30       71.358899     71.355218   0.000000   0.000000
   31       72.603336     72.602041   0.000000   0.000000
   32       76.125352     76.124818   0.000000   0.000000
   33       77.156895     77.155987   0.000000   0.000000
   34       78.170904     78.170034   0.000000   0.000000
   35       80.580632     80.579473   0.000000   0.000000
   36       81.538932     81.537479   0.000000   0.000000
   37       83.332096     83.328756   0.000000   0.000000
   38       84.617498     84.616881   0.000000   0.000000
   39       87.283215     87.281411   0.000000   0.000000
   40       88.618482     88.616151   0.000000   0.000000
   41       92.517817     92.517269   0.000000   0.000000
   42       93.586335     93.583754   0.000000   0.000000
   43       93.726457     93.724587   0.000000   0.000000
   44       94.464181     94.462489   0.000000   0.000000
   45       96.183446     96.180705   0.000000   0.000000
   46       98.324100     98.322187   0.000000   0.000000
   47      101.136716    101.136413   0.000000   0.000000
   48      103.250020    103.249695   0.000000   0.000000

  0.4545455E+00  0.9090909E-01  0.1249509E-14  0.1803156E-01
    1        1.838046      1.836223   1.000000   1.000000
    2        5.764601      5.762689   1.045090   1.044836
    3       17.143264     17.140713   0.000000   0.000000
    4       17.170764     17.167989   0.000000   0.000000
    5       18.834170     18.831298   0.000000   0.000000
    6       22.121509     22.118334   0.000000   0.000000
    7       24.645010     24.640746   0.000000   0.000000
    8       25.336119     25.334684   0.000000   0.000000
    9       29.467919     29.463931   0.000000   0.000000
   10       32.730508     32.725166   0.000000   0.000000
   11       39.107187     39.104225   0.000000   0.000000
   12       39.153601     39.152369   0.000000   0.000000
   13       40.666667     40.664472   0.000000   0.000000
   14       47.122452     47.120467   0.000000   0.000000
   15       47.442943     47.440815   0.000000   0.000000
   16       48.741042     48.738465   0.000000   0.000000
   17       49.814643     49.812535   0.000000   0.000000
   18       54.205444     54.204018   0.000000   0.000000
   19       55.058915     55.058149   0.000000   0.000000
   20       55.666757     55.665555   0.000000   0.000000
   21       56.205667     56.204538   0.000000   0.000000
   22       56.812602     56.811487   0.000000   0.000000