       N       E                     dE             d eps       ncg     rms          rms(c)
DAV:   1    -0.362157021154E+01   -0.36216E+01   -0.94662E+02 15072   0.370E+01
DAV:   2    -0.368272465119E+01   -0.61154E-01   -0.61689E-01 14736   0.119E+00
DAV:   3    -0.368272774976E+01   -0.30986E-05   -0.32150E-05 14832   0.784E-03
DAV:   4    -0.368272774936E+01    0.40055E-09   -0.22294E-10 16944   0.155E-05
DAV:   5    -0.368272774889E+01    0.46475E-09    0.17643E-13 14016   0.480E-09    0.176E+00
RMM:   6    -0.375434916197E+01   -0.71621E-01   -0.25482E-03 10756   0.795E-02    0.832E-01
RMM:   7    -0.374594193463E+01    0.84072E-02   -0.10342E-03 11176   0.490E-02    0.675E-01
RMM:   8    -0.374587591633E+01    0.66018E-04   -0.21559E-04 11100   0.251E-02    0.218E-01
RMM:   9    -0.374587835680E+01   -0.24405E-05   -0.30530E-05 11603   0.855E-03
   1 F= -.37458784E+01 E0= -.37458784E+01  d E =0.000000E+00  mag=     0.0016
