<?xml version="1.0" encoding="ISO-8859-1"?>
<modeling>
 <generator>
  <i name="program" type="string">vasp </i>
  <i name="version" type="string">6.2.1  </i>
  <i name="subversion" type="string">16May21 (build Aug 15 2022 14:47:30) complex                          parallel </i>
  <i name="platform" type="string">LinuxGNU </i>
  <i name="date" type="string">2025 12 11 </i>
  <i name="time" type="string">13:44:16 </i>
 </generator>
 <incar>
  <i type="string" name="PREC">Accurate</i>
  <i type="string" name="ALGO">Fast</i>
  <i type="int" name="ISPIN">     2</i>
  <i type="int" name="NELM">   100</i>
  <i name="EDIFF">      0.00005000</i>
  <i type="int" name="NSW">     0</i>
  <i name="ENCUT">    550.00000000</i>
  <v name="MAGMOM">      0.60000000</v>
  <i type="logical" name="LREAL"> F  </i>
  <i type="int" name="ISMEAR">    -5</i>
  <i name="SIGMA">      0.05000000</i>
  <i type="logical" name="LWAVE"> F  </i>
  <i type="logical" name="LCHARG"> T  </i>
  <i type="int" name="LORBIT">    11</i>
  <i type="logical" name="LASPH"> T  </i>
 </incar>
 <primitive_cell>
  <structure name="primitive_cell" >
   <crystal>
    <varray name="basis" >
     <v>       0.00000000       2.02400000       2.02400000 </v>
     <v>       2.02400000       0.00000000       2.02400000 </v>
     <v>       2.02400000       2.02400000       0.00000000 </v>
    </varray>
    <i name="volume">     16.58293965 </i>
    <varray name="rec_basis" >
     <v>      -0.24703557       0.24703557       0.24703557 </v>
     <v>       0.24703557      -0.24703557       0.24703557 </v>
     <v>       0.24703557       0.24703557      -0.24703557 </v>
    </varray>
   </crystal>
   <varray name="positions" >
    <v>       0.00000000       0.00000000       0.00000000 </v>
   </varray>
  </structure>
  <varray name="primitive_index" >
   <v type="int" >        1 </v>
  </varray>
 </primitive_cell>
 <kpoints>
  <generation param="Gamma">
   <v type="int" name="divisions">      11       11       11 </v>
   <v name="usershift">      0.00000000       0.00000000       0.00000000 </v>
   <v name="genvec1">      0.09090909       0.00000000       0.00000000 </v>
   <v name="genvec2">      0.00000000       0.09090909       0.00000000 </v>
   <v name="genvec3">      0.00000000       0.00000000       0.09090909 </v>
   <v name="shift">      0.00000000       0.00000000       0.00000000 </v>
  </generation>
  <varray name="kpointlist" >
   <v>       0.00000000       0.00000000       0.00000000 </v>
   <v>       0.09090909       0.00000000       0.00000000 </v>
   <v>       0.18181818       0.00000000       0.00000000 </v>
   <v>       0.27272727       0.00000000       0.00000000 </v>
   <v>       0.36363636       0.00000000       0.00000000 </v>
   <v>       0.45454545       0.00000000       0.00000000 </v>
   <v>       0.09090909       0.09090909       0.00000000 </v>
   <v>       0.18181818       0.09090909       0.00000000 </v>
   <v>       0.27272727       0.09090909       0.00000000 </v>
   <v>       0.36363636       0.09090909       0.00000000 </v>
   <v>       0.45454545       0.09090909       0.00000000 </v>
   <v>      -0.45454545       0.09090909       0.00000000 </v>
   <v>      -0.36363636       0.09090909       0.00000000 </v>
   <v>      -0.27272727       0.09090909       0.00000000 </v>
   <v>      -0.18181818       0.09090909       0.00000000 </v>
   <v>      -0.09090909       0.09090909       0.00000000 </v>
   <v>       0.18181818       0.18181818       0.00000000 </v>
   <v>       0.27272727       0.18181818       0.00000000 </v>
   <v>       0.36363636       0.18181818       0.00000000 </v>
   <v>       0.45454545       0.18181818       0.00000000 </v>
   <v>      -0.45454545       0.18181818       0.00000000 </v>
   <v>      -0.36363636       0.18181818       0.00000000 </v>
   <v>      -0.27272727       0.18181818       0.00000000 </v>
   <v>      -0.18181818       0.18181818       0.00000000 </v>
   <v>       0.27272727       0.27272727       0.00000000 </v>
   <v>       0.36363636       0.27272727       0.00000000 </v>
   <v>       0.45454545       0.27272727       0.00000000 </v>
   <v>      -0.45454545       0.27272727       0.00000000 </v>
   <v>      -0.36363636       0.27272727       0.00000000 </v>
   <v>      -0.27272727       0.27272727       0.00000000 </v>
   <v>       0.36363636       0.36363636       0.00000000 </v>
   <v>       0.45454545       0.36363636       0.00000000 </v>
   <v>      -0.45454545       0.36363636       0.00000000 </v>
   <v>      -0.36363636       0.36363636       0.00000000 </v>
   <v>       0.45454545       0.45454545       0.00000000 </v>
   <v>      -0.45454545       0.45454545       0.00000000 </v>
   <v>       0.27272727       0.18181818       0.09090909 </v>
   <v>       0.36363636       0.18181818       0.09090909 </v>
   <v>       0.45454545       0.18181818       0.09090909 </v>
   <v>      -0.45454545       0.18181818       0.09090909 </v>
   <v>       0.36363636       0.27272727       0.09090909 </v>
   <v>       0.45454545       0.27272727       0.09090909 </v>
   <v>      -0.45454545       0.27272727       0.09090909 </v>
   <v>      -0.36363636       0.27272727       0.09090909 </v>
   <v>      -0.27272727       0.27272727       0.09090909 </v>
   <v>      -0.18181818       0.27272727       0.09090909 </v>
   <v>       0.45454545       0.36363636       0.09090909 </v>
   <v>      -0.45454545       0.36363636       0.09090909 </v>
   <v>      -0.36363636       0.36363636       0.09090909 </v>
   <v>      -0.27272727       0.36363636       0.09090909 </v>
   <v>      -0.45454545       0.45454545       0.09090909 </v>
   <v>      -0.36363636       0.45454545       0.09090909 </v>
   <v>      -0.45454545       0.36363636       0.18181818 </v>
   <v>      -0.36363636       0.36363636       0.18181818 </v>
   <v>      -0.36363636       0.45454545       0.18181818 </v>
   <v>      -0.27272727       0.45454545       0.18181818 </v>
  </varray>
  <varray name="weights" >
   <v>       0.00075131 </v>
   <v>       0.00601052 </v>
   <v>       0.00601052 </v>
   <v>       0.00601052 </v>
   <v>       0.00601052 </v>
   <v>       0.00601052 </v>
   <v>       0.00450789 </v>
   <v>       0.01803156 </v>
   <v>       0.01803156 </v>
   <v>       0.01803156 </v>
   <v>       0.01803156 </v>
   <v>       0.01803156 </v>
   <v>       0.01803156 </v>
   <v>       0.01803156 </v>
   <v>       0.01803156 </v>
   <v>       0.00901578 </v>
   <v>       0.00450789 </v>
   <v>       0.01803156 </v>
   <v>       0.01803156 </v>
   <v>       0.01803156 </v>
   <v>       0.01803156 </v>
   <v>       0.01803156 </v>
   <v>       0.01803156 </v>
   <v>       0.00901578 </v>
   <v>       0.00450789 </v>
   <v>       0.01803156 </v>
   <v>       0.01803156 </v>
   <v>       0.01803156 </v>
   <v>       0.01803156 </v>
   <v>       0.00901578 </v>
   <v>       0.00450789 </v>
   <v>       0.01803156 </v>
   <v>       0.01803156 </v>
   <v>       0.00901578 </v>
   <v>       0.00450789 </v>
   <v>       0.00901578 </v>
   <v>       0.01803156 </v>
   <v>       0.03606311 </v>
   <v>       0.03606311 </v>
   <v>       0.03606311 </v>
   <v>       0.01803156 </v>
   <v>       0.03606311 </v>
   <v>       0.03606311 </v>
   <v>       0.03606311 </v>
   <v>       0.03606311 </v>
   <v>       0.01803156 </v>
   <v>       0.01803156 </v>
   <v>       0.03606311 </v>
   <v>       0.03606311 </v>
   <v>       0.01803156 </v>
   <v>       0.01803156 </v>
   <v>       0.01803156 </v>
   <v>       0.01803156 </v>
   <v>       0.03606311 </v>
   <v>       0.01803156 </v>
   <v>       0.01803156 </v>
  </varray>
  <varray name="tetrahedronlist"  type="int" >
   <v type="int" >       24        1        2        2        7 </v>
   <v type="int" >       48        2        7        8       16 </v>
   <v type="int" >       48        2        3        8       16 </v>
   <v type="int" >       24        2        2        7       16 </v>
   <v type="int" >       48        3        8        9       15 </v>
   <v type="int" >       48        3        4        9       15 </v>
   <v type="int" >       48        3        8       15       16 </v>
   <v type="int" >       48        4        9       10       14 </v>
   <v type="int" >       48        4        5       10       14 </v>
   <v type="int" >       48        4        9       14       15 </v>
   <v type="int" >       48        5       10       11       13 </v>
   <v type="int" >       48        5        6       11       13 </v>
   <v type="int" >       48        5       10       13       14 </v>
   <v type="int" >       48        6       11       12       12 </v>
   <v type="int" >       24        6        6       12       12 </v>
   <v type="int" >       48        6       11       12       13 </v>
   <v type="int" >       24        7        8        8       17 </v>
   <v type="int" >       24        7        8        8       16 </v>
   <v type="int" >       48        8       17       18       37 </v>
   <v type="int" >       48        8        9       18       37 </v>
   <v type="int" >       48        8        9       15       37 </v>
   <v type="int" >       24        8        8       17       37 </v>
   <v type="int" >       24        8        8       16       37 </v>
   <v type="int" >       48        8       15       16       37 </v>
   <v type="int" >       48        9       18       19       38 </v>
   <v type="int" >       48        9       10       19       38 </v>
   <v type="int" >       48        9       10       14       38 </v>
   <v type="int" >       48        9       18       37       38 </v>
   <v type="int" >       48        9       15       37       38 </v>
   <v type="int" >       48        9       14       15       38 </v>
   <v type="int" >       48       10       19       20       39 </v>
   <v type="int" >       48       10       11       20       39 </v>
   <v type="int" >       48       10       11       13       39 </v>
   <v type="int" >       48       10       19       38       39 </v>
   <v type="int" >       48       10       14       38       39 </v>
   <v type="int" >       48       10       13       14       39 </v>
   <v type="int" >       48       11       20       21       40 </v>
   <v type="int" >       48       11       12       21       40 </v>
   <v type="int" >       48       11       12       12       40 </v>
   <v type="int" >       48       11       20       39       40 </v>
   <v type="int" >       48       11       13       39       40 </v>
   <v type="int" >       48       11       12       13       40 </v>
   <v type="int" >       48       12       21       22       40 </v>
   <v type="int" >       48       12       13       22       40 </v>
   <v type="int" >       48       12       21       40       40 </v>
   <v type="int" >       24       12       12       40       40 </v>
   <v type="int" >       48       13       22       23       39 </v>
   <v type="int" >       48       13       14       23       39 </v>
   <v type="int" >       48       13       22       39       40 </v>
   <v type="int" >       48       14       23       24       38 </v>
   <v type="int" >       48       14       15       24       38 </v>
   <v type="int" >       48       14       23       38       39 </v>
   <v type="int" >       24       15       15       24       37 </v>
   <v type="int" >       24       15       15       16       37 </v>
   <v type="int" >       48       15       24       37       38 </v>
   <v type="int" >       24       17       18       18       25 </v>
   <v type="int" >       24       17       18       18       37 </v>
   <v type="int" >       48       18       25       26       41 </v>
   <v type="int" >       48       18       19       26       41 </v>
   <v type="int" >       48       18       19       38       41 </v>
   <v type="int" >       24       18       18       25       41 </v>
   <v type="int" >       24       18       18       37       41 </v>
   <v type="int" >       48       18       37       38       41 </v>
   <v type="int" >       48       19       26       27       42 </v>
   <v type="int" >       48       19       20       27       42 </v>
   <v type="int" >       48       19       20       39       42 </v>
   <v type="int" >       48       19       26       41       42 </v>
   <v type="int" >       48       19       38       41       42 </v>
   <v type="int" >       48       19       38       39       42 </v>
   <v type="int" >       48       20       27       28       43 </v>
   <v type="int" >       48       20       21       28       43 </v>
   <v type="int" >       48       20       21       40       43 </v>
   <v type="int" >       48       20       27       42       43 </v>
   <v type="int" >       48       20       39       42       43 </v>
   <v type="int" >       48       20       39       40       43 </v>
   <v type="int" >       48       21       28       29       44 </v>
   <v type="int" >       48       21       22       29       44 </v>
   <v type="int" >       48       21       22       40       44 </v>
   <v type="int" >       48       21       28       43       44 </v>
   <v type="int" >       48       21       40       43       44 </v>
   <v type="int" >       48       21       40       40       44 </v>
   <v type="int" >       48       22       29       30       45 </v>
   <v type="int" >       48       22       23       30       45 </v>
   <v type="int" >       48       22       23       39       45 </v>
   <v type="int" >       48       22       29       44       45 </v>
   <v type="int" >       48       22       40       44       45 </v>
   <v type="int" >       48       22       39       40       45 </v>
   <v type="int" >       24       23       23       30       46 </v>
   <v type="int" >       24       23       23       24       46 </v>
   <v type="int" >       48       23       24       38       46 </v>
   <v type="int" >       48       23       30       45       46 </v>
   <v type="int" >       48       23       39       45       46 </v>
   <v type="int" >       48       23       38       39       46 </v>
   <v type="int" >       24       24       38       38       46 </v>
   <v type="int" >       24       24       37       38       38 </v>
   <v type="int" >       24       25       26       26       31 </v>
   <v type="int" >       24       25       26       26       41 </v>
   <v type="int" >       48       26       31       32       47 </v>
   <v type="int" >       48       26       27       32       47 </v>
   <v type="int" >       48       26       27       42       47 </v>
   <v type="int" >       24       26       26       31       47 </v>
   <v type="int" >       24       26       26       41       47 </v>
   <v type="int" >       48       26       41       42       47 </v>
   <v type="int" >       48       27       32       33       48 </v>
   <v type="int" >       48       27       28       33       48 </v>
   <v type="int" >       48       27       28       43       48 </v>
   <v type="int" >       48       27       32       47       48 </v>
   <v type="int" >       48       27       42       47       48 </v>
   <v type="int" >       48       27       42       43       48 </v>
   <v type="int" >       48       28       33       34       49 </v>
   <v type="int" >       48       28       29       34       49 </v>
   <v type="int" >       48       28       29       44       49 </v>
   <v type="int" >       48       28       33       48       49 </v>
   <v type="int" >       48       28       43       48       49 </v>
   <v type="int" >       48       28       43       44       49 </v>
   <v type="int" >       24       29       29       34       50 </v>
   <v type="int" >       24       29       29       30       50 </v>
   <v type="int" >       48       29       30       45       50 </v>
   <v type="int" >       48       29       34       49       50 </v>
   <v type="int" >       48       29       44       49       50 </v>
   <v type="int" >       48       29       44       45       50 </v>
   <v type="int" >       24       30       45       45       50 </v>
   <v type="int" >       24       30       45       45       46 </v>
   <v type="int" >       24       31       32       32       35 </v>
   <v type="int" >       24       31       32       32       47 </v>
   <v type="int" >       48       32       35       36       51 </v>
   <v type="int" >       48       32       33       36       51 </v>
   <v type="int" >       48       32       33       48       51 </v>
   <v type="int" >       24       32       32       35       51 </v>
   <v type="int" >       24       32       32       47       51 </v>
   <v type="int" >       48       32       47       48       51 </v>
   <v type="int" >       24       33       33       36       52 </v>
   <v type="int" >       24       33       33       34       52 </v>
   <v type="int" >       48       33       34       49       52 </v>
   <v type="int" >       48       33       36       51       52 </v>
   <v type="int" >       48       33       48       51       52 </v>
   <v type="int" >       48       33       48       49       52 </v>
   <v type="int" >       24       34       49       49       52 </v>
   <v type="int" >       24       34       49       49       50 </v>
   <v type="int" >       12       35       35       36       36 </v>
   <v type="int" >       24       35       36       36       51 </v>
   <v type="int" >       12       36       36       51       51 </v>
   <v type="int" >       24       36       51       51       52 </v>
   <v type="int" >       24       37       38       38       41 </v>
   <v type="int" >       48       38       41       42       46 </v>
   <v type="int" >       48       38       39       42       46 </v>
   <v type="int" >       24       38       38       41       46 </v>
   <v type="int" >       48       39       42       43       45 </v>
   <v type="int" >       48       39       40       43       45 </v>
   <v type="int" >       48       39       42       45       46 </v>
   <v type="int" >       48       40       43       44       44 </v>
   <v type="int" >       24       40       40       44       44 </v>
   <v type="int" >       48       40       43       44       45 </v>
   <v type="int" >       24       41       42       42       47 </v>
   <v type="int" >       24       41       42       42       46 </v>
   <v type="int" >       48       42       47       48       53 </v>
   <v type="int" >       48       42       43       48       53 </v>
   <v type="int" >       48       42       43       45       53 </v>
   <v type="int" >       24       42       42       47       53 </v>
   <v type="int" >       24       42       42       46       53 </v>
   <v type="int" >       48       42       45       46       53 </v>
   <v type="int" >       48       43       48       49       54 </v>
   <v type="int" >       48       43       44       49       54 </v>
   <v type="int" >       48       43       44       44       54 </v>
   <v type="int" >       48       43       48       53       54 </v>
   <v type="int" >       48       43       45       53       54 </v>
   <v type="int" >       48       43       44       45       54 </v>
   <v type="int" >       48       44       49       50       54 </v>
   <v type="int" >       48       44       45       50       54 </v>
   <v type="int" >       48       44       49       54       54 </v>
   <v type="int" >       24       44       44       54       54 </v>
   <v type="int" >       24       45       45       50       53 </v>
   <v type="int" >       24       45       45       46       53 </v>
   <v type="int" >       48       45       50       53       54 </v>
   <v type="int" >       24       47       48       48       51 </v>
   <v type="int" >       24       47       48       48       53 </v>
   <v type="int" >       48       48       51       52       55 </v>
   <v type="int" >       48       48       49       52       55 </v>
   <v type="int" >       48       48       49       54       55 </v>
   <v type="int" >       24       48       48       51       55 </v>
   <v type="int" >       24       48       48       53       55 </v>
   <v type="int" >       48       48       53       54       55 </v>
   <v type="int" >       24       49       49       52       56 </v>
   <v type="int" >       24       49       49       50       56 </v>
   <v type="int" >       48       49       50       54       56 </v>
   <v type="int" >       48       49       52       55       56 </v>
   <v type="int" >       48       49       54       55       56 </v>
   <v type="int" >       48       49       54       54       56 </v>
   <v type="int" >       24       50       54       54       56 </v>
   <v type="int" >       24       50       53       54       54 </v>
   <v type="int" >       12       51       51       52       52 </v>
   <v type="int" >       24       51       52       52       55 </v>
   <v type="int" >       12       52       52       55       55 </v>
   <v type="int" >       24       52       55       55       56 </v>
   <v type="int" >       24       53       54       54       55 </v>
   <v type="int" >       48       54       55       56       56 </v>
   <v type="int" >       24       54       54       56       56 </v>
   <v type="int" >       24       54       54       55       56 </v>
   <v type="int" >       12       55       55       56       56 </v>
   <v type="int" >       24       55       56       56       56 </v>
   <v type="int" >        6       56       56       56       56 </v>
  </varray>
  <i name="volumeweight">      0.00012522 </i>
 </kpoints>
 <parameters>
  <separator name="general" >
   <i type="string" name="SYSTEM">unknown system</i>
   <i type="logical" name="LCOMPAT"> F  </i>
  </separator>
  <separator name="electronic" >
   <i type="string" name="PREC">accura</i>
   <i name="ENMAX">    550.00000000</i>
   <i name="ENAUG">    291.05200000</i>
   <i name="EDIFF">      0.00005000</i>
   <i type="int" name="IALGO">    68</i>
   <i type="int" name="IWAVPR">    10</i>
   <i type="int" name="NBANDS">    48</i>
   <i type="int" name="NBANDSLOW">    -1</i>
   <i type="int" name="NBANDSHIGH">    -1</i>
   <i name="NELECT">      3.00000000</i>
   <i type="int" name="TURBO">     0</i>
   <i type="int" name="IRESTART">     0</i>
   <i type="int" name="NREBOOT">     0</i>
   <i type="int" name="NMIN">     0</i>
   <i name="EREF">      0.00000000</i>
   <separator name="electronic smearing" >
    <i type="int" name="ISMEAR">    -5</i>
    <i name="SIGMA">      0.05000000</i>
    <i name="KSPACING">      0.50000000</i>
    <i type="logical" name="KGAMMA"> T  </i>
    <i type="logical" name="KBLOWUP"> T  </i>
   </separator>
   <separator name="electronic projectors" >
    <i type="logical" name="LREAL"> F  </i>
    <v name="ROPT">      0.00000000</v>
    <i type="int" name="LMAXPAW">  -100</i>
    <i type="int" name="LMAXMIX">     2</i>
    <i type="logical" name="NLSPLINE"> F  </i>
   </separator>
   <separator name="electronic startup" >
    <i type="int" name="ISTART">     0</i>
    <i type="int" name="ICHARG">     2</i>
    <i type="int" name="INIWAV">     1</i>
   </separator>
   <separator name="electronic spin" >
    <i type="int" name="ISPIN">     2</i>
    <i type="logical" name="LNONCOLLINEAR"> F  </i>
    <v name="MAGMOM">      0.60000000</v>
    <i name="NUPDOWN">     -1.00000000</i>
    <i type="logical" name="LSORBIT"> F  </i>
    <v name="SAXIS">      0.00000000      0.00000000      1.00000000</v>
    <i type="logical" name="LSPIRAL"> F  </i>
    <v name="QSPIRAL">      0.00000000      0.00000000      0.00000000</v>
    <i type="logical" name="LZEROZ"> F  </i>
   </separator>
   <separator name="electronic exchange-correlation" >
    <i type="logical" name="LASPH"> T  </i>
    <i type="logical" name="LMETAGGA"> F  </i>
   </separator>
   <separator name="electronic convergence" >
    <i type="int" name="NELM">   100</i>
    <i type="int" name="NELMDL">    -5</i>
    <i type="int" name="NELMIN">     2</i>
    <i name="ENINI">    550.00000000</i>
    <separator name="electronic convergence detail" >
     <i type="logical" name="LDIAG"> T  </i>
     <i type="logical" name="LSUBROT"> F  </i>
     <i name="WEIMIN">      0.00000000</i>
     <i name="EBREAK">      0.00000026</i>
     <i name="DEPER">      0.30000000</i>
     <i type="int" name="NRMM">     4</i>
     <i name="TIME">      0.40000000</i>
    </separator>
   </separator>
   <separator name="electronic mixer" >
    <i name="AMIX">      0.40000000</i>
    <i name="BMIX">      1.00000000</i>
    <i name="AMIN">      0.10000000</i>
    <i name="AMIX_MAG">      1.60000000</i>
    <i name="BMIX_MAG">      1.00000000</i>
    <separator name="electronic mixer details" >
     <i type="int" name="IMIX">     4</i>
     <i type="logical" name="MIXFIRST"> F  </i>
     <i type="int" name="MAXMIX">   -45</i>
     <i name="WC">    100.00000000</i>
     <i type="int" name="INIMIX">     1</i>
     <i type="int" name="MIXPRE">     1</i>
     <i type="int" name="MREMOVE">     5</i>
    </separator>
   </separator>
   <separator name="electronic dipolcorrection" >
    <i type="logical" name="LDIPOL"> F  </i>
    <i type="logical" name="LMONO"> F  </i>
    <i type="int" name="IDIPOL">     0</i>
    <i name="EPSILON">      1.00000000</i>
    <v name="DIPOL">   -100.00000000   -100.00000000   -100.00000000</v>
    <i name="EFIELD">      0.00000000</i>
   </separator>
  </separator>
  <separator name="grids" >
   <i type="int" name="NGX">    24</i>
   <i type="int" name="NGY">    24</i>
   <i type="int" name="NGZ">    24</i>
   <i type="int" name="NGXF">    48</i>
   <i type="int" name="NGYF">    48</i>
   <i type="int" name="NGZF">    48</i>
   <i type="logical" name="ADDGRID"> F  </i>
  </separator>
  <separator name="ionic" >
   <i type="int" name="NSW">     0</i>
   <i type="int" name="IBRION">    -1</i>
   <i type="int" name="MDALGO">     0</i>
   <i type="int" name="ISIF">     2</i>
   <i name="PSTRESS">      0.00000000</i>
   <i name="EDIFFG">      0.00050000</i>
   <i type="int" name="NFREE">     0</i>
   <i name="POTIM">      0.50000000</i>
   <i name="SMASS">     -3.00000000</i>
   <i name="SCALEE">      1.00000000</i>
  </separator>
  <separator name="ionic md" >
   <i name="TEBEG">      0.00010000</i>
   <i name="TEEND">      0.00010000</i>
   <i type="int" name="NBLOCK">     1</i>
   <i type="int" name="KBLOCK">     1</i>
   <i type="int" name="NPACO">   256</i>
   <i name="APACO">     16.00000000</i>
  </separator>
  <separator name="symmetry" >
   <i type="int" name="ISYM">     2</i>
   <i name="SYMPREC">      0.00001000</i>
  </separator>
  <separator name="dos" >
   <i type="int" name="LORBIT">    11</i>
   <v name="RWIGS">     -1.00000000</v>
   <i type="int" name="NEDOS">   301</i>
   <i name="EMIN">     10.00000000</i>
   <i name="EMAX">    -10.00000000</i>
   <i name="EFERMI">      0.00000000</i>
  </separator>
  <separator name="writing" >
   <i type="int" name="NWRITE">     2</i>
   <i type="logical" name="LWAVE"> F  </i>
   <i type="logical" name="LDOWNSAMPLE"> F  </i>
   <i type="logical" name="LCHARG"> T  </i>
   <i type="logical" name="LPARD"> F  </i>
   <i type="logical" name="LVTOT"> F  </i>
   <i type="logical" name="LVHAR"> F  </i>
   <i type="logical" name="LELF"> F  </i>
   <i type="logical" name="LOPTICS"> F  </i>
   <v name="STM">      0.00000000      0.00000000      0.00000000      0.00000000      0.00000000      0.00000000      0.00000000</v>
  </separator>
  <separator name="performance" >
   <i type="int" name="NPAR">    48</i>
   <i type="int" name="NSIM">     4</i>
   <i type="int" name="NBLK">    -1</i>
   <i type="logical" name="LPLANE"> T  </i>
   <i type="logical" name="LSCALAPACK"> T  </i>
   <i type="logical" name="LSCAAWARE"> T  </i>
   <i type="logical" name="LSCALU"> F  </i>
   <i type="logical" name="LASYNC"> F  </i>
   <i type="logical" name="LORBITALREAL"> F  </i>
  </separator>
  <separator name="miscellaneous" >
   <i type="int" name="IDIOT">     3</i>
   <i type="int" name="PHON_NSTRUCT">    -1</i>
   <i type="logical" name="LMUSIC"> F  </i>
   <v name="POMASS">     26.98100000</v>
   <v name="DARWINR">      0.00000000</v>
   <v name="DARWINV">      1.00000000</v>
   <i type="logical" name="LCORR"> T  </i>
  </separator>
  <i type="logical" name="GGA_COMPAT"> T  </i>
  <i type="logical" name="LBERRY"> F  </i>
  <i type="int" name="ICORELEVEL">     0</i>
  <i type="logical" name="LDAU"> F  </i>
  <i type="int" name="I_CONSTRAINED_M">     0</i>
  <separator name="electronic exchange-correlation" >
   <i type="string" name="GGA">--</i>
   <i type="int" name="VOSKOWN">     0</i>
   <i type="logical" name="LHFCALC"> F  </i>
   <i type="string" name="PRECFOCK"></i>
   <i type="logical" name="LSYMGRAD"> F  </i>
   <i type="logical" name="LHFONE"> F  </i>
   <i type="logical" name="LRHFCALC"> F  </i>
   <i type="logical" name="LTHOMAS"> F  </i>
   <i type="logical" name="LMODELHF"> F  </i>
   <i type="logical" name="LFOCKACE"> F  </i>
   <i name="ENCUT4O">     -1.00000000</i>
   <i type="int" name="EXXOEP">     0</i>
   <i type="int" name="FOURORBIT">     0</i>
   <i name="AEXX">      0.00000000</i>
   <i name="HFALPHA">      0.00000000</i>
   <i name="MCALPHA">      0.00000000</i>
   <i name="ALDAX">      1.00000000</i>
   <i name="AGGAX">      1.00000000</i>
   <i name="ALDAC">      1.00000000</i>
   <i name="AGGAC">      1.00000000</i>
   <i type="int" name="NKREDX">     1</i>
   <i type="int" name="NKREDY">     1</i>
   <i type="int" name="NKREDZ">     1</i>
   <i type="logical" name="SHIFTRED"> F  </i>
   <i type="logical" name="ODDONLY"> F  </i>
   <i type="logical" name="EVENONLY"> F  </i>
   <i type="int" name="LMAXFOCK">     0</i>
   <i type="int" name="NMAXFOCKAE">     0</i>
   <i type="logical" name="LFOCKAEDFT"> F  </i>
   <i name="HFSCREEN">      0.00000000</i>
   <i name="HFSCREENC">      0.00000000</i>
   <i type="int" name="NBANDSGWLOW">     0</i>
  </separator>
  <separator name="vdW DFT" >
   <i type="logical" name="LUSE_VDW"> F  </i>
   <i name="Zab_VDW">     -0.84910000</i>
   <i name="PARAM1">      0.12340000</i>
   <i name="PARAM2">      1.00000000</i>
   <i name="PARAM3">      0.00000000</i>
  </separator>
  <separator name="model GW" >
   <i type="int" name="MODEL_GW">     0</i>
   <i name="MODEL_EPS0">      9.94976379</i>
   <i name="MODEL_ALPHA">      1.00000000</i>
  </separator>
  <separator name="linear response parameters" >
   <i type="logical" name="LEPSILON"> F  </i>
   <i type="logical" name="LRPA"> F  </i>
   <i type="logical" name="LNABLA"> F  </i>
   <i type="logical" name="LVEL"> F  </i>
   <i type="int" name="KINTER">     0</i>
   <i name="CSHIFT">      0.10000000</i>
   <i name="OMEGAMAX">     -1.00000000</i>
   <i name="DEG_THRESHOLD">      0.00200000</i>
   <i name="RTIME">     -0.10000000</i>
   <i name="WPLASMAI">      0.00000000</i>
   <v name="DFIELD">      0.00000000      0.00000000      0.00000000</v>
   <v name="WPLASMA">      0.00000000      0.00000000      0.00000000      0.00000000      0.00000000      0.00000000      0.00000000      0.00000000      0.00000000</v>
  </separator>
  <separator name="orbital magnetization" >
   <i type="logical" name="NUCIND"> F  </i>
   <v name="MAGPOS">      0.00000000      0.00000000      0.00000000</v>
   <i type="logical" name="LNICSALL"> T  </i>
   <i type="logical" name="ORBITALMAG"> F  </i>
   <i type="logical" name="LMAGBLOCH"> F  </i>
   <i type="logical" name="LCHIMAG"> F  </i>
   <i type="logical" name="LGAUGE"> T  </i>
   <i type="int" name="MAGATOM">     0</i>
   <v name="MAGDIPOL">      0.00000000      0.00000000      0.00000000</v>
   <v name="AVECCONST">      0.00000000      0.00000000      0.00000000</v>
  </separator>
  <separator name="response functions" >
   <i type="logical" name="LFINITE_TEMPERATURE"> F  </i>
   <i type="logical" name="LADDER"> F  </i>
   <i type="logical" name="LRPAFORCE"> F  </i>
   <i type="logical" name="LFXC"> F  </i>
   <i type="logical" name="LHARTREE"> T  </i>
   <i type="int" name="IBSE">     0</i>
   <v type="int" name="KPOINT">    -1     0     0     0</v>
   <i type="logical" name="LTCTC"> F  </i>
   <i type="logical" name="LTCTE"> F  </i>
   <i type="logical" name="LTETE"> F  </i>
   <i type="logical" name="LTRIPLET"> F  </i>
   <i type="logical" name="LFXCEPS"> F  </i>
   <i type="logical" name="LFXHEG"> F  </i>
   <i type="int" name="NATURALO">     2</i>
   <i type="logical" name="LHOLEGF"> F  </i>
   <i type="logical" name="L2ORDER"> F  </i>
   <i type="logical" name="LDMP1"> F  </i>
   <i type="logical" name="LMP2LT"> F  </i>
   <i type="logical" name="LSMP2LT"> F  </i>
   <i type="logical" name="LGWLF"> F  </i>
   <i name="ENCUTGW">     -2.00000000</i>
   <i name="ENCUTGWSOFT">     -2.00000000</i>
   <i name="ENCUTLF">     -1.00000000</i>
   <i type="logical" name="LESF_SPLINES"> F  </i>
   <i type="int" name="LMAXMP2">    -1</i>
   <i name="SCISSOR">      0.00000000</i>
   <i type="int" name="NOMEGA">     0</i>
   <i type="int" name="NOMEGAR">     0</i>
   <i type="int" name="NBANDSGW">    -1</i>
   <i type="int" name="NBANDSO">    -1</i>
   <i type="int" name="NBANDSV">    -1</i>
   <i type="int" name="NELM">   100</i>
   <i type="int" name="NELMHF">     1</i>
   <i type="int" name="DIM">     3</i>
   <i type="int" name="IESPILON">     4</i>
   <i type="int" name="ANTIRES">     0</i>
   <i name="OMEGAMAX">    -30.00000000</i>
   <i name="OMEGAMIN">    -30.00000000</i>
   <i name="OMEGATL">   -200.00000000</i>
   <i type="int" name="OMEGAGRID">     0</i>
   <i name="CSHIFT">     -0.10000000</i>
   <i type="logical" name="LSELFENERGY"> F  </i>
   <i type="logical" name="LSPECTRAL"> F  </i>
   <i type="logical" name="LSPECTRALGW"> F  </i>
   <i type="logical" name="LSINGLES"> F  </i>
   <i type="logical" name="LFERMIGW"> F  </i>
   <i type="logical" name="ODDONLYGW"> F  </i>
   <i type="logical" name="EVENONLYGW"> F  </i>
   <i type="int" name="NKREDLFX">     1</i>
   <i type="int" name="NKREDLFY">     1</i>
   <i type="int" name="NKREDLFZ">     1</i>
   <i type="int" name="MAXMEM">  2800</i>
   <i type="int" name="TELESCOPE">     0</i>
   <i type="int" name="NTAUPAR">    -1</i>
   <i type="int" name="NOMEGAPAR">    -1</i>
   <i name="DAMP_NEWTON">      0.80000001</i>
   <i name="LAMBDA">      1.00000000</i>
  </separator>
  <separator name="External order field" >
   <i name="OFIELD_KAPPA">      0.00000000</i>
   <v name="OFIELD_K">      0.00000000      0.00000000      0.00000000</v>
   <i name="OFIELD_Q6_NEAR">      0.00000000</i>
   <i name="OFIELD_Q6_FAR">      0.00000000</i>
   <i name="OFIELD_A">      0.00000000</i>
  </separator>
 </parameters>
 <atominfo>
  <atoms>       1 </atoms>
  <types>       1 </types>
  <array name="atoms" >
   <dimension dim="1">ion</dimension>
   <field type="string">element</field>
   <field type="int">atomtype</field>
   <set>
    <rc><c>Al</c><c>   1</c></rc>
   </set>
  </array>
  <array name="atomtypes" >
   <dimension dim="1">type</dimension>
   <field type="int">atomspertype</field>
   <field type="string">element</field>
   <field>mass</field>
   <field>valence</field>
   <field type="string">pseudopotential</field>
   <set>
    <rc><c>   1</c><c>Al</c><c>     26.98100000</c><c>      3.00000000</c><c>  PAW_PBE Al 04Jan2001                  </c></rc>
   </set>
  </array>
 </atominfo>
 <structure name="initialpos" >
  <crystal>
   <varray name="basis" >
    <v>       0.00000000       2.02400000       2.02400000 </v>
    <v>       2.02400000       0.00000000       2.02400000 </v>
    <v>       2.02400000       2.02400000       0.00000000 </v>
   </varray>
   <i name="volume">     16.58293965 </i>
   <varray name="rec_basis" >
    <v>      -0.24703557       0.24703557       0.24703557 </v>
    <v>       0.24703557      -0.24703557       0.24703557 </v>
    <v>       0.24703557       0.24703557      -0.24703557 </v>
   </varray>
  </crystal>
  <varray name="positions" >
   <v>       0.00000000       0.00000000       0.00000000 </v>
  </varray>
 </structure>
 <calculation>
  <scstep>
   <time name="dav">    8.75    8.75</time>
   <time name="total">    8.98    8.98</time>
   <energy>
    <i name="alphaZ">     -0.20254611 </i>
    <i name="ewald">    -73.39295237 </i>
    <i name="hartreedc">     -0.10329695 </i>
    <i name="XCdc">    -26.19545267 </i>
    <i name="pawpsdc">     66.16230985 </i>
    <i name="pawaedc">    -34.20858819 </i>
    <i name="eentropy">      0.00000000 </i>
    <i name="bandstr">     10.78044387 </i>
    <i name="atom">     53.53851237 </i>
    <i name="e_fr_energy">     -3.62157021 </i>
    <i name="e_wo_entrp">     -3.62157021 </i>
    <i name="e_0_energy">     -3.62157021 </i>
   </energy>
  </scstep>
  <scstep>
   <time name="dav">    8.72    8.72</time>
   <time name="total">    8.76    8.76</time>
   <energy>
    <i name="e_fr_energy">     -3.68272465 </i>
    <i name="e_wo_entrp">     -3.68272465 </i>
    <i name="e_0_energy">     -3.68272465 </i>
   </energy>
  </scstep>
  <scstep>
   <time name="dav">   10.21   10.21</time>
   <time name="total">   10.25   10.25</time>
   <energy>
    <i name="e_fr_energy">     -3.68272775 </i>
    <i name="e_wo_entrp">     -3.68272775 </i>
    <i name="e_0_energy">     -3.68272775 </i>
   </energy>
  </scstep>
  <scstep>
   <time name="dav">   13.36   13.36</time>
   <time name="total">   13.41   13.41</time>
   <energy>
    <i name="e_fr_energy">     -3.68272775 </i>
    <i name="e_wo_entrp">     -3.68272775 </i>
    <i name="e_0_energy">     -3.68272775 </i>
   </energy>
  </scstep>
  <scstep>
   <time name="dav">    9.30    9.30</time>
   <time name="total">    9.39    9.39</time>
   <energy>
    <i name="e_fr_energy">     -3.68272775 </i>
    <i name="e_wo_entrp">     -3.68272775 </i>
    <i name="e_0_energy">     -3.68272775 </i>
   </energy>
  </scstep>
  <scstep>
   <time name="diag">    0.37    0.38</time>
   <time name="diis">    0.22    0.22</time>
   <time name="orth">    0.05    0.05</time>
   <time name="total">    0.91    0.91</time>
   <energy>
    <i name="e_fr_energy">     -3.75434916 </i>
    <i name="e_wo_entrp">     -3.75434916 </i>
    <i name="e_0_energy">     -3.75434916 </i>
   </energy>
  </scstep>
  <scstep>
   <time name="diag">    0.37    0.37</time>
   <time name="diis">    0.26    0.26</time>
   <time name="orth">    0.05    0.05</time>
   <time name="total">    0.94    0.94</time>
   <energy>
    <i name="e_fr_energy">     -3.74594193 </i>
    <i name="e_wo_entrp">     -3.74594193 </i>
    <i name="e_0_energy">     -3.74594193 </i>
   </energy>
  </scstep>
  <scstep>
   <time name="diag">    0.37    0.37</time>
   <time name="diis">    0.24    0.24</time>
   <time name="orth">    0.05    0.05</time>
   <time name="total">    0.91    0.91</time>
   <energy>
    <i name="e_fr_energy">     -3.74587592 </i>
    <i name="e_wo_entrp">     -3.74587592 </i>
    <i name="e_0_energy">     -3.74587592 </i>
   </energy>
  </scstep>
  <scstep>
   <time name="diag">    0.35    0.35</time>
   <time name="diis">    0.29    0.29</time>
   <time name="orth">    0.05    0.05</time>
   <time name="total">    0.89    0.89</time>
   <energy>
    <i name="alphaZ">     -0.20254611 </i>
    <i name="ewald">    -73.39295237 </i>
    <i name="hartreedc">     -0.10530984 </i>
    <i name="XCdc">    -26.14034491 </i>
    <i name="pawpsdc">    145.48318535 </i>
    <i name="pawaedc">   -113.53837242 </i>
    <i name="eentropy">      0.00000000 </i>
    <i name="bandstr">     10.61194958 </i>
    <i name="atom">     53.53851237 </i>
    <i name="e_fr_energy">     -3.74587836 </i>
    <i name="e_wo_entrp">     -3.74587836 </i>
    <i name="e_0_energy">     -3.74587836 </i>
   </energy>
  </scstep>
  <structure>
   <crystal>
    <varray name="basis" >
     <v>       0.00000000       2.02400000       2.02400000 </v>
     <v>       2.02400000       0.00000000       2.02400000 </v>
     <v>       2.02400000       2.02400000       0.00000000 </v>
    </varray>
    <i name="volume">     16.58293965 </i>
    <varray name="rec_basis" >
     <v>      -0.24703557       0.24703557       0.24703557 </v>
     <v>       0.24703557      -0.24703557       0.24703557 </v>
     <v>       0.24703557       0.24703557      -0.24703557 </v>
    </varray>
   </crystal>
   <varray name="positions" >
    <v>       0.00000000       0.00000000       0.00000000 </v>
   </varray>
  </structure>
  <varray name="forces" >
   <v>       0.00000000      -0.00000000       0.00000000 </v>
  </varray>
  <varray name="stress" >
   <v>      -9.02764444      -0.00000000      -0.00000000 </v>
   <v>       0.00000000      -9.02764444      -0.00000000 </v>
   <v>       0.00000000       0.00000000      -9.02764444 </v>
  </varray>
  <energy>
   <i name="e_fr_energy">     -3.74587836 </i>
   <i name="e_wo_entrp">     -3.74587836 </i>
   <i name="e_0_energy">     -3.74587836 </i>
  </energy>
  <time name="totalsc">   55.03   55.04</time>
  <eigenvalues>
   <array>
    <dimension dim="1">band</dimension>
    <dimension dim="2">kpoint</dimension>
    <dimension dim="3">spin</dimension>
    <field>eigene</field>
    <field>occ</field>
    <set>
     <set comment="spin 1">
      <set comment="kpoint 1">
       <r>   -3.1512    1.0000 </r>
       <r>   20.5405    0.0000 </r>
       <r>   20.5405    0.0000 </r>
       <r>   20.5405    0.0000 </r>
       <r>   21.9953    0.0000 </r>
       <r>   21.9953    0.0000 </r>
       <r>   21.9953    0.0000 </r>
       <r>   24.3777    0.0000 </r>
       <r>   27.3152    0.0000 </r>
       <r>   27.3152    0.0000 </r>
       <r>   30.1607    0.0000 </r>
       <r>   32.5110    0.0000 </r>
       <r>   32.5110    0.0000 </r>
       <r>   32.5110    0.0000 </r>
       <r>   41.0634    0.0000 </r>
       <r>   55.9946    0.0000 </r>
       <r>   55.9946    0.0000 </r>
       <r>   55.9946    0.0000 </r>
       <r>   56.0460    0.0000 </r>
       <r>   59.2119    0.0000 </r>
       <r>   59.2119    0.0000 </r>
       <r>   59.2119    0.0000 </r>
       <r>   62.8326    0.0000 </r>
       <r>   62.8326    0.0000 </r>
       <r>   65.0763    0.0000 </r>
       <r>   65.0763    0.0000 </r>
       <r>   65.0763    0.0000 </r>
       <r>   73.1736    0.0000 </r>
       <r>   73.1736    0.0000 </r>
       <r>   73.1736    0.0000 </r>
       <r>   80.8172    0.0000 </r>
       <r>   83.0718    0.0000 </r>
       <r>   83.0718    0.0000 </r>
       <r>   87.2010    0.0000 </r>
       <r>   87.2010    0.0000 </r>
       <r>   87.2010    0.0000 </r>
       <r>   90.0839    0.0000 </r>
       <r>   90.0839    0.0000 </r>
       <r>   90.0839    0.0000 </r>
       <r>   90.8915    0.0000 </r>
       <r>   93.4576    0.0000 </r>
       <r>   93.4576    0.0000 </r>
       <r>   93.4576    0.0000 </r>
       <r>   93.9324    0.0000 </r>
       <r>   93.9324    0.0000 </r>
       <r>   93.9324    0.0000 </r>
       <r>   96.3733    0.0000 </r>
       <r>   96.3733    0.0000 </r>
      </set>
      <set comment="kpoint 2">
       <r>   -2.9273    1.0000 </r>
       <r>   17.6193    0.0000 </r>
       <r>   19.8939    0.0000 </r>
       <r>   19.8939    0.0000 </r>
       <r>   22.6699    0.0000 </r>
       <r>   22.9805    0.0000 </r>
       <r>   22.9805    0.0000 </r>
       <r>   26.2024    0.0000 </r>
       <r>   26.2024    0.0000 </r>
       <r>   26.4706    0.0000 </r>
       <r>   29.4088    0.0000 </r>
       <r>   33.6039    0.0000 </r>
       <r>   34.0813    0.0000 </r>
       <r>   34.0813    0.0000 </r>
       <r>   41.9385    0.0000 </r>
       <r>   55.2686    0.0000 </r>
       <r>   55.5597    0.0000 </r>
       <r>   55.5597    0.0000 </r>
       <r>   56.3461    0.0000 </r>
       <r>   57.1686    0.0000 </r>
       <r>   57.1686    0.0000 </r>
       <r>   59.1981    0.0000 </r>
       <r>   61.5790    0.0000 </r>
       <r>   61.5790    0.0000 </r>
       <r>   65.2768    0.0000 </r>
       <r>   68.9339    0.0000 </r>
       <r>   68.9339    0.0000 </r>
       <r>   71.5275    0.0000 </r>
       <r>   72.9742    0.0000 </r>
       <r>   72.9742    0.0000 </r>
       <r>   81.8251    0.0000 </r>
       <r>   81.8251    0.0000 </r>
       <r>   82.3000    0.0000 </r>
       <r>   84.0866    0.0000 </r>
       <r>   85.7881    0.0000 </r>
       <r>   85.7881    0.0000 </r>
       <r>   87.9832    0.0000 </r>
       <r>   87.9832    0.0000 </r>
       <r>   89.0035    0.0000 </r>
       <r>   90.0838    0.0000 </r>
       <r>   91.3015    0.0000 </r>
       <r>   91.3015    0.0000 </r>
       <r>   92.8791    0.0000 </r>
       <r>   94.8039    0.0000 </r>
       <r>   95.6443    0.0000 </r>
       <r>   95.6443    0.0000 </r>
       <r>   97.0982    0.0000 </r>
       <r>   97.0982    0.0000 </r>
      </set>
      <set comment="kpoint 3">
       <r>   -2.2580    1.0000 </r>
       <r>   13.9744    0.0000 </r>
       <r>   19.1608    0.0000 </r>
       <r>   19.1608    0.0000 </r>
       <r>   22.4372    0.0000 </r>
       <r>   23.8030    0.0000 </r>
       <r>   23.8030    0.0000 </r>
       <r>   25.3161    0.0000 </r>
       <r>   25.3161    0.0000 </r>
       <r>   27.8928    0.0000 </r>
       <r>   29.9796    0.0000 </r>
       <r>   36.4314    0.0000 </r>
       <r>   37.2350    0.0000 </r>
       <r>   37.2350    0.0000 </r>
       <r>   44.1451    0.0000 </r>
       <r>   51.7094    0.0000 </r>
       <r>   51.7094    0.0000 </r>
       <r>   53.8768    0.0000 </r>
       <r>   56.3823    0.0000 </r>
       <r>   56.3823    0.0000 </r>
       <r>   56.5470    0.0000 </r>
       <r>   58.8622    0.0000 </r>
       <r>   61.7193    0.0000 </r>
       <r>   61.7193    0.0000 </r>
       <r>   65.8674    0.0000 </r>
       <r>   68.8957    0.0000 </r>
       <r>   71.0637    0.0000 </r>
       <r>   71.0637    0.0000 </r>
       <r>   73.9472    0.0000 </r>
       <r>   73.9472    0.0000 </r>
       <r>   78.8455    0.0000 </r>
       <r>   78.9820    0.0000 </r>
       <r>   78.9820    0.0000 </r>
       <r>   82.8125    0.0000 </r>
       <r>   82.8125    0.0000 </r>
       <r>   84.8202    0.0000 </r>
       <r>   85.6519    0.0000 </r>
       <r>   86.5826    0.0000 </r>
       <r>   86.5826    0.0000 </r>
       <r>   87.4931    0.0000 </r>
       <r>   89.4459    0.0000 </r>
       <r>   90.0139    0.0000 </r>
       <r>   90.0139    0.0000 </r>
       <r>   93.9112    0.0000 </r>
       <r>   97.2846    0.0000 </r>
       <r>   97.2846    0.0000 </r>
       <r>   99.4870    0.0000 </r>
       <r>   99.4870    0.0000 </r>
      </set>
      <set comment="kpoint 4">
       <r>   -1.1492    1.0000 </r>
       <r>   10.5497   -0.0162 </r>
       <r>   18.7521    0.0000 </r>
       <r>   18.7521    0.0000 </r>
       <r>   22.2253    0.0000 </r>
       <r>   22.2579    0.0000 </r>
       <r>   22.2579    0.0000 </r>
       <r>   26.2471    0.0000 </r>
       <r>   27.3612    0.0000 </r>
       <r>   27.3612    0.0000 </r>
       <r>   33.3144    0.0000 </r>
       <r>   40.5163    0.0000 </r>
       <r>   40.8490    0.0000 </r>
       <r>   40.8490    0.0000 </r>
       <r>   47.0298    0.0000 </r>
       <r>   47.3681    0.0000 </r>
       <r>   47.3681    0.0000 </r>
       <r>   51.9108    0.0000 </r>
       <r>   56.3373    0.0000 </r>
       <r>   56.3373    0.0000 </r>
       <r>   56.7710    0.0000 </r>
       <r>   57.9135    0.0000 </r>
       <r>   62.1674    0.0000 </r>
       <r>   62.1674    0.0000 </r>
       <r>   66.3276    0.0000 </r>
       <r>   66.8060    0.0000 </r>
       <r>   67.8375    0.0000 </r>
       <r>   67.8375    0.0000 </r>
       <r>   74.3831    0.0000 </r>
       <r>   74.3831    0.0000 </r>
       <r>   75.7456    0.0000 </r>
       <r>   78.3809    0.0000 </r>
       <r>   79.1195    0.0000 </r>
       <r>   79.1195    0.0000 </r>
       <r>   79.9670    0.0000 </r>
       <r>   79.9670    0.0000 </r>
       <r>   81.1823    0.0000 </r>
       <r>   88.1629    0.0000 </r>
       <r>   88.1629    0.0000 </r>
       <r>   88.7403    0.0000 </r>
       <r>   89.4827    0.0000 </r>
       <r>   89.4827    0.0000 </r>
       <r>   91.1160    0.0000 </r>
       <r>   93.0319    0.0000 </r>
       <r>   97.5096    0.0000 </r>
       <r>   97.5096    0.0000 </r>
       <r>  101.4960    0.0000 </r>
       <r>  102.4423    0.0000 </r>
      </set>
      <set comment="kpoint 5">
       <r>    0.3889    1.0000 </r>
       <r>    7.4472    0.7111 </r>
       <r>   18.7081    0.0000 </r>
       <r>   18.7081    0.0000 </r>
       <r>   20.8288    0.0000 </r>
       <r>   20.8288    0.0000 </r>
       <r>   22.2962    0.0000 </r>
       <r>   24.7594    0.0000 </r>
       <r>   29.8896    0.0000 </r>
       <r>   29.8896    0.0000 </r>
       <r>   36.4449    0.0000 </r>
       <r>   41.9029    0.0000 </r>
       <r>   41.9029    0.0000 </r>
       <r>   45.0378    0.0000 </r>
       <r>   46.4371    0.0000 </r>
       <r>   46.4371    0.0000 </r>
       <r>   48.3299    0.0000 </r>
       <r>   51.7446    0.0000 </r>
       <r>   56.2614    0.0000 </r>
       <r>   56.2614    0.0000 </r>
       <r>   56.3842    0.0000 </r>
       <r>   57.0578    0.0000 </r>
       <r>   61.3454    0.0000 </r>
       <r>   61.3454    0.0000 </r>
       <r>   63.7424    0.0000 </r>
       <r>   64.4057    0.0000 </r>
       <r>   64.4057    0.0000 </r>
       <r>   67.9673    0.0000 </r>
       <r>   69.6717    0.0000 </r>
       <r>   73.8316    0.0000 </r>
       <r>   73.8317    0.0000 </r>
       <r>   76.5548    0.0000 </r>
       <r>   76.9677    0.0000 </r>
       <r>   76.9677    0.0000 </r>
       <r>   78.2198    0.0000 </r>
       <r>   80.4352    0.0000 </r>
       <r>   80.4352    0.0000 </r>
       <r>   88.5390    0.0000 </r>
       <r>   89.1208    0.0000 </r>
       <r>   89.1208    0.0000 </r>
       <r>   90.4671    0.0000 </r>
       <r>   92.0106    0.0000 </r>
       <r>   92.0106    0.0000 </r>
       <r>   94.2257    0.0000 </r>
       <r>   98.9631    0.0000 </r>
       <r>   98.9632    0.0000 </r>
       <r>  102.3395    0.0000 </r>
       <r>  104.0913    0.0000 </r>
      </set>
      <set comment="kpoint 6">
       <r>    2.3417    1.0000 </r>
       <r>    4.7080    1.0000 </r>
       <r>   19.0373    0.0000 </r>
       <r>   19.0373    0.0000 </r>
       <r>   19.7495    0.0000 </r>
       <r>   19.7495    0.0000 </r>
       <r>   22.7337    0.0000 </r>
       <r>   23.5707    0.0000 </r>
       <r>   32.2131    0.0000 </r>
       <r>   32.2131    0.0000 </r>
       <r>   39.0085    0.0000 </r>
       <r>   39.2264    0.0000 </r>
       <r>   39.2264    0.0000 </r>
       <r>   45.8112    0.0000 </r>
       <r>   49.6289    0.0000 </r>
       <r>   50.3213    0.0000 </r>
       <r>   50.3213    0.0000 </r>
       <r>   54.1960    0.0000 </r>
       <r>   55.4514    0.0000 </r>
       <r>   55.4514    0.0000 </r>
       <r>   55.4523    0.0000 </r>
       <r>   57.6471    0.0000 </r>
       <r>   57.9396    0.0000 </r>
       <r>   57.9396    0.0000 </r>
       <r>   61.6655    0.0000 </r>
       <r>   63.6241    0.0000 </r>
       <r>   64.2306    0.0000 </r>
       <r>   64.2306    0.0000 </r>
       <r>   68.9567    0.0000 </r>
       <r>   73.6013    0.0000 </r>
       <r>   73.6013    0.0000 </r>
       <r>   75.5298    0.0000 </r>
       <r>   75.5298    0.0000 </r>
       <r>   76.3296    0.0000 </r>
       <r>   76.8640    0.0000 </r>
       <r>   80.5367    0.0000 </r>
       <r>   80.5367    0.0000 </r>
       <r>   88.5896    0.0000 </r>
       <r>   88.8773    0.0000 </r>
       <r>   88.8773    0.0000 </r>
       <r>   89.2075    0.0000 </r>
       <r>   94.2007    0.0000 </r>
       <r>   95.0956    0.0000 </r>
       <r>   95.0956    0.0000 </r>
       <r>  101.1860    0.0000 </r>
       <r>  101.1860    0.0000 </r>
       <r>  105.1249    0.0000 </r>
       <r>  105.1249    0.0000 </r>
      </set>
      <set comment="kpoint 7">
       <r>   -2.8528    1.0000 </r>
       <r>   18.6320    0.0000 </r>
       <r>   18.6320    0.0000 </r>
       <r>   18.9316    0.0000 </r>
       <r>   21.3283    0.0000 </r>
       <r>   24.2919    0.0000 </r>
       <r>   24.3362    0.0000 </r>
       <r>   24.3362    0.0000 </r>
       <r>   26.5828    0.0000 </r>
       <r>   27.5912    0.0000 </r>
       <r>   30.5943    0.0000 </r>
       <r>   32.8568    0.0000 </r>
       <r>   32.8568    0.0000 </r>
       <r>   35.5667    0.0000 </r>
       <r>   42.3737    0.0000 </r>
       <r>   55.1794    0.0000 </r>
       <r>   55.1794    0.0000 </r>
       <r>   55.4036    0.0000 </r>
       <r>   56.5182    0.0000 </r>
       <r>   57.4481    0.0000 </r>
       <r>   57.4481    0.0000 </r>
       <r>   57.8546    0.0000 </r>
       <r>   59.4067    0.0000 </r>
       <r>   62.7544    0.0000 </r>
       <r>   67.4712    0.0000 </r>
       <r>   67.4712    0.0000 </r>
       <r>   70.3906    0.0000 </r>
       <r>   70.4332    0.0000 </r>
       <r>   73.4315    0.0000 </r>
       <r>   73.4315    0.0000 </r>
       <r>   80.6207    0.0000 </r>
       <r>   82.5704    0.0000 </r>
       <r>   82.6836    0.0000 </r>
       <r>   82.6836    0.0000 </r>
       <r>   83.4052    0.0000 </r>
       <r>   84.1259    0.0000 </r>
       <r>   88.7390    0.0000 </r>
       <r>   90.0783    0.0000 </r>
       <r>   90.0783    0.0000 </r>
       <r>   90.1102    0.0000 </r>
       <r>   90.1102    0.0000 </r>
       <r>   92.1283    0.0000 </r>
       <r>   93.1338    0.0000 </r>
       <r>   94.4024    0.0000 </r>
       <r>   94.7946    0.0000 </r>
       <r>   97.7773    0.0000 </r>
       <r>   97.8028    0.0000 </r>
       <r>   97.8034    0.0000 </r>
      </set>
      <set comment="kpoint 8">
       <r>   -2.3322    1.0000 </r>
       <r>   15.2963    0.0000 </r>
       <r>   17.7058    0.0000 </r>
       <r>   19.0471    0.0000 </r>
       <r>   21.6656    0.0000 </r>
       <r>   22.2808    0.0000 </r>
       <r>   24.7153    0.0000 </r>
       <r>   25.7360    0.0000 </r>
       <r>   27.0758    0.0000 </r>
       <r>   29.5005    0.0000 </r>
       <r>   29.9517    0.0000 </r>
       <r>   34.7297    0.0000 </r>
       <r>   35.0375    0.0000 </r>
       <r>   37.8753    0.0000 </r>
       <r>   44.4210    0.0000 </r>
       <r>   51.7166    0.0000 </r>
       <r>   52.8040    0.0000 </r>
       <r>   55.4031    0.0000 </r>
       <r>   55.6577    0.0000 </r>
       <r>   56.1716    0.0000 </r>
       <r>   56.9949    0.0000 </r>
       <r>   57.9659    0.0000 </r>
       <r>   59.3687    0.0000 </r>
       <r>   62.3070    0.0000 </r>
       <r>   67.4627    0.0000 </r>
       <r>   68.4129    0.0000 </r>
       <r>   71.3131    0.0000 </r>
       <r>   72.5339    0.0000 </r>
       <r>   72.5772    0.0000 </r>
       <r>   74.9103    0.0000 </r>
       <r>   77.2976    0.0000 </r>
       <r>   78.4272    0.0000 </r>
       <r>   80.6587    0.0000 </r>
       <r>   81.7017    0.0000 </r>
       <r>   82.4838    0.0000 </r>
       <r>   84.0870    0.0000 </r>
       <r>   86.2089    0.0000 </r>
       <r>   86.2724    0.0000 </r>
       <r>   89.1403    0.0000 </r>
       <r>   89.2559    0.0000 </r>
       <r>   89.7795    0.0000 </r>
       <r>   91.3524    0.0000 </r>
       <r>   93.7400    0.0000 </r>
       <r>   94.4177    0.0000 </r>
       <r>   94.5163    0.0000 </r>
       <r>   96.1748    0.0000 </r>
       <r>   97.0327    0.0000 </r>
       <r>   97.6173    0.0000 </r>
      </set>
      <set comment="kpoint 9">
       <r>   -1.3703    1.0000 </r>
       <r>   11.8217    0.0000 </r>
       <r>   17.1497    0.0000 </r>
       <r>   18.7070    0.0000 </r>
       <r>   20.0161    0.0000 </r>
       <r>   23.7958    0.0000 </r>
       <r>   24.6495    0.0000 </r>
       <r>   24.7576    0.0000 </r>
       <r>   28.2544    0.0000 </r>
       <r>   28.5398    0.0000 </r>
       <r>   33.0556    0.0000 </r>
       <r>   38.0845    0.0000 </r>
       <r>   39.0265    0.0000 </r>
       <r>   40.8800    0.0000 </r>
       <r>   47.1321    0.0000 </r>
       <r>   47.3268    0.0000 </r>
       <r>   49.0797    0.0000 </r>
       <r>   53.6699    0.0000 </r>
       <r>   55.5395    0.0000 </r>
       <r>   56.1746    0.0000 </r>
       <r>   57.1245    0.0000 </r>
       <r>   58.5434    0.0000 </r>
       <r>   58.6156    0.0000 </r>
       <r>   62.5254    0.0000 </r>
       <r>   65.0135    0.0000 </r>
       <r>   68.7824    0.0000 </r>
       <r>   68.8479    0.0000 </r>
       <r>   71.5298    0.0000 </r>
       <r>   72.0153    0.0000 </r>
       <r>   73.7259    0.0000 </r>
       <r>   76.9987    0.0000 </r>
       <r>   77.1217    0.0000 </r>
       <r>   78.6096    0.0000 </r>
       <r>   80.6869    0.0000 </r>
       <r>   81.0170    0.0000 </r>
       <r>   81.4771    0.0000 </r>
       <r>   82.6257    0.0000 </r>
       <r>   86.7482    0.0000 </r>
       <r>   86.7941    0.0000 </r>
       <r>   87.0478    0.0000 </r>
       <r>   91.0092    0.0000 </r>
       <r>   92.3798    0.0000 </r>
       <r>   92.6034    0.0000 </r>
       <r>   94.1387    0.0000 </r>
       <r>   94.4837    0.0000 </r>
       <r>   97.2740    0.0000 </r>
       <r>   99.7283    0.0000 </r>
       <r>  100.7988    0.0000 </r>
      </set>
      <set comment="kpoint 10">
       <r>    0.0240    1.0000 </r>
       <r>    8.6211    0.1967 </r>
       <r>   16.9705    0.0000 </r>
       <r>   18.3665    0.0000 </r>
       <r>   18.6184    0.0000 </r>
       <r>   23.2986    0.0000 </r>
       <r>   24.3943    0.0000 </r>
       <r>   26.0460    0.0000 </r>
       <r>   27.2164    0.0000 </r>
       <r>   30.8507    0.0000 </r>
       <r>   36.2802    0.0000 </r>
       <r>   40.8718    0.0000 </r>
       <r>   43.2326    0.0000 </r>
       <r>   43.7147    0.0000 </r>
       <r>   44.2178    0.0000 </r>
       <r>   46.3845    0.0000 </r>
       <r>   49.7840    0.0000 </r>
       <r>   52.2648    0.0000 </r>
       <r>   55.6312    0.0000 </r>
       <r>   56.2443    0.0000 </r>
       <r>   56.6678    0.0000 </r>
       <r>   57.5929    0.0000 </r>
       <r>   59.1543    0.0000 </r>
       <r>   61.7262    0.0000 </r>
       <r>   63.2203    0.0000 </r>
       <r>   64.9150    0.0000 </r>
       <r>   66.4561    0.0000 </r>
       <r>   70.4269    0.0000 </r>
       <r>   70.4811    0.0000 </r>
       <r>   71.3589    0.0000 </r>
       <r>   72.6033    0.0000 </r>
       <r>   76.1254    0.0000 </r>
       <r>   77.1569    0.0000 </r>
       <r>   78.1709    0.0000 </r>
       <r>   80.5806    0.0000 </r>
       <r>   81.5389    0.0000 </r>
       <r>   83.3321    0.0000 </r>
       <r>   84.6175    0.0000 </r>
       <r>   87.2832    0.0000 </r>
       <r>   88.6185    0.0000 </r>
       <r>   92.5178    0.0000 </r>
       <r>   93.5863    0.0000 </r>
       <r>   93.7265    0.0000 </r>
       <r>   94.4642    0.0000 </r>
       <r>   96.1834    0.0000 </r>
       <r>   98.3241    0.0000 </r>
       <r>  101.1367    0.0000 </r>
       <r>  103.2500    0.0000 </r>
      </set>
      <set comment="kpoint 11">
       <r>    1.8380    1.0000 </r>
       <r>    5.7646    1.0451 </r>
       <r>   17.1433    0.0000 </r>
       <r>   17.1708    0.0000 </r>
       <r>   18.8342    0.0000 </r>
       <r>   22.1215    0.0000 </r>
       <r>   24.6450    0.0000 </r>
       <r>   25.3361    0.0000 </r>
       <r>   29.4679    0.0000 </r>
       <r>   32.7305    0.0000 </r>
       <r>   39.1072    0.0000 </r>
       <r>   39.1536    0.0000 </r>
       <r>   40.6667    0.0000 </r>
       <r>   47.1225    0.0000 </r>
       <r>   47.4429    0.0000 </r>
       <r>   48.7410    0.0000 </r>
       <r>   49.8146    0.0000 </r>
       <r>   54.2054    0.0000 </r>
       <r>   55.0589    0.0000 </r>
       <r>   55.6668    0.0000 </r>
       <r>   56.2057    0.0000 </r>
       <r>   56.8126    0.0000 </r>
       <r>   58.7376    0.0000 </r>
       <r>   59.0890    0.0000 </r>
       <r>   62.0828    0.0000 </r>
       <r>   62.8254    0.0000 </r>
       <r>   63.9790    0.0000 </r>
       <r>   66.0829    0.0000 </r>
       <r>   69.1238    0.0000 </r>
       <r>   69.7650    0.0000 </r>
       <r>   71.9449    0.0000 </r>
       <r>   74.9627    0.0000 </r>
       <r>   76.1219    0.0000 </r>
       <r>   78.1184    0.0000 </r>
       <r>   80.4093    0.0000 </r>
       <r>   81.2883    0.0000 </r>
       <r>   82.7914    0.0000 </r>
       <r>   83.6130    0.0000 </r>
       <r>   88.4656    0.0000 </r>
       <r>   88.6986    0.0000 </r>
       <r>   92.3877    0.0000 </r>
       <r>   94.6273    0.0000 </r>
       <r>   95.6681    0.0000 </r>
       <r>   96.9484    0.0000 </r>
       <r>   99.6856    0.0000 </r>
       <r>  101.3806    0.0000 </r>
       <r>  101.4654    0.0000 </r>
       <r>  102.1398    0.0000 </r>
      </set>
      <set comment="kpoint 12">
       <r>    3.2643    1.0000 </r>
       <r>    4.0765    1.0000 </r>
       <r>   16.2848    0.0000 </r>
       <r>   17.7517    0.0000 </r>
       <r>   19.4596    0.0000 </r>
       <r>   21.2982    0.0000 </r>
       <r>   24.2598    0.0000 </r>
       <r>   25.4723    0.0000 </r>
       <r>   31.7375    0.0000 </r>
       <r>   31.8944    0.0000 </r>
       <r>   38.0386    0.0000 </r>
       <r>   39.7850    0.0000 </r>
       <r>   40.5275    0.0000 </r>
       <r>   46.3945    0.0000 </r>
       <r>   49.4016    0.0000 </r>
       <r>   50.6199    0.0000 </r>
       <r>   51.4108    0.0000 </r>
       <r>   53.6392    0.0000 </r>
       <r>   54.9443    0.0000 </r>
       <r>   55.3084    0.0000 </r>
       <r>   56.4077    0.0000 </r>
       <r>   56.9350    0.0000 </r>
       <r>   57.1792    0.0000 </r>
       <r>   58.8548    0.0000 </r>
       <r>   61.6944    0.0000 </r>
       <r>   61.8241    0.0000 </r>
       <r>   62.7703    0.0000 </r>
       <r>   64.7519    0.0000 </r>
       <r>   68.8615    0.0000 </r>
       <r>   69.3206    0.0000 </r>
       <r>   72.1617    0.0000 </r>
       <r>   74.6674    0.0000 </r>
       <r>   76.1250    0.0000 </r>
       <r>   78.1941    0.0000 </r>
       <r>   80.1419    0.0000 </r>
       <r>   81.3843    0.0000 </r>
       <r>   82.1663    0.0000 </r>
       <r>   83.4860    0.0000 </r>
       <r>   88.4942    0.0000 </r>
       <r>   88.6245    0.0000 </r>
       <r>   92.1319    0.0000 </r>
       <r>   94.8832    0.0000 </r>
       <r>   96.5926    0.0000 </r>
       <r>   98.1695    0.0000 </r>
       <r>   99.9245    0.0000 </r>
       <r>  100.6013    0.0000 </r>
       <r>  103.7097    0.0000 </r>
       <r>  104.5812    0.0000 </r>
      </set>
      <set comment="kpoint 13">
       <r>    1.1879    1.0000 </r>
       <r>    6.6743    1.0095 </r>
       <r>   15.8200    0.0000 </r>
       <r>   18.7108    0.0000 </r>
       <r>   20.4698    0.0000 </r>
       <r>   20.8464    0.0000 </r>
       <r>   23.7275    0.0000 </r>
       <r>   26.4145    0.0000 </r>
       <r>   29.2326    0.0000 </r>
       <r>   31.3131    0.0000 </r>
       <r>   38.1071    0.0000 </r>
       <r>   39.3518    0.0000 </r>
       <r>   42.8033    0.0000 </r>
       <r>   45.2728    0.0000 </r>
       <r>   46.5747    0.0000 </r>
       <r>   48.6874    0.0000 </r>
       <r>   49.4242    0.0000 </r>
       <r>   53.6087    0.0000 </r>
       <r>   55.5330    0.0000 </r>
       <r>   55.7094    0.0000 </r>
       <r>   55.8040    0.0000 </r>
       <r>   57.7265    0.0000 </r>
       <r>   59.1586    0.0000 </r>
       <r>   60.5265    0.0000 </r>
       <r>   60.9378    0.0000 </r>
       <r>   62.7495    0.0000 </r>
       <r>   64.9059    0.0000 </r>
       <r>   68.6681    0.0000 </r>
       <r>   69.3666    0.0000 </r>
       <r>   70.1688    0.0000 </r>
       <r>   71.3551    0.0000 </r>
       <r>   75.3292    0.0000 </r>
       <r>   76.4572    0.0000 </r>
       <r>   78.7490    0.0000 </r>
       <r>   79.8172    0.0000 </r>
       <r>   81.7452    0.0000 </r>
       <r>   82.9765    0.0000 </r>
       <r>   83.6720    0.0000 </r>
       <r>   87.8958    0.0000 </r>
       <r>   88.0862    0.0000 </r>
       <r>   92.9114    0.0000 </r>
       <r>   93.6548    0.0000 </r>
       <r>   94.8178    0.0000 </r>
       <r>   95.8910    0.0000 </r>
       <r>   98.8011    0.0000 </r>
       <r>  100.1741    0.0000 </r>
       <r>  102.3908    0.0000 </r>
       <r>  106.0385    0.0000 </r>
      </set>
      <set comment="kpoint 14">
       <r>   -0.4881    1.0000 </r>
       <r>    9.6457   -0.0577 </r>
       <r>   15.7544    0.0000 </r>
       <r>   20.0182    0.0000 </r>
       <r>   20.7850    0.0000 </r>
       <r>   21.8410    0.0000 </r>
       <r>   23.5149    0.0000 </r>
       <r>   26.5210    0.0000 </r>
       <r>   27.4026    0.0000 </r>
       <r>   29.3519    0.0000 </r>
       <r>   35.3831    0.0000 </r>
       <r>   39.7891    0.0000 </r>
       <r>   42.2392    0.0000 </r>
       <r>   43.8473    0.0000 </r>
       <r>   43.9657    0.0000 </r>
       <r>   48.0319    0.0000 </r>
       <r>   48.8537    0.0000 </r>
       <r>   51.9629    0.0000 </r>
       <r>   55.7013    0.0000 </r>
       <r>   55.9227    0.0000 </r>
       <r>   57.1781    0.0000 </r>
       <r>   57.8604    0.0000 </r>
       <r>   59.9981    0.0000 </r>
       <r>   61.4010    0.0000 </r>
       <r>   64.0341    0.0000 </r>
       <r>   64.9522    0.0000 </r>
       <r>   68.3836    0.0000 </r>
       <r>   70.3365    0.0000 </r>
       <r>   70.5918    0.0000 </r>
       <r>   72.6823    0.0000 </r>
       <r>   75.2135    0.0000 </r>
       <r>   75.9056    0.0000 </r>
       <r>   77.6265    0.0000 </r>
       <r>   78.8489    0.0000 </r>
       <r>   79.3947    0.0000 </r>
       <r>   82.9848    0.0000 </r>
       <r>   84.3286    0.0000 </r>
       <r>   84.6782    0.0000 </r>
       <r>   86.1410    0.0000 </r>
       <r>   86.7707    0.0000 </r>
       <r>   90.8205    0.0000 </r>
       <r>   91.1163    0.0000 </r>
       <r>   94.5334    0.0000 </r>
       <r>   95.2510    0.0000 </r>
       <r>   96.3033    0.0000 </r>
       <r>   99.7349    0.0000 </r>
       <r>  100.6440    0.0000 </r>
       <r>  104.0456    0.0000 </r>
      </set>
      <set comment="kpoint 15">
       <r>   -1.7395    1.0000 </r>
       <r>   12.9264    0.0000 </r>
       <r>   16.1030    0.0000 </r>
       <r>   20.9369    0.0000 </r>
       <r>   21.7510    0.0000 </r>
       <r>   23.4404    0.0000 </r>
       <r>   23.6123    0.0000 </r>
       <r>   24.2057    0.0000 </r>
       <r>   26.3098    0.0000 </r>
       <r>   29.6154    0.0000 </r>
       <r>   32.1553    0.0000 </r>
       <r>   36.0532    0.0000 </r>
       <r>   38.4268    0.0000 </r>
       <r>   40.4575    0.0000 </r>
       <r>   45.9036    0.0000 </r>
       <r>   47.6914    0.0000 </r>
       <r>   51.8740    0.0000 </r>
       <r>   53.7823    0.0000 </r>
       <r>   55.5834    0.0000 </r>
       <r>   55.8319    0.0000 </r>
       <r>   57.1721    0.0000 </r>
       <r>   58.9579    0.0000 </r>
       <r>   59.4286    0.0000 </r>
       <r>   61.0863    0.0000 </r>
       <r>   66.9996    0.0000 </r>
       <r>   68.5563    0.0000 </r>
       <r>   69.4704    0.0000 </r>
       <r>   71.0081    0.0000 </r>
       <r>   73.8338    0.0000 </r>
       <r>   74.8359    0.0000 </r>
       <r>   76.9725    0.0000 </r>
       <r>   77.8742    0.0000 </r>
       <r>   78.8618    0.0000 </r>
       <r>   79.1986    0.0000 </r>
       <r>   82.7531    0.0000 </r>
       <r>   83.1952    0.0000 </r>
       <r>   84.6612    0.0000 </r>
       <r>   85.3359    0.0000 </r>
       <r>   86.6860    0.0000 </r>
       <r>   87.0129    0.0000 </r>
       <r>   89.1582    0.0000 </r>
       <r>   90.7694    0.0000 </r>
       <r>   91.6614    0.0000 </r>
       <r>   94.4613    0.0000 </r>
       <r>   96.4265    0.0000 </r>
       <r>   97.1818    0.0000 </r>
       <r>   99.3814    0.0000 </r>
       <r>  101.4750    0.0000 </r>
      </set>
      <set comment="kpoint 16">
       <r>   -2.5551    1.0000 </r>
       <r>   16.1360    0.0000 </r>
       <r>   17.1423    0.0000 </r>
       <r>   21.1207    0.0000 </r>
       <r>   22.3031    0.0000 </r>
       <r>   23.3734    0.0000 </r>
       <r>   24.1093    0.0000 </r>
       <r>   24.4759    0.0000 </r>
       <r>   25.4823    0.0000 </r>
       <r>   28.8067    0.0000 </r>
       <r>   30.2752    0.0000 </r>
       <r>   33.2767    0.0000 </r>
       <r>   35.6235    0.0000 </r>
       <r>   36.9548    0.0000 </r>
       <r>   43.3411    0.0000 </r>
       <r>   52.1679    0.0000 </r>
       <r>   55.1723    0.0000 </r>
       <r>   55.6439    0.0000 </r>
       <r>   55.6826    0.0000 </r>
       <r>   55.6935    0.0000 </r>
       <r>   56.9793    0.0000 </r>
       <r>   59.3079    0.0000 </r>
       <r>   59.8599    0.0000 </r>
       <r>   60.9624    0.0000 </r>
       <r>   68.6201    0.0000 </r>
       <r>   68.9798    0.0000 </r>
       <r>   69.5379    0.0000 </r>
       <r>   71.6141    0.0000 </r>
       <r>   73.0599    0.0000 </r>
       <r>   73.7186    0.0000 </r>
       <r>   80.0733    0.0000 </r>
       <r>   80.4047    0.0000 </r>
       <r>   80.7920    0.0000 </r>
       <r>   81.9540    0.0000 </r>
       <r>   82.4442    0.0000 </r>
       <r>   86.1086    0.0000 </r>
       <r>   86.2355    0.0000 </r>
       <r>   86.8238    0.0000 </r>
       <r>   87.4508    0.0000 </r>
       <r>   89.8955    0.0000 </r>
       <r>   90.7839    0.0000 </r>
       <r>   92.2650    0.0000 </r>
       <r>   92.3867    0.0000 </r>
       <r>   92.9586    0.0000 </r>
       <r>   93.3323    0.0000 </r>
       <r>   95.7495    0.0000 </r>
       <r>   97.7195    0.0000 </r>
       <r>   98.7439    0.0000 </r>
      </set>
      <set comment="kpoint 17">
       <r>   -1.9614    1.0000 </r>
       <r>   16.6292    0.0000 </r>
       <r>   16.6292    0.0000 </r>
       <r>   16.7617    0.0000 </r>
       <r>   19.5893    0.0000 </r>
       <r>   19.9623    0.0000 </r>
       <r>   27.5151    0.0000 </r>
       <r>   27.5151    0.0000 </r>
       <r>   28.4097    0.0000 </r>
       <r>   30.5400    0.0000 </r>
       <r>   32.5173    0.0000 </r>
       <r>   33.9978    0.0000 </r>
       <r>   33.9978    0.0000 </r>
       <r>   38.7745    0.0000 </r>
       <r>   46.5383    0.0000 </r>
       <r>   51.7487    0.0000 </r>
       <r>   51.7487    0.0000 </r>
       <r>   52.4486    0.0000 </r>
       <r>   54.5896    0.0000 </r>
       <r>   56.8295    0.0000 </r>
       <r>   56.8295    0.0000 </r>
       <r>   56.9298    0.0000 </r>
       <r>   59.9399    0.0000 </r>
       <r>   61.6794    0.0000 </r>
       <r>   66.8702    0.0000 </r>
       <r>   70.0607    0.0000 </r>
       <r>   70.0607    0.0000 </r>
       <r>   72.4759    0.0000 </r>
       <r>   72.4759    0.0000 </r>
       <r>   76.2029    0.0000 </r>
       <r>   76.2584    0.0000 </r>
       <r>   78.0560    0.0000 </r>
       <r>   78.2054    0.0000 </r>
       <r>   78.2054    0.0000 </r>
       <r>   82.4916    0.0000 </r>
       <r>   84.1373    0.0000 </r>
       <r>   87.3609    0.0000 </r>
       <r>   87.3609    0.0000 </r>
       <r>   88.1989    0.0000 </r>
       <r>   89.8713    0.0000 </r>
       <r>   91.7752    0.0000 </r>
       <r>   91.7752    0.0000 </r>
       <r>   93.5210    0.0000 </r>
       <r>   93.6301    0.0000 </r>
       <r>   93.6301    0.0000 </r>
       <r>   93.7507    0.0000 </r>
       <r>   98.1487    0.0000 </r>
       <r>   98.2593    0.0000 </r>
      </set>
      <set comment="kpoint 18">
       <r>   -1.1493    1.0000 </r>
       <r>   13.4108    0.0000 </r>
       <r>   15.9349    0.0000 </r>
       <r>   17.2243    0.0000 </r>
       <r>   17.5071    0.0000 </r>
       <r>   20.4894    0.0000 </r>
       <r>   27.4370    0.0000 </r>
       <r>   28.1392    0.0000 </r>
       <r>   29.8070    0.0000 </r>
       <r>   31.3794    0.0000 </r>
       <r>   33.6731    0.0000 </r>
       <r>   36.1717    0.0000 </r>
       <r>   37.4459    0.0000 </r>
       <r>   40.5698    0.0000 </r>
       <r>   47.2924    0.0000 </r>
       <r>   49.0699    0.0000 </r>
       <r>   49.5040    0.0000 </r>
       <r>   52.6990    0.0000 </r>
       <r>   54.4339    0.0000 </r>
       <r>   55.8436    0.0000 </r>
       <r>   56.8426    0.0000 </r>
       <r>   57.1855    0.0000 </r>
       <r>   59.8311    0.0000 </r>
       <r>   61.0023    0.0000 </r>
       <r>   64.7699    0.0000 </r>
       <r>   68.4362    0.0000 </r>
       <r>   68.8449    0.0000 </r>
       <r>   71.0155    0.0000 </r>
       <r>   71.3072    0.0000 </r>
       <r>   73.8676    0.0000 </r>
       <r>   76.9325    0.0000 </r>
       <r>   77.2906    0.0000 </r>
       <r>   77.8377    0.0000 </r>
       <r>   79.3660    0.0000 </r>
       <r>   81.9975    0.0000 </r>
       <r>   82.7824    0.0000 </r>
       <r>   84.8864    0.0000 </r>
       <r>   86.0190    0.0000 </r>
       <r>   87.6914    0.0000 </r>
       <r>   89.9564    0.0000 </r>
       <r>   90.2090    0.0000 </r>
       <r>   91.9120    0.0000 </r>
       <r>   92.7529    0.0000 </r>
       <r>   93.6322    0.0000 </r>
       <r>   94.5522    0.0000 </r>
       <r>   98.0283    0.0000 </r>
       <r>   98.2891    0.0000 </r>
       <r>   98.9301    0.0000 </r>
      </set>
      <set comment="kpoint 19">
       <r>    0.0966    1.0000 </r>
       <r>   10.1736   -0.0476 </r>
       <r>   15.6213    0.0000 </r>
       <r>   15.6228    0.0000 </r>
       <r>   17.2761    0.0000 </r>
       <r>   22.6120    0.0000 </r>
       <r>   26.0847    0.0000 </r>
       <r>   28.1620    0.0000 </r>
       <r>   29.9224    0.0000 </r>
       <r>   31.9542    0.0000 </r>
       <r>   36.9941    0.0000 </r>
       <r>   39.4934    0.0000 </r>
       <r>   42.2204    0.0000 </r>
       <r>   42.8716    0.0000 </r>
       <r>   43.3740    0.0000 </r>
       <r>   45.9882    0.0000 </r>
       <r>   52.4535    0.0000 </r>
       <r>   53.5288    0.0000 </r>
       <r>   54.3649    0.0000 </r>
       <r>   54.6308    0.0000 </r>
       <r>   56.2546    0.0000 </r>
       <r>   56.9122    0.0000 </r>
       <r>   58.9697    0.0000 </r>
       <r>   60.7990    0.0000 </r>
       <r>   62.5133    0.0000 </r>
       <r>   65.4607    0.0000 </r>
       <r>   66.1818    0.0000 </r>
       <r>   68.3795    0.0000 </r>
       <r>   69.6869    0.0000 </r>
       <r>   72.8727    0.0000 </r>
       <r>   74.9249    0.0000 </r>
       <r>   75.4961    0.0000 </r>
       <r>   77.6899    0.0000 </r>
       <r>   78.3232    0.0000 </r>
       <r>   81.1724    0.0000 </r>
       <r>   81.4675    0.0000 </r>
       <r>   83.3461    0.0000 </r>
       <r>   87.2494    0.0000 </r>
       <r>   87.6475    0.0000 </r>
       <r>   90.2848    0.0000 </r>
       <r>   91.8927    0.0000 </r>
       <r>   93.0722    0.0000 </r>
       <r>   93.3330    0.0000 </r>
       <r>   94.6701    0.0000 </r>
       <r>   97.4522    0.0000 </r>
       <r>   98.2612    0.0000 </r>
       <r>   99.6415    0.0000 </r>
       <r>  101.7086    0.0000 </r>
      </set>
      <set comment="kpoint 20">
       <r>    1.7645    1.0000 </r>
       <r>    7.2258    0.8247 </r>
       <r>   14.2167    0.0000 </r>
       <r>   15.6928    0.0000 </r>
       <r>   17.4279    0.0000 </r>
       <r>   24.8539    0.0000 </r>
       <r>   25.1541    0.0000 </r>
       <r>   28.0072    0.0000 </r>
       <r>   29.1361    0.0000 </r>
       <r>   33.3390    0.0000 </r>
       <r>   39.6327    0.0000 </r>
       <r>   39.8726    0.0000 </r>
       <r>   41.4558    0.0000 </r>
       <r>   44.8120    0.0000 </r>
       <r>   46.4879    0.0000 </r>
       <r>   48.0608    0.0000 </r>
       <r>   51.2739    0.0000 </r>
       <r>   53.3023    0.0000 </r>
       <r>   54.3802    0.0000 </r>
       <r>   54.8028    0.0000 </r>
       <r>   56.2924    0.0000 </r>
       <r>   56.9406    0.0000 </r>
       <r>   57.8692    0.0000 </r>
       <r>   60.3553    0.0000 </r>
       <r>   61.2089    0.0000 </r>
       <r>   63.4739    0.0000 </r>
       <r>   63.9268    0.0000 </r>
       <r>   65.5632    0.0000 </r>
       <r>   67.0073    0.0000 </r>
       <r>   69.7316    0.0000 </r>
       <r>   72.5693    0.0000 </r>
       <r>   74.7828    0.0000 </r>
       <r>   76.5327    0.0000 </r>
       <r>   76.9344    0.0000 </r>
       <r>   80.3070    0.0000 </r>
       <r>   81.6031    0.0000 </r>
       <r>   84.9643    0.0000 </r>
       <r>   87.5837    0.0000 </r>
       <r>   87.8133    0.0000 </r>
       <r>   90.4704    0.0000 </r>
       <r>   93.0066    0.0000 </r>
       <r>   93.6044    0.0000 </r>
       <r>   96.4031    0.0000 </r>
       <r>   96.8874    0.0000 </r>
       <r>   98.8056    0.0000 </r>
       <r>  100.3772    0.0000 </r>
       <r>  100.6593    0.0000 </r>
       <r>  102.7078    0.0000 </r>
      </set>
      <set comment="kpoint 21">
       <r>    3.8257    1.0000 </r>
       <r>    4.6455    1.0000 </r>
       <r>   13.2090    0.0000 </r>
       <r>   16.1452    0.0000 </r>
       <r>   17.9542    0.0000 </r>
       <r>   23.9316    0.0000 </r>
       <r>   26.4082    0.0000 </r>
       <r>   28.7900    0.0000 </r>
       <r>   29.3989    0.0000 </r>
       <r>   31.8348    0.0000 </r>
       <r>   37.9402    0.0000 </r>
       <r>   40.7292    0.0000 </r>
       <r>   42.5918    0.0000 </r>
       <r>   47.2095    0.0000 </r>
       <r>   49.1860    0.0000 </r>
       <r>   49.7598    0.0000 </r>
       <r>   50.1269    0.0000 </r>
       <r>   54.2623    0.0000 </r>
       <r>   54.6228    0.0000 </r>
       <r>   54.9074    0.0000 </r>
       <r>   55.5249    0.0000 </r>
       <r>   56.3784    0.0000 </r>
       <r>   57.5474    0.0000 </r>
       <r>   59.2481    0.0000 </r>
       <r>   61.4420    0.0000 </r>
       <r>   61.6515    0.0000 </r>
       <r>   62.9170    0.0000 </r>
       <r>   63.5331    0.0000 </r>
       <r>   65.4893    0.0000 </r>
       <r>   67.1306    0.0000 </r>
       <r>   72.5662    0.0000 </r>
       <r>   75.1108    0.0000 </r>
       <r>   76.4423    0.0000 </r>
       <r>   76.5768    0.0000 </r>
       <r>   79.6333    0.0000 </r>
       <r>   80.7424    0.0000 </r>
       <r>   85.1603    0.0000 </r>
       <r>   87.6258    0.0000 </r>
       <r>   88.3949    0.0000 </r>
       <r>   89.3351    0.0000 </r>
       <r>   93.1089    0.0000 </r>
       <r>   94.8367    0.0000 </r>
       <r>   97.7802    0.0000 </r>
       <r>   98.7022    0.0000 </r>
       <r>   99.6305    0.0000 </r>
       <r>  100.0457    0.0000 </r>
       <r>  102.8837    0.0000 </r>
       <r>  106.2080    0.0000 </r>
      </set>
      <set comment="kpoint 22">
       <r>    2.4130    1.0000 </r>
       <r>    6.3067    1.0782 </r>
       <r>   12.6163    0.0000 </r>
       <r>   16.9802    0.0000 </r>
       <r>   18.8753    0.0000 </r>
       <r>   23.3613    0.0000 </r>
       <r>   25.9760    0.0000 </r>
       <r>   28.9256    0.0000 </r>
       <r>   29.8000    0.0000 </r>
       <r>   30.6540    0.0000 </r>
       <r>   36.4163    0.0000 </r>
       <r>   41.2838    0.0000 </r>
       <r>   43.8098    0.0000 </r>
       <r>   44.9460    0.0000 </r>
       <r>   48.3983    0.0000 </r>
       <r>   49.8845    0.0000 </r>
       <r>   51.5201    0.0000 </r>
       <r>   54.2187    0.0000 </r>
       <r>   54.9577    0.0000 </r>
       <r>   55.0798    0.0000 </r>
       <r>   55.9467    0.0000 </r>
       <r>   55.9971    0.0000 </r>
       <r>   58.5811    0.0000 </r>
       <r>   59.2520    0.0000 </r>
       <r>   60.3923    0.0000 </r>
       <r>   60.5165    0.0000 </r>
       <r>   63.9043    0.0000 </r>
       <r>   64.0683    0.0000 </r>
       <r>   65.7373    0.0000 </r>
       <r>   70.0372    0.0000 </r>
       <r>   73.4790    0.0000 </r>
       <r>   74.4147    0.0000 </r>
       <r>   76.6369    0.0000 </r>
       <r>   77.2649    0.0000 </r>
       <r>   79.1256    0.0000 </r>
       <r>   80.9194    0.0000 </r>
       <r>   84.6247    0.0000 </r>
       <r>   87.1454    0.0000 </r>
       <r>   87.9065    0.0000 </r>
       <r>   89.7274    0.0000 </r>
       <r>   90.2664    0.0000 </r>
       <r>   95.3962    0.0000 </r>
[...]
       <set comment="band 2">
        <r>  0.0791  0.0240  0.0004  0.1389  0.0000  0.0000  0.0000  0.0000  0.0000 </r>
       </set>
       <set comment="band 3">
        <r>  0.0575  0.0774  0.0035  0.0633  0.0000  0.0000  0.0000  0.0000  0.0000 </r>
       </set>
       <set comment="band 4">
        <r>  0.2139  0.0064  0.1193  0.0134  0.0000  0.0000  0.0000  0.0000  0.0000 </r>
       </set>
       <set comment="band 5">
        <r>  0.0127  0.1192  0.0101  0.0650  0.0000  0.0000  0.0000  0.0000  0.0000 </r>
       </set>
       <set comment="band 6">
        <r>  0.0341  0.0896  0.0329  0.0044  0.0000  0.0000  0.0000  0.0000  0.0000 </r>
       </set>
       <set comment="band 7">
        <r>  0.0401  0.1196  0.0002  0.0387  0.0000  0.0000  0.0000  0.0000  0.0000 </r>
       </set>
       <set comment="band 8">
        <r>  0.0195  0.0409  0.0775  0.0080  0.0000  0.0000  0.0000  0.0000  0.0000 </r>
       </set>
       <set comment="band 9">
        <r>  0.0099  0.0004  0.0107  0.0552  0.0000  0.0000  0.0000  0.0000  0.0000 </r>
       </set>
       <set comment="band 10">
        <r>  0.0004  0.0032  0.0105  0.0086  0.0000  0.0000  0.0000  0.0000  0.0000 </r>
       </set>
       <set comment="band 11">
        <r>  0.0705  0.0048  0.0472  0.0000  0.0000  0.0000  0.0000  0.0000  0.0000 </r>
       </set>
       <set comment="band 12">
        <r>  0.0459  0.0029  0.0013  0.0121  0.0000  0.0000  0.0000  0.0000  0.0000 </r>
       </set>
       <set comment="band 13">
        <r>  0.0002  0.0014  0.0455  0.1084  0.0000  0.0000  0.0000  0.0000  0.0000 </r>
       </set>
       <set comment="band 14">
        <r>  0.0101  0.0102  0.0148  0.0296  0.0000  0.0000  0.0000  0.0000  0.0000 </r>
       </set>
       <set comment="band 15">
        <r>  0.0989  0.0000  0.0985  0.0413  0.0000  0.0000  0.0000  0.0000  0.0000 </r>
       </set>
       <set comment="band 16">
        <r>  0.0330  0.0645  0.1344  0.0672  0.0000  0.0000  0.0000  0.0000  0.0000 </r>
       </set>
       <set comment="band 17">
        <r>  0.2876  0.0464  0.2708  0.0336  0.0000  0.0000  0.0000  0.0000  0.0000 </r>
       </set>
       <set comment="band 18">
        <r>  0.3785  0.0007  0.0709  0.0808  0.0000  0.0000  0.0000  0.0000  0.0000 </r>
       </set>
       <set comment="band 19">
        <r>  0.2013  0.5222  0.0033  0.9025  0.0000  0.0000  0.0000  0.0000  0.0000 </r>
       </set>
       <set comment="band 20">
        <r>  5.9734  0.2545  0.3470  0.0017  0.0000  0.0000  0.0000  0.0000  0.0000 </r>
       </set>
       <set comment="band 21">
        <r>  0.6751  2.1046  0.0863  0.5208  0.0000  0.0000  0.0000  0.0000  0.0000 </r>
       </set>
       <set comment="band 22">
        <r>  1.9862  0.0035  0.0182  0.1872  0.0000  0.0000  0.0000  0.0000  0.0000 </r>
       </set>
       <set comment="band 23">
        <r>  0.0004  0.2352  1.9769  0.1851  0.0000  0.0000  0.0000  0.0000  0.0000 </r>
       </set>
       <set comment="band 24">
        <r>  0.4151  0.0051  1.1460  2.0075  0.0000  0.0000  0.0000  0.0000  0.0000 </r>
       </set>
       <set comment="band 25">
        <r>  0.0223  0.0937  0.5542  0.4599  0.0000  0.0000  0.0000  0.0000  0.0000 </r>
       </set>
       <set comment="band 26">
        <r>  0.0627  0.2763  0.1571  0.4265  0.0000  0.0000  0.0000  0.0000  0.0000 </r>
       </set>
       <set comment="band 27">
        <r>  0.0058  0.3908  0.0012  0.0530  0.0000  0.0000  0.0000  0.0000  0.0000 </r>
       </set>
       <set comment="band 28">
        <r>  0.0178  0.4697  0.0047  0.0059  0.0000  0.0000  0.0000  0.0000  0.0000 </r>
       </set>
       <set comment="band 29">
        <r>  0.2130  0.7704  0.0171  0.0502  0.0000  0.0000  0.0000  0.0000  0.0000 </r>
       </set>
       <set comment="band 30">
        <r>  0.0230  0.0029  0.0124  0.0702  0.0000  0.0000  0.0000  0.0000  0.0000 </r>
       </set>
       <set comment="band 31">
        <r>  0.0822  0.0719  0.0560  0.0776  0.0000  0.0000  0.0000  0.0000  0.0000 </r>
       </set>
       <set comment="band 32">
        <r>  0.0460  0.0088  0.4384  0.0066  0.0000  0.0000  0.0000  0.0000  0.0000 </r>
       </set>
       <set comment="band 33">
        <r>  0.0877  0.0150  0.0299  0.1501  0.0000  0.0000  0.0000  0.0000  0.0000 </r>
       </set>
       <set comment="band 34">
        <r>  0.6280  0.0075  0.1121  0.0048  0.0000  0.0000  0.0000  0.0000  0.0000 </r>
       </set>
       <set comment="band 35">
        <r>  0.0153  0.0707  0.0120  0.0042  0.0000  0.0000  0.0000  0.0000  0.0000 </r>
       </set>
       <set comment="band 36">
        <r>  0.0166  0.0284  0.0155  0.1038  0.0000  0.0000  0.0000  0.0000  0.0000 </r>
       </set>
       <set comment="band 37">
        <r>  0.0692  0.0284  0.0051  0.0402  0.0000  0.0000  0.0000  0.0000  0.0000 </r>
       </set>
       <set comment="band 38">
        <r>  0.0399  0.0676  0.0666  0.0449  0.0000  0.0000  0.0000  0.0000  0.0000 </r>
       </set>
       <set comment="band 39">
        <r>  0.0290  0.0153  0.0140  0.0000  0.0000  0.0000  0.0000  0.0000  0.0000 </r>
       </set>
       <set comment="band 40">
        <r>  0.0013  0.0042  0.0274  0.0095  0.0000  0.0000  0.0000  0.0000  0.0000 </r>
       </set>
       <set comment="band 41">
        <r>  0.0378  0.0029  0.0047  0.0291  0.0000  0.0000  0.0000  0.0000  0.0000 </r>
       </set>
       <set comment="band 42">
        <r>  0.0069  0.0022  0.0312  0.0254  0.0000  0.0000  0.0000  0.0000  0.0000 </r>
       </set>
       <set comment="band 43">
        <r>  0.0182  0.0015  0.0048  0.0919  0.0000  0.0000  0.0000  0.0000  0.0000 </r>
       </set>
       <set comment="band 44">
        <r>  0.0164  0.1509  0.0001  0.0022  0.0000  0.0000  0.0000  0.0000  0.0000 </r>
       </set>
       <set comment="band 45">
        <r>  0.0313  0.0076  0.0009  0.0697  0.0000  0.0000  0.0000  0.0000  0.0000 </r>
       </set>
       <set comment="band 46">
        <r>  0.0001  0.0476  0.0461  0.0025  0.0000  0.0000  0.0000  0.0000  0.0000 </r>
       </set>
       <set comment="band 47">
        <r>  0.0179  0.0002  0.0705  0.0071  0.0000  0.0000  0.0000  0.0000  0.0000 </r>
       </set>
       <set comment="band 48">
        <r>  0.0000  0.0287  0.0120  0.0001  0.0000  0.0000  0.0000  0.0000  0.0000 </r>
       </set>
      </set>
      <set comment="kpoint 55">
       <set comment="band 1">
        <r>  0.0824  0.0144  0.1490  0.0000  0.0000  0.0000  0.0000  0.0000  0.0000 </r>
       </set>
       <set comment="band 2">
        <r>  0.0000  0.0000  0.0000  0.2075  0.0000  0.0000  0.0000  0.0000  0.0000 </r>
       </set>
       <set comment="band 3">
        <r>  0.0780  0.0530  0.0743  0.0000  0.0000  0.0000  0.0000  0.0000  0.0000 </r>
       </set>
       <set comment="band 4">
        <r>  0.2987  0.0807  0.0097  0.0000  0.0000  0.0000  0.0000  0.0000  0.0000 </r>
       </set>
       <set comment="band 5">
        <r>  0.0000  0.0000  0.0000  0.1257  0.0000  0.0000  0.0000  0.0000  0.0000 </r>
       </set>
       <set comment="band 6">
        <r>  0.0841  0.2423  0.0040  0.0000  0.0000  0.0000  0.0000  0.0000  0.0000 </r>
       </set>
       <set comment="band 7">
        <r>  0.0246  0.0391  0.0460  0.0000  0.0000  0.0000  0.0000  0.0000  0.0000 </r>
       </set>
       <set comment="band 8">
        <r>  0.0222  0.0709  0.0380  0.0000  0.0000  0.0000  0.0000  0.0000  0.0000 </r>
       </set>
       <set comment="band 9">
        <r>  0.0000  0.0000  0.0000  0.0230  0.0000  0.0000  0.0000  0.0000  0.0000 </r>
       </set>
       <set comment="band 10">
        <r>  0.0033  0.0000  0.0029  0.0000  0.0000  0.0000  0.0000  0.0000  0.0000 </r>
       </set>
       <set comment="band 11">
        <r>  0.0642  0.0197  0.0933  0.0000  0.0000  0.0000  0.0000  0.0000  0.0000 </r>
       </set>
       <set comment="band 12">
        <r>  0.0000  0.0000  0.0000  0.0735  0.0000  0.0000  0.0000  0.0000  0.0000 </r>
       </set>
       <set comment="band 13">
        <r>  0.0000  0.0000  0.0000  0.1779  0.0000  0.0000  0.0000  0.0000  0.0000 </r>
       </set>
       <set comment="band 14">
        <r>  0.0185  0.0101  0.0499  0.0000  0.0000  0.0000  0.0000  0.0000  0.0000 </r>
       </set>
       <set comment="band 15">
        <r>  0.1197  0.0121  0.0222  0.0000  0.0000  0.0000  0.0000  0.0000  0.0000 </r>
       </set>
       <set comment="band 16">
        <r>  0.0000  0.0000  0.0000  0.0213  0.0000  0.0000  0.0000  0.0000  0.0000 </r>
       </set>
       <set comment="band 17">
        <r>  0.1208  0.0294  0.5914  0.0000  0.0000  0.0000  0.0000  0.0000  0.0000 </r>
       </set>
       <set comment="band 18">
        <r>  0.0000  0.0000  0.0000  0.0318  0.0000  0.0000  0.0000  0.0000  0.0000 </r>
       </set>
       <set comment="band 19">
        <r>  2.5971  0.1849  0.1335  0.0000  0.0000  0.0000  0.0000  0.0000  0.0000 </r>
       </set>
       <set comment="band 20">
        <r>  1.1411  1.3767  0.0168  0.0000  0.0000  0.0000  0.0000  0.0000  0.0000 </r>
       </set>
       <set comment="band 21">
        <r>  0.0000  0.0000  0.0000  2.4428  0.0000  0.0000  0.0000  0.0000  0.0000 </r>
       </set>
       <set comment="band 22">
        <r>  5.6418  1.3536  0.0217  0.0000  0.0000  0.0000  0.0000  0.0000  0.0000 </r>
       </set>
       <set comment="band 23">
        <r>  0.0008  0.0768  3.1674  0.0000  0.0000  0.0000  0.0000  0.0000  0.0000 </r>
       </set>
       <set comment="band 24">
        <r>  0.0000  0.0000  0.0000  1.3957  0.0000  0.0000  0.0000  0.0000  0.0000 </r>
       </set>
       <set comment="band 25">
        <r>  0.1777  0.0575  0.7949  0.0000  0.0000  0.0000  0.0000  0.0000  0.0000 </r>
       </set>
       <set comment="band 26">
        <r>  0.3365  1.4485  0.1479  0.0000  0.0000  0.0000  0.0000  0.0000  0.0000 </r>
       </set>
       <set comment="band 27">
        <r>  0.0000  0.0000  0.0000  1.0545  0.0000  0.0000  0.0000  0.0000  0.0000 </r>
       </set>
       <set comment="band 28">
        <r>  0.0000  0.0000  0.0000  0.1638  0.0000  0.0000  0.0000  0.0000  0.0000 </r>
       </set>
       <set comment="band 29">
        <r>  0.3214  0.3081  0.2492  0.0000  0.0000  0.0000  0.0000  0.0000  0.0000 </r>
       </set>
       <set comment="band 30">
        <r>  0.0006  0.3572  0.0505  0.0000  0.0000  0.0000  0.0000  0.0000  0.0000 </r>
       </set>
       <set comment="band 31">
        <r>  0.0000  0.0000  0.0000  0.0432  0.0000  0.0000  0.0000  0.0000  0.0000 </r>
       </set>
       <set comment="band 32">
        <r>  0.1604  0.0010  0.3335  0.0000  0.0000  0.0000  0.0000  0.0000  0.0000 </r>
       </set>
       <set comment="band 33">
        <r>  0.3865  0.1477  0.0000  0.0000  0.0000  0.0000  0.0000  0.0000  0.0000 </r>
       </set>
       <set comment="band 34">
        <r>  0.0000  0.0000  0.0000  0.0027  0.0000  0.0000  0.0000  0.0000  0.0000 </r>
       </set>
       <set comment="band 35">
        <r>  0.2573  0.0100  0.0295  0.0000  0.0000  0.0000  0.0000  0.0000  0.0000 </r>
       </set>
       <set comment="band 36">
        <r>  0.0950  0.1081  0.1021  0.0000  0.0000  0.0000  0.0000  0.0000  0.0000 </r>
       </set>
       <set comment="band 37">
        <r>  0.0000  0.0000  0.0000  0.4441  0.0000  0.0000  0.0000  0.0000  0.0000 </r>
       </set>
       <set comment="band 38">
        <r>  0.0010  0.0389  0.0150  0.0000  0.0000  0.0000  0.0000  0.0000  0.0000 </r>
       </set>
       <set comment="band 39">
        <r>  0.0000  0.0000  0.0000  0.0077  0.0000  0.0000  0.0000  0.0000  0.0000 </r>
       </set>
       <set comment="band 40">
        <r>  0.0020  0.0191  0.0112  0.0000  0.0000  0.0000  0.0000  0.0000  0.0000 </r>
       </set>
       <set comment="band 41">
        <r>  0.0000  0.0000  0.0000  0.0203  0.0000  0.0000  0.0000  0.0000  0.0000 </r>
       </set>
       <set comment="band 42">
        <r>  0.1133  0.0071  0.0667  0.0000  0.0000  0.0000  0.0000  0.0000  0.0000 </r>
       </set>
       <set comment="band 43">
        <r>  0.0102  0.1087  0.0454  0.0000  0.0000  0.0000  0.0000  0.0000  0.0000 </r>
       </set>
       <set comment="band 44">
        <r>  0.0472  0.0518  0.0006  0.0000  0.0000  0.0000  0.0000  0.0000  0.0000 </r>
       </set>
       <set comment="band 45">
        <r>  0.0000  0.0000  0.0000  0.0705  0.0000  0.0000  0.0000  0.0000  0.0000 </r>
       </set>
       <set comment="band 46">
        <r>  0.0000  0.0000  0.0000  0.0067  0.0000  0.0000  0.0000  0.0000  0.0000 </r>
       </set>
       <set comment="band 47">
        <r>  0.0778  0.0131  0.0540  0.0000  0.0000  0.0000  0.0000  0.0000  0.0000 </r>
       </set>
       <set comment="band 48">
        <r>  0.0407  0.0468  0.0173  0.0000  0.0000  0.0000  0.0000  0.0000  0.0000 </r>
       </set>
      </set>
      <set comment="kpoint 56">
       <set comment="band 1">
        <r>  0.0481  0.0362  0.0000  0.1403  0.0000  0.0000  0.0000  0.0000  0.0000 </r>
       </set>
       <set comment="band 2">
        <r>  0.0000  0.0000  0.2244  0.0000  0.0000  0.0000  0.0000  0.0000  0.0000 </r>
       </set>
       <set comment="band 3">
        <r>  0.1924  0.0653  0.0000  0.0036  0.0000  0.0000  0.0000  0.0000  0.0000 </r>
       </set>
       <set comment="band 4">
        <r>  0.2292  0.0359  0.0000  0.0758  0.0000  0.0000  0.0000  0.0000  0.0000 </r>
       </set>
       <set comment="band 5">
        <r>  0.0233  0.0848  0.0000  0.0715  0.0000  0.0000  0.0000  0.0000  0.0000 </r>
       </set>
       <set comment="band 6">
        <r>  0.0056  0.2584  0.0000  0.0286  0.0000  0.0000  0.0000  0.0000  0.0000 </r>
       </set>
       <set comment="band 7">
        <r>  0.0000  0.0000  0.0970  0.0000  0.0000  0.0000  0.0000  0.0000  0.0000 </r>
       </set>
       <set comment="band 8">
        <r>  0.0903  0.0357  0.0000  0.0175  0.0000  0.0000  0.0000  0.0000  0.0000 </r>
       </set>
       <set comment="band 9">
        <r>  0.0000  0.0000  0.0235  0.0000  0.0000  0.0000  0.0000  0.0000  0.0000 </r>
       </set>
       <set comment="band 10">
        <r>  0.0091  0.0004  0.0000  0.0312  0.0000  0.0000  0.0000  0.0000  0.0000 </r>
       </set>
       <set comment="band 11">
        <r>  0.0000  0.0000  0.0006  0.0000  0.0000  0.0000  0.0000  0.0000  0.0000 </r>
       </set>
       <set comment="band 12">
        <r>  0.0742  0.0003  0.0000  0.1169  0.0000  0.0000  0.0000  0.0000  0.0000 </r>
       </set>
       <set comment="band 13">
        <r>  0.0000  0.0000  0.1881  0.0000  0.0000  0.0000  0.0000  0.0000  0.0000 </r>
       </set>
       <set comment="band 14">
        <r>  0.0010  0.0009  0.0000  0.0061  0.0000  0.0000  0.0000  0.0000  0.0000 </r>
       </set>
       <set comment="band 15">
        <r>  0.1411  0.0052  0.0000  0.1054  0.0000  0.0000  0.0000  0.0000  0.0000 </r>
       </set>
       <set comment="band 16">
        <r>  0.0000  0.0000  0.0142  0.0000  0.0000  0.0000  0.0000  0.0000  0.0000 </r>
       </set>
       <set comment="band 17">
        <r>  0.0000  0.0000  0.7368  0.0000  0.0000  0.0000  0.0000  0.0000  0.0000 </r>
       </set>
       <set comment="band 18">
        <r>  0.0887  0.3349  0.0000  0.6079  0.0000  0.0000  0.0000  0.0000  0.0000 </r>
       </set>
       <set comment="band 19">
        <r>  3.5462  1.5594  0.0000  0.1015  0.0000  0.0000  0.0000  0.0000  0.0000 </r>
       </set>
       <set comment="band 20">
        <r>  5.8068  0.8983  0.0000  0.2905  0.0000  0.0000  0.0000  0.0000  0.0000 </r>
       </set>
       <set comment="band 21">
        <r>  0.1935  0.2056  0.0000  1.6547  0.0000  0.0000  0.0000  0.0000  0.0000 </r>
       </set>
       <set comment="band 22">
        <r>  0.0000  0.0000  2.3524  0.0000  0.0000  0.0000  0.0000  0.0000  0.0000 </r>
       </set>
       <set comment="band 23">
        <r>  0.0415  0.1062  0.0000  1.1585  0.0000  0.0000  0.0000  0.0000  0.0000 </r>
       </set>
       <set comment="band 24">
        <r>  0.0000  0.0000  0.0847  0.0000  0.0000  0.0000  0.0000  0.0000  0.0000 </r>
       </set>
       <set comment="band 25">
        <r>  0.2047  0.2939  0.0000  0.0451  0.0000  0.0000  0.0000  0.0000  0.0000 </r>
       </set>
       <set comment="band 26">
        <r>  0.0000  0.0000  1.2599  0.0000  0.0000  0.0000  0.0000  0.0000  0.0000 </r>
       </set>
       <set comment="band 27">
        <r>  0.0000  0.0000  0.4242  0.0000  0.0000  0.0000  0.0000  0.0000  0.0000 </r>
       </set>
       <set comment="band 28">
        <r>  0.1324  0.0215  0.0000  1.1436  0.0000  0.0000  0.0000  0.0000  0.0000 </r>
       </set>
       <set comment="band 29">
        <r>  0.0864  1.6561  0.0000  0.0022  0.0000  0.0000  0.0000  0.0000  0.0000 </r>
       </set>
       <set comment="band 30">
        <r>  0.0000  0.0000  0.4475  0.0000  0.0000  0.0000  0.0000  0.0000  0.0000 </r>
       </set>
       <set comment="band 31">
        <r>  0.0279  0.2752  0.0000  0.1031  0.0000  0.0000  0.0000  0.0000  0.0000 </r>
       </set>
       <set comment="band 32">
        <r>  0.3794  0.0093  0.0000  0.1740  0.0000  0.0000  0.0000  0.0000  0.0000 </r>
       </set>
       <set comment="band 33">
        <r>  0.2536  0.0205  0.0000  0.0105  0.0000  0.0000  0.0000  0.0000  0.0000 </r>
       </set>
       <set comment="band 34">
        <r>  0.3757  0.0723  0.0000  0.0012  0.0000  0.0000  0.0000  0.0000  0.0000 </r>
       </set>
       <set comment="band 35">
        <r>  0.0000  0.0000  0.1631  0.0000  0.0000  0.0000  0.0000  0.0000  0.0000 </r>
       </set>
       <set comment="band 36">
        <r>  0.1179  0.0020  0.0000  0.0202  0.0000  0.0000  0.0000  0.0000  0.0000 </r>
       </set>
       <set comment="band 37">
        <r>  0.0000  0.0000  0.0888  0.0000  0.0000  0.0000  0.0000  0.0000  0.0000 </r>
       </set>
       <set comment="band 38">
        <r>  0.0406  0.0181  0.0000  0.3154  0.0000  0.0000  0.0000  0.0000  0.0000 </r>
       </set>
       <set comment="band 39">
        <r>  0.0017  0.0223  0.0000  0.0086  0.0000  0.0000  0.0000  0.0000  0.0000 </r>
       </set>
       <set comment="band 40">
        <r>  0.0000  0.0000  0.1398  0.0000  0.0000  0.0000  0.0000  0.0000  0.0000 </r>
       </set>
       <set comment="band 41">
        <r>  0.0094  0.1116  0.0000  0.0009  0.0000  0.0000  0.0000  0.0000  0.0000 </r>
       </set>
       <set comment="band 42">
        <r>  0.0000  0.0000  0.0052  0.0000  0.0000  0.0000  0.0000  0.0000  0.0000 </r>
       </set>
       <set comment="band 43">
        <r>  0.0000  0.0000  0.0077  0.0000  0.0000  0.0000  0.0000  0.0000  0.0000 </r>
       </set>
       <set comment="band 44">
        <r>  0.0292  0.0636  0.0000  0.0026  0.0000  0.0000  0.0000  0.0000  0.0000 </r>
       </set>
       <set comment="band 45">
        <r>  0.0064  0.0005  0.0000  0.0166  0.0000  0.0000  0.0000  0.0000  0.0000 </r>
       </set>
       <set comment="band 46">
        <r>  0.0000  0.0000  0.0138  0.0000  0.0000  0.0000  0.0000  0.0000  0.0000 </r>
       </set>
       <set comment="band 47">
        <r>  0.0760  0.1185  0.0000  0.0108  0.0000  0.0000  0.0000  0.0000  0.0000 </r>
       </set>
       <set comment="band 48">
        <r>  0.0000  0.0000  0.0644  0.0000  0.0000  0.0000  0.0000  0.0000  0.0000 </r>
       </set>
      </set>
     </set>
    </set>
   </array>
  </projected>
 </calculation>
 <structure name="finalpos" >
  <crystal>
   <varray name="basis" >
    <v>       0.00000000       2.02400000       2.02400000 </v>
    <v>       2.02400000       0.00000000       2.02400000 </v>
    <v>       2.02400000       2.02400000       0.00000000 </v>
   </varray>
   <i name="volume">     16.58293965 </i>
   <varray name="rec_basis" >
    <v>      -0.24703557       0.24703557       0.24703557 </v>
    <v>       0.24703557      -0.24703557       0.24703557 </v>
    <v>       0.24703557       0.24703557      -0.24703557 </v>
   </varray>
  </crystal>
  <varray name="positions" >
   <v>       0.00000000       0.00000000       0.00000000 </v>
  </varray>
 </structure>
</modeling>
