    7    7    1    2
  0.1322021E+02  0.3871055E-09  0.3871055E-09  0.6755020E-09  0.5000000E-15
   1.0000000000000000E-004
  CAR 
 unknown system                          
     62     60     48

  0.1262379E-14  0.1262379E-14  0.1262379E-14  0.5102041E-02
    1      -56.616530    -54.461748   1.000000   1.000000
    2      -56.532993    -54.343817   1.000000   1.000000
    3      -56.532976    -54.343093   1.000000   1.000000
    4      -23.254949    -23.255181   1.000000   1.000000
    5      -22.997709    -22.998869   1.000000   1.000000
    6      -11.213443    -11.046033   1.000000   1.000000
    7       -9.548303     -9.466296   1.000000   1.000000
    8       -9.538172     -9.210814   1.000000   1.000000
    9       -9.272651     -9.107020   1.000000   1.000000
   10       -6.706983     -6.710962   1.000000   1.000000
   11       -6.706982     -6.710961   1.000000   1.000000
   12       -6.698291     -6.701385   1.000000   1.000000
   13       -6.698291     -6.701384   1.000000   1.000000
   14       -5.941359     -5.931139   1.000000   1.000000
   15       -5.475696     -5.351228   1.000000   1.000000
   16        2.027522      3.456892   1.000000   1.000000
   17        2.930832      3.456905   1.000000   1.000000
   18        3.263684      3.842970   1.000000   1.000000
   19        3.263685      4.248174   1.000000   1.000000
   20        3.273270      4.248358   1.000000   1.000000
   21        3.278202      4.274462   1.000000   1.000000
   22        3.278208      4.478390   1.000000   1.000000
   23        3.753667      4.565055   1.000000   1.000000
   24        4.508146      5.656209   1.000000   1.000000
   25        5.297859      5.656211   1.000000   1.000000
   26        5.550386      5.737035   1.000000   1.000000
   27        5.550387      5.737056   1.000000   1.000000
   28        5.646417      6.561597   1.000000   1.000000
   29        5.646418      6.561599   1.000000   1.000000
   30        6.436102      6.942716   1.000000   1.000000
   31        6.436102     10.295980   1.000000   0.006345
   32        6.826706     11.132624   1.000000   0.000000
   33       10.291878     11.283023   0.006317   0.000000
   34       11.136056     11.307621   0.000000   0.000000
   35       11.295751     11.720147   0.000000   0.000000
   36       11.690181     11.770684   0.000000   0.000000
   37       11.763547     11.873719   0.000000   0.000000
   38       11.866647     11.873722   0.000000   0.000000
   39       11.866648     12.062712   0.000000   0.000000
   40       12.062446     12.094646   0.000000   0.000000
   41       12.091114     12.094850   0.000000   0.000000
   42       12.091114     12.095124   0.000000   0.000000
   43       12.097963     12.174205   0.000000   0.000000
   44       12.172474     12.174225   0.000000   0.000000
   45       12.172476     12.376206   0.000000   0.000000
   46       12.372137     12.376309   0.000000   0.000000
   47       12.372137     12.473596   0.000000   0.000000
   48       12.472492     13.179564   0.000000   0.000000

  0.1428571E+00  0.1262379E-14  0.1310411E-14  0.2040816E-01
    1      -56.616640    -54.461819   1.000000   1.000000
    2      -56.533122    -54.343923   1.000000   1.000000
    3      -56.533044    -54.343159   1.000000   1.000000
    4      -23.233346    -23.233666   1.000000   1.000000
    5      -22.995953    -22.997097   1.000000   1.000000
    6      -11.124107    -10.958479   1.000000   1.000000
    7       -9.804380     -9.667074   1.000000   1.000000
    8       -9.507502     -9.290342   1.000000   1.000000
    9       -9.348381     -9.178814   1.000000   1.000000
   10       -6.728827     -6.732185   1.000000   1.000000
   11       -6.718888     -6.719169   1.000000   1.000000
   12       -6.636141     -6.639988   1.000000   1.000000
   13       -6.487560     -6.465915   1.000000   1.000000
   14       -5.899900     -5.886411   1.000000   1.000000
   15       -5.575397     -5.463009   1.000000   1.000000
   16        1.864243      3.280882   1.000000   1.000000
   17        2.187651      3.377021   1.000000   1.000000
   18        2.940953      3.474054   1.000000   1.000000
   19        2.947203      4.198213   1.000000   1.000000
   20        3.250243      4.217947   1.000000   1.000000
   21        3.537718      4.270026   1.000000   1.000000
   22        3.799077      4.682997   1.000000   1.000000
   23        3.954082      5.028618   1.000000   1.000000
   24        4.767542      5.468922   1.000000   1.000000
   25        5.416287      5.561259   1.000000   1.000000
   26        5.432747      5.783631   1.000000   1.000000
   27        5.487442      5.819740   1.000000   1.000000
   28        5.686972      6.157627   1.000000   1.000000
   29        5.718254      6.460360   1.000000   1.000000
   30        6.304393      6.924662   1.000000   1.000000
   31        6.322232     10.435576   1.000000  -0.017486
   32        6.846791     11.196529   1.000000   0.000000
   33       10.430558     11.330503  -0.016587   0.000000
   34       11.205863     11.499214   0.000000   0.000000
   35       11.511926     11.807869   0.000000   0.000000
   36       11.800049     11.881161   0.000000   0.000000
   37       11.873609     11.902961   0.000000   0.000000
   38       11.894479     11.953607   0.000000   0.000000
   39       11.923135     12.060826   0.000000   0.000000
   40       12.057691     12.077388   0.000000   0.000000
   41       12.075144     12.078425   0.000000   0.000000
   42       12.081949     12.138580   0.000000   0.000000
   43       12.136033     12.161157   0.000000   0.000000
   44       12.160006     12.323522   0.000000   0.000000
   45       12.318745     12.336780   0.000000   0.000000
   46       12.333333     12.394222   0.000000   0.000000
   47       12.390242     12.521385   0.000000   0.000000
   48       12.517380     13.026744   0.000000   0.000000

  0.2857143E+00  0.1262379E-14  0.1282087E-14  0.2040816E-01
    1      -56.616726    -54.461907   1.000000   1.000000
    2      -56.533452    -54.344322   1.000000   1.000000
    3      -56.533035    -54.343105   1.000000   1.000000
    4      -23.181462    -23.181994   1.000000   1.000000
    5      -22.994775    -22.995863   1.000000   1.000000
    6      -10.927452    -10.764253   1.000000   1.000000
    7      -10.255800    -10.119173   1.000000   1.000000
    8       -9.520338     -9.433987   1.000000   1.000000
    9       -9.416166     -9.204965   1.000000   1.000000
   10       -6.760637     -6.752565   1.000000   1.000000
   11       -6.720338     -6.723464   1.000000   1.000000
   12       -6.552695     -6.557100   1.000000   1.000000
   13       -6.280444     -6.230166   1.000000   1.000000
   14       -5.751188     -5.713512   1.000000   1.000000
   15       -5.710290     -5.647453   1.000000   1.000000
   16        0.960818      2.972786   1.000000   1.000000
   17        2.094030      3.095188   1.000000   1.000000
   18        2.523214      3.219101   1.000000   1.000000
   19        2.672845      4.052629   1.000000   1.000000
   20        3.177808      4.073065   1.000000   1.000000
   21        3.661252      4.337794   1.000000   1.000000
   22        4.024949      4.834057   1.000000   1.000000
   23        4.283159      5.314377   1.000000   1.000000
   24        5.141093      5.491001   1.000000   1.000000
   25        5.177026      5.496085   1.000000   1.000000
   26        5.268623      5.602717   1.000000   1.000000
   27        5.458404      5.838353   1.000000   1.000000
   28        5.675488      5.886246   1.000000   1.000000
   29        5.850463      6.330428   1.000000   1.000000
   30        6.044101      6.837660   1.000000   1.000000
   31        6.481795     10.897447   1.000000  -0.000022
   32        6.995315     11.251229   1.000000   0.000000
   33       10.898021     11.350035   0.000000   0.000000
   34       11.259590     11.621098   0.000000   0.000000
   35       11.688188     11.875124   0.000000   0.000000
   36       11.867021     11.898350   0.000000   0.000000
   37       11.899802     11.909726   0.000000   0.000000
   38       11.962022     12.001826   0.000000   0.000000
   39       12.026306     12.037801   0.000000   0.000000
   40       12.033765     12.040605   0.000000   0.000000
   41       12.057426     12.063886   0.000000   0.000000
   42       12.062122     12.092327   0.000000   0.000000
   43       12.083378     12.145711   0.000000   0.000000
   44       12.145028     12.156989   0.000000   0.000000
   45       12.246244     12.249609   0.000000   0.000000
   46       12.334396     12.401347   0.000000   0.000000
   47       12.643661     12.650812   0.000000   0.000000
   48       13.075040     13.119034   0.000000   0.000000

  0.4285714E+00  0.1262379E-14  0.1277946E-14  0.2040816E-01
    1      -56.616487    -54.461690   1.000000   1.000000
    2      -56.533688    -54.344624   1.000000   1.000000
    3      -56.533072    -54.343150   1.000000   1.000000
    4      -23.133982    -23.134708   1.000000   1.000000
    5      -22.999084    -23.000114   1.000000   1.000000
    6      -10.852101    -10.678961   1.000000   1.000000
    7      -10.463086    -10.364606   1.000000   1.000000
    8       -9.536773     -9.431855   1.000000   1.000000
    9       -9.440699     -9.283450   1.000000   1.000000
   10       -6.842654     -6.827400   1.000000   1.000000
   11       -6.704000     -6.706947   1.000000   1.000000
   12       -6.493876     -6.498751   1.000000   1.000000
   13       -6.313873     -6.255847   1.000000   1.000000
   14       -5.781996     -5.744538   1.000000   1.000000
   15       -5.512623     -5.472511   1.000000   1.000000
   16        0.364650      2.711148   1.000000   1.000000
   17        2.081435      3.010518   1.000000   1.000000
   18        2.312008      3.107676   1.000000   1.000000
   19        2.516471      3.903939   1.000000   1.000000
   20        3.110265      3.952298   1.000000   1.000000
   21        3.658378      4.218204   1.000000   1.000000
   22        4.089555      4.840300   1.000000   1.000000
   23        4.688575      5.259624   1.000000   1.000000
   24        4.904358      5.378657   1.000000   1.000000
   25        5.055737      5.530646   1.000000   1.000000
   26        5.269400      5.539470   1.000000   1.000000
   27        5.366242      5.694466   1.000000   1.000000
   28        5.564621      6.328828   1.000000   1.000000
   29        5.899437      6.336087   1.000000   1.000000
   30        6.164128      6.665413   1.000000   1.000000
   31        6.455757     11.295788   1.000000   0.000000
   32        7.295354     11.371227   1.000000   0.000000
   33       11.302815     11.421205   0.000000   0.000000
   34       11.438185     11.603233   0.000000   0.000000
   35       11.646189     11.909631   0.000000   0.000000
   36       11.899414     11.947228   0.000000   0.000000
   37       11.944598     11.955812   0.000000   0.000000
   38       11.961437     11.977555   0.000000   0.000000
   39       11.995474     12.024065   0.000000   0.000000
   40       12.022229     12.029354   0.000000   0.000000
   41       12.029599     12.036223   0.000000   0.000000
   42       12.033218     12.105741   0.000000   0.000000
   43       12.100991     12.160700   0.000000   0.000000
   44       12.159991     12.164074   0.000000   0.000000
   45       12.192009     12.193905   0.000000   0.000000
   46       12.239734     12.466553   0.000000   0.000000
   47       13.008143     13.020083   0.000000   0.000000
   48       13.297273     13.316177   0.000000   0.000000

  0.1428571E+00  0.1428571E+00  0.1341574E-14  0.1020408E-01
    1      -56.616641    -54.461832   1.000000   1.000000
    2      -56.533207    -54.343990   1.000000   1.000000
    3      -56.533104    -54.343260   1.000000   1.000000
    4      -23.207638    -23.208058   1.000000   1.000000
    5      -22.999078    -23.000179   1.000000   1.000000
    6      -11.053040    -10.893149   1.000000   1.000000
    7       -9.781466     -9.718363   1.000000   1.000000
    8       -9.717607     -9.371102   1.000000   1.000000
    9       -9.343292     -9.267388   1.000000   1.000000
   10       -6.839117     -6.837780   1.000000   1.000000
   11       -6.680734     -6.681055   1.000000   1.000000
   12       -6.558941     -6.528784   1.000000   1.000000
   13       -6.442576     -6.434951   1.000000   1.000000
   14       -5.846236     -5.826020   1.000000   1.000000
   15       -5.656373     -5.565572   1.000000   1.000000
   16        1.804680      2.911911   1.000000   1.000000
   17        1.881409      3.407189   1.000000   1.000000
   18        2.619709      3.709164   1.000000   1.000000
   19        2.870018      3.856246   1.000000   1.000000
   20        3.078480      3.949516   1.000000   1.000000
   21        3.258058      4.621999   1.000000   1.000000
   22        4.176871      4.833416   1.000000   1.000000
   23        4.357193      5.179738   1.000000   1.000000
   24        4.964633      5.368106   1.000000   1.000000
   25        5.214266      5.509108   1.000000   1.000000
   26        5.412528      5.750191   1.000000   1.000000
   27        5.443441      5.892536   1.000000   1.000000
   28        5.773037      6.053397   1.000000   1.000000
   29        5.891516      6.450606   1.000000   1.000000
   30        6.078542      6.832035   1.000000   1.000000
   31        6.682418     10.553400   1.000000  -0.042473
   32        6.824630     11.209877   1.000000   0.000000
   33       10.551819     11.422960  -0.040109   0.000000
   34       11.211016     11.630353   0.000000   0.000000
   35       11.640874     11.791191   0.000000   0.000000
   36       11.763777     11.885578   0.000000   0.000000
   37       11.886951     11.903488   0.000000   0.000000
   38       11.893582     11.940426   0.000000   0.000000
   39       11.927872     12.063124   0.000000   0.000000
   40       12.059682     12.086537   0.000000   0.000000
   41       12.090432     12.118862   0.000000   0.000000
   42       12.117799     12.148887   0.000000   0.000000
   43       12.146018     12.179200   0.000000   0.000000
   44       12.167285     12.291594   0.000000   0.000000
   45       12.283558     12.305543   0.000000   0.000000
   46       12.305119     12.530187   0.000000   0.000000
   47       12.524243     12.640727   0.000000   0.000000
   48       12.612752     13.030259   0.000000   0.000000

  0.2857143E+00  0.1428571E+00  0.1305702E-14  0.2040816E-01
    1      -56.616637    -54.461830   1.000000   1.000000
    2      -56.533470    -54.344333   1.000000   1.000000
    3      -56.533128    -54.343237   1.000000   1.000000
    4      -23.156320    -23.156941   1.000000   1.000000
    5      -22.998243    -22.999291   1.000000   1.000000
    6      -10.912568    -10.764468   1.000000   1.000000
    7      -10.138085    -10.000865   1.000000   1.000000
    8       -9.633254     -9.444456   1.000000   1.000000
    9       -9.389722     -9.297430   1.000000   1.000000
   10       -6.895906     -6.891585   1.000000   1.000000
   11       -6.793404     -6.790366   1.000000   1.000000
   12       -6.507748     -6.495771   1.000000   1.000000
   13       -6.403952     -6.358794   1.000000   1.000000
   14       -5.754094     -5.696694   1.000000   1.000000
   15       -5.666453     -5.638364   1.000000   1.000000
   16        0.946986      2.649456   1.000000   1.000000
   17        1.861345      3.130757   1.000000   1.000000
   18        2.461378      3.373756   1.000000   1.000000
   19        2.595042      3.786704   1.000000   1.000000
   20        3.023490      4.041576   1.000000   1.000000
   21        3.082578      4.628217   1.000000   1.000000
   22        4.327880      4.966358   1.000000   1.000000
   23        4.705614      5.112058   1.000000   1.000000
   24        5.121156      5.469159   1.000000   1.000000
   25        5.164852      5.535832   1.000000   1.000000
   26        5.384363      5.767394   1.000000   1.000000
   27        5.463590      5.946090   1.000000   1.000000
   28        5.801283      6.014882   1.000000   1.000000
   29        5.969296      6.377261   1.000000   1.000000
   30        6.281392      6.753394   1.000000   1.000000
   31        6.615986     11.007579   1.000000  -0.000041
   32        7.153199     11.264969   1.000000   0.000000
   33       11.015172     11.461198   0.000000   0.000000
   34       11.263300     11.702746   0.000000   0.000000
   35       11.709615     11.804793   0.000000   0.000000
   36       11.788006     11.887040   0.000000   0.000000
   37       11.886106     11.934356   0.000000   0.000000
   38       11.923314     11.965918   0.000000   0.000000
   39       11.956021     12.015563   0.000000   0.000000
   40       12.010795     12.076778   0.000000   0.000000
   41       12.082004     12.107630   0.000000   0.000000
   42       12.100884     12.125947   0.000000   0.000000
   43       12.126112     12.153128   0.000000   0.000000
   44       12.150434     12.215047   0.000000   0.000000
   45       12.205523     12.323301   0.000000   0.000000
   46       12.307700     12.835052   0.000000   0.000000
   47       12.819010     13.055307   0.000000   0.000000
   48       13.038517     13.271183   0.000000   0.000000

  0.4285714E+00  0.1428571E+00  0.1372168E-14  0.2040816E-01
    1      -56.616593    -54.461779   1.000000   1.000000
    2      -56.533695    -54.344636   1.000000   1.000000
    3      -56.533175    -54.343262   1.000000   1.000000
    4      -23.116590    -23.117383   1.000000   1.000000
    5      -22.995267    -22.996277   1.000000   1.000000
    6      -10.828929    -10.677917   1.000000   1.000000
    7      -10.356489    -10.239027   1.000000   1.000000
    8       -9.593247     -9.478764   1.000000   1.000000
    9       -9.393991     -9.265350   1.000000   1.000000
   10       -7.037760     -7.033882   1.000000   1.000000
   11       -6.710647     -6.706412   1.000000   1.000000
   12       -6.622101     -6.617059   1.000000   1.000000
   13       -6.346090     -6.294923   1.000000   1.000000
   14       -5.773800     -5.738087   1.000000   1.000000
   15       -5.559437     -5.523020   1.000000   1.000000
   16        0.357563      2.562828   1.000000   1.000000
   17        1.863648      2.935201   1.000000   1.000000
   18        2.383428      2.957349   1.000000   1.000000
   19        2.413398      3.798584   1.000000   1.000000
   20        2.966558      4.184629   1.000000   1.000000
   21        3.018965      4.489705   1.000000   1.000000
   22        4.286893      4.890604   1.000000   1.000000
   23        4.826941      5.271949   1.000000   1.000000
   24        5.075552      5.372115   1.000000   1.000000
   25        5.248923      5.527233   1.000000   1.000000
   26        5.466572      5.742735   1.000000   1.000000
   27        5.541430      5.883839   1.000000   1.000000
   28        5.825018      6.198297   1.000000   1.000000
   29        6.161460      6.496222   1.000000   1.000000
   30        6.262960      6.687501   1.000000   1.000000
   31        6.450133     11.317147   1.000000   0.000000
   32        7.469024     11.454040   1.000000   0.000000
   33       11.325967     11.464259   0.000000   0.000000
   34       11.482769     11.649155   0.000000   0.000000
   35       11.660351     11.834744   0.000000   0.000000
   36       11.830382     11.894803   0.000000   0.000000
   37       11.889698     11.921969   0.000000   0.000000
   38       11.916724     11.939807   0.000000   0.000000
   39       11.925146     12.034049   0.000000   0.000000
   40       12.013154     12.062406   0.000000   0.000000
   41       12.063633     12.094039   0.000000   0.000000
   42       12.093865     12.106684   0.000000   0.000000
   43       12.097992     12.118833   0.000000   0.000000
   44       12.114942     12.204323   0.000000   0.000000
   45       12.201407     12.297890   0.000000   0.000000
   46       12.279753     13.040581   0.000000   0.000000
   47       13.031626     13.373759   0.000000   0.000000
   48       13.357328     13.701006   0.000000   0.000000

 -0.4285714E+00  0.1428571E+00  0.1257420E-14  0.2040816E-01
    1      -56.616614    -54.461808   1.000000   1.000000
    2      -56.533742    -54.344679   1.000000   1.000000
    3      -56.533128    -54.343206   1.000000   1.000000
    4      -23.126015    -23.126780   1.000000   1.000000
    5      -22.985438    -22.986476   1.000000   1.000000
    6      -10.734521    -10.560696   1.000000   1.000000
    7      -10.436877    -10.333658   1.000000   1.000000
    8       -9.628985     -9.550792   1.000000   1.000000
    9       -9.436167     -9.285568   1.000000   1.000000
   10       -6.977402     -6.973436   1.000000   1.000000
   11       -6.744145     -6.738058   1.000000   1.000000
   12       -6.573643     -6.569955   1.000000   1.000000
   13       -6.247331     -6.190569   1.000000   1.000000
   14       -5.819636     -5.779723   1.000000   1.000000
   15       -5.605892     -5.571995   1.000000   1.000000
   16        0.356221      2.455750   1.000000   1.000000
   17        1.864766      2.909445   1.000000   1.000000
   18        2.341084      3.042980   1.000000   1.000000
   19        2.387153      3.803680   1.000000   1.000000
   20        2.965540      4.163934   1.000000   1.000000
   21        3.019658      4.519129   1.000000   1.000000
   22        4.318412      4.885531   1.000000   1.000000
   23        4.863623      5.163371   1.000000   1.000000
   24        5.040869      5.394621   1.000000   1.000000
   25        5.311485      5.613806   1.000000   1.000000
   26        5.365443      5.766658   1.000000   1.000000
   27        5.590307      5.870049   1.000000   1.000000
   28        5.825631      6.149941   1.000000   1.000000
   29        6.083910      6.483343   1.000000   1.000000
   30        6.274180      6.756085   1.000000   1.000000
   31        6.570451     11.327122   1.000000   0.000000
   32        7.398454     11.455217   1.000000   0.000000
   33       11.344254     11.468630   0.000000   0.000000
   34       11.478476     11.612060   0.000000   0.000000
   35       11.648186     11.851825   0.000000   0.000000
   36       11.843127     11.903695   0.000000   0.000000
   37       11.891278     11.927269   0.000000   0.000000
   38       11.920065     11.951047   0.000000   0.000000
   39       11.938596     12.021708   0.000000   0.000000
   40       11.999829     12.051830   0.000000   0.000000
   41       12.046007     12.093709   0.000000   0.000000
   42       12.088932     12.110184   0.000000   0.000000
   43       12.109105     12.145331   0.000000   0.000000
   44       12.143670     12.189289   0.000000   0.000000
   45       12.186657     12.335189   0.000000   0.000000
   46       12.318252     12.974488   0.000000   0.000000
   47       12.982611     13.290151   0.000000   0.000000
   48       13.285106     13.677393   0.000000   0.000000

 -0.2857143E+00  0.1428571E+00  0.1238183E-14  0.2040816E-01
    1      -56.616703    -54.461856   1.000000   1.000000
    2      -56.533399    -54.344269   1.000000   1.000000
    3      -56.533066    -54.343158   1.000000   1.000000
    4      -23.172561    -23.173138   1.000000   1.000000
    5      -22.981028    -22.982128   1.000000   1.000000
    6      -10.828364    -10.664616   1.000000   1.000000
    7      -10.199845    -10.062376   1.000000   1.000000
    8       -9.594248     -9.514998   1.000000   1.000000
    9       -9.560274     -9.383901   1.000000   1.000000
   10       -6.922231     -6.923639   1.000000   1.000000
   11       -6.641700     -6.636164   1.000000   1.000000
   12       -6.522816     -6.509234   1.000000   1.000000
   13       -6.192609     -6.147135   1.000000   1.000000
   14       -5.850883     -5.769615   1.000000   1.000000
   15       -5.746543     -5.726292   1.000000   1.000000
   16        0.948092      2.523562   1.000000   1.000000
   17        1.864701      3.074715   1.000000   1.000000
   18        2.366822      3.449768   1.000000   1.000000
   19        2.556441      3.801064   1.000000   1.000000
   20        3.033024      4.040468   1.000000   1.000000
   21        3.075014      4.660779   1.000000   1.000000
   22        4.336005      4.872709   1.000000   1.000000
   23        4.812092      5.259050   1.000000   1.000000
   24        5.103183      5.409314   1.000000   1.000000
   25        5.247624      5.580487   1.000000   1.000000
   26        5.406321      5.685614   1.000000   1.000000
   27        5.476917      5.816866   1.000000   1.000000
   28        5.680206      6.079998   1.000000   1.000000
   29        5.851717      6.346915   1.000000   1.000000
   30        6.327393      6.903032   1.000000   1.000000
   31        6.757425     11.045803   1.000000   0.000000
   32        7.024882     11.258241   1.000000   0.000000
   33       11.040206     11.433601   0.000000   0.000000
   34       11.291254     11.683816   0.000000   0.000000
   35       11.710007     11.842834   0.000000   0.000000
   36       11.804754     11.890760   0.000000   0.000000
   37       11.879128     11.924010   0.000000   0.000000
   38       11.916885     11.940668   0.000000   0.000000
   39       11.935889     12.020777   0.000000   0.000000
   40       12.017379     12.088955   0.000000   0.000000
   41       12.091079     12.104790   0.000000   0.000000
   42       12.100493     12.141525   0.000000   0.000000
   43       12.137905     12.152667   0.000000   0.000000
   44       12.145608     12.254862   0.000000   0.000000
   45       12.251923     12.392357   0.000000   0.000000
   46       12.381750     12.803083   0.000000   0.000000
   47       12.798915     12.944416   0.000000   0.000000
   48       12.932667     13.323187   0.000000   0.000000

 -0.1428571E+00  0.1428571E+00  0.1271200E-14  0.1020408E-01
    1      -56.616689    -54.461824   1.000000   1.000000
    2      -56.533133    -54.343888   1.000000   1.000000
    3      -56.532975    -54.343143   1.000000   1.000000
    4      -23.218295    -23.218682   1.000000   1.000000
    5      -22.987580    -22.988719   1.000000   1.000000
    6      -11.038123    -10.873231   1.000000   1.000000
    7       -9.754045     -9.684084   1.000000   1.000000
    8       -9.715994     -9.387835   1.000000   1.000000
    9       -9.445098     -9.368806   1.000000   1.000000
   10       -6.849550     -6.853230   1.000000   1.000000
   11       -6.580860     -6.583158   1.000000   1.000000
   12       -6.552223     -6.517586   1.000000   1.000000
   13       -6.436640     -6.428919   1.000000   1.000000
   14       -5.855881     -5.842655   1.000000   1.000000
   15       -5.666324     -5.555543   1.000000   1.000000
   16        1.805777      2.862962   1.000000   1.000000
   17        1.885601      3.358842   1.000000   1.000000
   18        2.577300      3.729200   1.000000   1.000000
   19        2.843661      3.861206   1.000000   1.000000
   20        3.086246      3.970849   1.000000   1.000000
   21        3.245142      4.637871   1.000000   1.000000
   22        4.146694      4.723194   1.000000   1.000000
   23        4.399262      5.197046   1.000000   1.000000
   24        4.958456      5.587178   1.000000   1.000000
   25        5.325065      5.614922   1.000000   1.000000
   26        5.501972      5.649788   1.000000   1.000000
   27        5.505213      5.713545   1.000000   1.000000
   28        5.643099      5.967039   1.000000   1.000000
   29        5.735503      6.444830   1.000000   1.000000
   30        6.069664      6.969095   1.000000   1.000000
   31        6.682671     10.638291   1.000000   0.000000
   32        6.852285     11.210811   1.000000   0.000000
   33       10.629487     11.392780   0.000000   0.000000
   34       11.238201     11.590386   0.000000   0.000000
   35       11.603650     11.797259   0.000000   0.000000
   36       11.769348     11.888964   0.000000   0.000000
   37       11.884110     11.903885   0.000000   0.000000
   38       11.893231     11.938304   0.000000   0.000000
   39       11.924100     12.066092   0.000000   0.000000
   40       12.064400     12.092746   0.000000   0.000000
   41       12.093289     12.125012   0.000000   0.000000
   42       12.124420     12.151259   0.000000   0.000000
   43       12.148056     12.211154   0.000000   0.000000
   44       12.197518     12.308123   0.000000   0.000000
   45       12.308810     12.449386   0.000000   0.000000
   46       12.445612     12.474727   0.000000   0.000000
   47       12.464268     12.569488   0.000000   0.000000
   48       12.563329     12.934788   0.000000   0.000000

  0.2857143E+00  0.2857143E+00  0.1355533E-14  0.1020408E-01
    1      -56.616511    -54.461692   1.000000   1.000000
    2      -56.533404    -54.344254   1.000000   1.000000
    3      -56.533381    -54.343529   1.000000   1.000000
    4      -23.113352    -23.114144   1.000000   1.000000
    5      -22.991065    -22.992071   1.000000   1.000000
    6      -10.813591    -10.686514   1.000000   1.000000
    7      -10.065993     -9.849964   1.000000   1.000000
    8       -9.803201     -9.749493   1.000000   1.000000
    9       -9.295022     -9.185597   1.000000   1.000000
   10       -7.032009     -7.029390   1.000000   1.000000
   11       -7.005438     -7.004399   1.000000   1.000000
   12       -6.647578     -6.634506   1.000000   1.000000
   13       -6.435495     -6.383734   1.000000   1.000000
   14       -5.800521     -5.761349   1.000000   1.000000
   15       -5.609755     -5.580501   1.000000   1.000000
   16        0.814304      2.272248   1.000000   1.000000
   17        1.160200      2.979087   1.000000   1.000000
   18        2.366972      3.324547   1.000000   1.000000
   19        2.628156      3.542852   1.000000   1.000000
   20        2.768987      4.257397   1.000000   1.000000
   21        2.832955      4.789430   1.000000   1.000000
   22        4.526977      5.001371   1.000000   1.000000