       N       E                     dE             d eps       ncg     rms          rms(c)
DAV:   1     0.355009130477E+03    0.35501E+03   -0.33832E+04 11520   0.211E+03
DAV:   2    -0.481434439026E+02   -0.40315E+03   -0.40282E+03 16896   0.232E+02
DAV:   3    -0.568372032795E+02   -0.86938E+01   -0.86771E+01 11904   0.511E+01
DAV:   4    -0.571530556932E+02   -0.31585E+00   -0.31505E+00 22416   0.851E+00
DAV:   5    -0.571548100863E+02   -0.17544E-02   -0.17575E-02 12000   0.414E-01    0.361E+01
RMM:   6    -0.624251090040E+02   -0.52703E+01   -0.24544E+02 18274   0.976E+01    0.122E+02
RMM:   7    -0.609215993638E+02    0.15035E+01   -0.45436E+01 19978   0.300E+01    0.668E+01
RMM:   8    -0.504486945761E+02    0.10473E+02   -0.30505E+01 16153   0.325E+01    0.243E+01
RMM:   9    -0.498230976698E+02    0.62560E+00   -0.66478E+00 18179   0.121E+01    0.104E+01
RMM:  10    -0.501740026979E+02   -0.35091E+00   -0.43089E+00 18293   0.934E+00    0.595E+00
RMM:  11    -0.503979498211E+02   -0.22395E+00   -0.85905E-01 20152   0.389E+00    0.482E+00
RMM:  12    -0.505246013157E+02   -0.12665E+00   -0.30078E-01 20641   0.228E+00    0.350E+00
RMM:  13    -0.505653196434E+02   -0.40718E-01   -0.14010E-01 20279   0.162E+00    0.202E+00
RMM:  14    -0.505669924905E+02   -0.16728E-02   -0.61814E-02 19243   0.898E-01    0.139E+00
RMM:  15    -0.505714197694E+02   -0.44273E-02   -0.26542E-02 17848   0.719E-01    0.100E+00
RMM:  16    -0.505733995360E+02   -0.19798E-02   -0.17880E-02 16625   0.480E-01    0.737E-01
RMM:  17    -0.505745051771E+02   -0.11056E-02   -0.88909E-03 15467   0.409E-01    0.421E-01
RMM:  18    -0.505752119840E+02   -0.70681E-03   -0.77260E-03 14782   0.353E-01    0.243E-01
RMM:  19    -0.505757135050E+02   -0.50152E-03   -0.57234E-03 14186   0.290E-01    0.189E-01
RMM:  20    -0.505761254643E+02   -0.41196E-03   -0.45323E-03 13879   0.254E-01    0.130E-01
RMM:  21    -0.505764466466E+02   -0.32118E-03   -0.37146E-03 13431   0.221E-01    0.112E-01
RMM:  22    -0.505766707141E+02   -0.22407E-03   -0.26354E-03 13000   0.203E-01
   1 F= -.50576671E+02 E0= -.50576671E+02  d E =0.000000E+00  mag=     2.0514
