    1    1    1    2
  0.1658294E+02  0.2862368E-09  0.2862368E-09  0.2862368E-09  0.5000000E-15
   1.0000000000000000E-004
  CAR 
 unknown system                          
      3    195     48

  0.1262379E-14  0.1262379E-14  0.1262379E-14  0.1714678E-03
    1       -3.151598     -3.152805   1.000000   1.000000
    2       20.539964     20.539224   0.000000   0.000000
    3       20.539964     20.539225   0.000000   0.000000
    4       20.539964     20.539225   0.000000   0.000000
    5       21.994966     21.990336   0.000000   0.000000
    6       21.994966     21.990336   0.000000   0.000000
    7       21.994966     21.990336   0.000000   0.000000
    8       24.377011     24.377346   0.000000   0.000000
    9       27.314605     27.311582   0.000000   0.000000
   10       27.314605     27.311582   0.000000   0.000000
   11       30.160697     30.158152   0.000000   0.000000
   12       32.510857     32.510378   0.000000   0.000000
   13       32.510857     32.510378   0.000000   0.000000
   14       32.510857     32.510379   0.000000   0.000000
   15       41.063088     41.060633   0.000000   0.000000
   16       56.021439     56.020239   0.000000   0.000000
   17       56.021439     56.020240   0.000000   0.000000
   18       56.021439     56.020240   0.000000   0.000000
   19       56.057560     56.057544   0.000000   0.000000
   20       59.214151     59.211708   0.000000   0.000000
   21       59.214151     59.211708   0.000000   0.000000
   22       59.214151     59.211708   0.000000   0.000000
   23       62.833890     62.834037   0.000000   0.000000
   24       62.833890     62.834037   0.000000   0.000000
   25       65.076955     65.073768   0.000000   0.000000
   26       65.076955     65.073768   0.000000   0.000000
   27       65.076955     65.073768   0.000000   0.000000
   28       73.177988     73.177155   0.000000   0.000000
   29       73.177988     73.177155   0.000000   0.000000
   30       73.177989     73.177157   0.000000   0.000000
   31       80.819056     80.818277   0.000000   0.000000
   32       83.078097     83.076751   0.000000   0.000000
   33       83.078097     83.076751   0.000000   0.000000
   34       87.206296     87.206580   0.000000   0.000000
   35       87.206296     87.206581   0.000000   0.000000
   36       87.206296     87.206583   0.000000   0.000000
   37       90.088766     90.083327   0.000000   0.000000
   38       90.088766     90.083328   0.000000   0.000000
   39       90.088767     90.083328   0.000000   0.000000
   40       90.897284     90.890396   0.000000   0.000000
   41       93.459972     93.460361   0.000000   0.000000
   42       93.459972     93.460361   0.000000   0.000000
   43       93.459972     93.460361   0.000000   0.000000
   44       93.934765     93.931951   0.000000   0.000000
   45       93.934766     93.931951   0.000000   0.000000
   46       93.934766     93.931951   0.000000   0.000000
   47       96.373915     96.374823   0.000000   0.000000
   48       96.373915     96.374823   0.000000   0.000000

  0.5555556E-01  0.1262619E-14  0.1262619E-14  0.1371742E-02
    1       -3.067963     -3.069170   1.000000   1.000000
    2       19.019234     19.017791   0.000000   0.000000
    3       20.223205     20.221854   0.000000   0.000000
    4       20.223205     20.221855   0.000000   0.000000
    5       22.441774     22.437702   0.000000   0.000000
    6       22.441774     22.437703   0.000000   0.000000
    7       22.578173     22.574712   0.000000   0.000000
    8       25.255161     25.255064   0.000000   0.000000
    9       26.826478     26.823765   0.000000   0.000000
   10       26.826478     26.823765   0.000000   0.000000
   11       29.847999     29.845666   0.000000   0.000000
   12       32.942027     32.941233   0.000000   0.000000
   13       33.166790     33.166035   0.000000   0.000000
   14       33.166790     33.166036   0.000000   0.000000
   15       41.401423     41.399029   0.000000   0.000000
   16       55.658897     55.658243   0.000000   0.000000
   17       55.936826     55.935609   0.000000   0.000000
   18       55.936826     55.935609   0.000000   0.000000
   19       56.272691     56.272080   0.000000   0.000000
   20       58.315401     58.312993   0.000000   0.000000
   21       58.315401     58.312994   0.000000   0.000000
   22       59.221792     59.219401   0.000000   0.000000
   23       61.876878     61.876298   0.000000   0.000000
   24       61.876878     61.876299   0.000000   0.000000
   25       65.151998     65.148795   0.000000   0.000000
   26       67.089797     67.087357   0.000000   0.000000
   27       67.089798     67.087358   0.000000   0.000000
   28       72.459571     72.458821   0.000000   0.000000
   29       73.100304     73.099390   0.000000   0.000000
   30       73.100304     73.099391   0.000000   0.000000
   31       81.650740     81.649950   0.000000   0.000000
   32       82.634699     82.633179   0.000000   0.000000
   33       82.634699     82.633179   0.000000   0.000000
   34       85.326668     85.324453   0.000000   0.000000
   35       86.558108     86.558053   0.000000   0.000000
   36       86.558108     86.558053   0.000000   0.000000
   37       89.186402     89.183129   0.000000   0.000000
   38       89.186402     89.183130   0.000000   0.000000
   39       90.298348     90.292467   0.000000   0.000000
   40       90.766603     90.765597   0.000000   0.000000
   41       92.066169     92.063693   0.000000   0.000000
   42       92.146428     92.145528   0.000000   0.000000
   43       92.146428     92.145529   0.000000   0.000000
   44       95.196126     95.196995   0.000000   0.000000
   45       95.196126     95.196995   0.000000   0.000000
   46       95.704775     95.702589   0.000000   0.000000
   47       95.704776     95.702590   0.000000   0.000000
   48       96.807545     96.806140   0.000000   0.000000

  0.1111111E+00  0.1261637E-14  0.1261637E-14  0.1371742E-02
    1       -2.817361     -2.818568   1.000000   1.000000
    2       16.801803     16.800342   0.000000   0.000000
    3       19.708677     19.706896   0.000000   0.000000
    4       19.708677     19.706897   0.000000   0.000000
    5       22.646009     22.643247   0.000000   0.000000
    6       23.315369     23.311496   0.000000   0.000000
    7       23.315369     23.311497   0.000000   0.000000
    8       25.819180     25.817024   0.000000   0.000000
    9       25.819180     25.817024   0.000000   0.000000
   10       27.240682     27.239981   0.000000   0.000000
   11       29.106716     29.104594   0.000000   0.000000
   12       34.097981     34.096709   0.000000   0.000000
   13       34.704722     34.703579   0.000000   0.000000
   14       34.704722     34.703579   0.000000   0.000000
   15       42.338272     42.336041   0.000000   0.000000
   16       55.018455     55.016806   0.000000   0.000000
   17       55.018455     55.016806   0.000000   0.000000
   18       55.030055     55.029350   0.000000   0.000000
   19       56.407509     56.406840   0.000000   0.000000
   20       56.753511     56.751753   0.000000   0.000000
   21       56.753511     56.751753   0.000000   0.000000
   22       59.177324     59.175073   0.000000   0.000000
   23       61.541508     61.540626   0.000000   0.000000
   24       61.541508     61.540627   0.000000   0.000000
   25       65.376195     65.372942   0.000000   0.000000
   26       69.941381     69.939197   0.000000   0.000000
   27       69.941381     69.939197   0.000000   0.000000
   28       70.944835     70.944169   0.000000   0.000000
   29       72.910173     72.908963   0.000000   0.000000
   30       72.910173     72.908964   0.000000   0.000000
   31       81.200494     81.198628   0.000000   0.000000
   32       81.200494     81.198629   0.000000   0.000000
   33       81.827802     81.825501   0.000000   0.000000
   34       84.361359     84.359383   0.000000   0.000000
   35       85.273943     85.274436   0.000000   0.000000
   36       85.273943     85.274436   0.000000   0.000000
   37       87.366571     87.365090   0.000000   0.000000
   38       87.366571     87.365091   0.000000   0.000000
   39       88.032174     88.031207   0.000000   0.000000
   40       89.936220     89.930864   0.000000   0.000000
   41       90.913775     90.912273   0.000000   0.000000
   42       90.913775     90.912274   0.000000   0.000000
   43       92.194392     92.193969   0.000000   0.000000
   44       93.943708     93.944954   0.000000   0.000000
   45       96.094879     96.095872   0.000000   0.000000
   46       96.094879     96.095872   0.000000   0.000000
   47       97.832781     97.829679   0.000000   0.000000
   48       97.832781     97.829682   0.000000   0.000000

  0.1666667E+00  0.1267219E-14  0.1267219E-14  0.1371742E-02
    1       -2.400674     -2.401881   1.000000   1.000000
    2       14.570892     14.569480   0.000000   0.000000
    3       19.262322     19.260357   0.000000   0.000000
    4       19.262322     19.260358   0.000000   0.000000
    5       22.486305     22.483841   0.000000   0.000000
    6       23.918604     23.914687   0.000000   0.000000
    7       23.918604     23.914688   0.000000   0.000000
    8       25.176877     25.175125   0.000000   0.000000
    9       25.176877     25.175125   0.000000   0.000000
   10       28.165347     28.163304   0.000000   0.000000
   11       29.399619     29.398637   0.000000   0.000000
   12       35.857394     35.855701   0.000000   0.000000
   13       36.658350     36.656913   0.000000   0.000000
   14       36.658350     36.656914   0.000000   0.000000
   15       43.713577     43.711574   0.000000   0.000000
   16       52.471106     52.469301   0.000000   0.000000
   17       52.471106     52.469302   0.000000   0.000000
   18       54.159931     54.159190   0.000000   0.000000
   19       56.429693     56.428296   0.000000   0.000000
   20       56.429694     56.428296   0.000000   0.000000
   21       56.522501     56.521754   0.000000   0.000000
   22       58.966553     58.964535   0.000000   0.000000
   23       61.657353     61.656323   0.000000   0.000000
   24       61.657353     61.656324   0.000000   0.000000
   25       65.743885     65.740541   0.000000   0.000000
   26       69.325923     69.325120   0.000000   0.000000
   27       71.255992     71.254193   0.000000   0.000000
   28       71.255992     71.254194   0.000000   0.000000
   29       73.533290     73.531585   0.000000   0.000000
   30       73.533290     73.531586   0.000000   0.000000
   31       79.351401     79.349611   0.000000   0.000000
   32       79.351401     79.349611   0.000000   0.000000
   33       79.458220     79.454876   0.000000   0.000000
   34       83.384893     83.385806   0.000000   0.000000
   35       83.384893     83.385806   0.000000   0.000000
   36       85.482556     85.481701   0.000000   0.000000
   37       86.344502     86.343561   0.000000   0.000000
   38       86.587942     86.586898   0.000000   0.000000
   39       86.587942     86.586899   0.000000   0.000000
   40       87.506791     87.506543   0.000000   0.000000
   41       89.537313     89.532571   0.000000   0.000000
   42       90.156796     90.155132   0.000000   0.000000
   43       90.156796     90.155134   0.000000   0.000000
   44       93.996356     93.997533   0.000000   0.000000
   45       97.175503     97.175857   0.000000   0.000000
   46       97.175504     97.175857   0.000000   0.000000
   47       99.120160     99.118651   0.000000   0.000000
   48       99.120161     99.118652   0.000000   0.000000

  0.2222222E+00  0.1266279E-14  0.1266279E-14  0.1371742E-02
    1       -1.819348     -1.820555   1.000000   1.000000
    2       12.415933     12.414566   0.000000   0.000000
    3       18.934811     18.932754   0.000000   0.000000
    4       18.934811     18.932754   0.000000   0.000000
    5       22.317655     22.315359   0.000000   0.000000
    6       23.157772     23.154920   0.000000   0.000000
    7       23.157772     23.154920   0.000000   0.000000
    8       26.103797     26.101132   0.000000   0.000000
    9       26.103797     26.101133   0.000000   0.000000
   10       27.155152     27.153119   0.000000   0.000000
   11       31.489820     31.488638   0.000000   0.000000
   12       38.129333     38.127253   0.000000   0.000000
   13       38.830052     38.828356   0.000000   0.000000
   14       38.830052     38.828356   0.000000   0.000000
   15       45.381621     45.379891   0.000000   0.000000
   16       49.699168     49.697533   0.000000   0.000000
   17       49.699168     49.697533   0.000000   0.000000
   18       53.052601     53.051892   0.000000   0.000000
   19       56.376772     56.375435   0.000000   0.000000
   20       56.376773     56.375435   0.000000   0.000000
   21       56.646905     56.646061   0.000000   0.000000
   22       58.521971     58.520281   0.000000   0.000000
   23       61.922002     61.920843   0.000000   0.000000
   24       61.922002     61.920845   0.000000   0.000000
   25       66.246778     66.243290   0.000000   0.000000
   26       67.762817     67.761526   0.000000   0.000000
   27       69.965562     69.963454   0.000000   0.000000
   28       69.965563     69.963455   0.000000   0.000000
   29       74.577744     74.576827   0.000000   0.000000
   30       74.577744     74.576828   0.000000   0.000000
   31       77.409044     77.405412   0.000000   0.000000
   32       78.731425     78.729822   0.000000   0.000000
   33       78.731425     78.729822   0.000000   0.000000
   34       81.337276     81.337844   0.000000   0.000000
   35       81.337276     81.337844   0.000000   0.000000
   36       82.212317     82.212956   0.000000   0.000000
   37       83.132252     83.131566   0.000000   0.000000
   38       86.931566     86.930741   0.000000   0.000000
   39       86.931566     86.930742   0.000000   0.000000
   40       88.741277     88.739472   0.000000   0.000000
   41       89.626986     89.623202   0.000000   0.000000
   42       89.730045     89.728336   0.000000   0.000000
   43       89.730045     89.728338   0.000000   0.000000
   44       93.497504     93.498384   0.000000   0.000000
   45       97.348913     97.348425   0.000000   0.000000
   46       97.348914     97.348425   0.000000   0.000000
   47      100.747291    100.747095   0.000000   0.000000
   48      100.747291    100.747096   0.000000   0.000000

  0.2777778E+00  0.1238083E-14  0.1238083E-14  0.1371742E-02
    1       -1.075377     -1.076584   1.000000   1.000000
    2       10.367905     10.366572   0.000000   0.000000
    3       18.739452     18.737338   0.000000   0.000000
    4       18.739452     18.737338   0.000000   0.000000
    5       22.170155     22.167641   0.000000   0.000000
    6       22.170155     22.167642   0.000000   0.000000
    7       22.220125     22.217944   0.000000   0.000000
    8       26.158231     26.156183   0.000000   0.000000
    9       27.494485     27.491501   0.000000   0.000000
   10       27.494485     27.491501   0.000000   0.000000
   11       33.493096     33.491693   0.000000   0.000000
   12       40.766056     40.763595   0.000000   0.000000
   13       41.041022     41.038990   0.000000   0.000000
   14       41.041022     41.038990   0.000000   0.000000
   15       47.158345     47.157057   0.000000   0.000000
   16       47.158345     47.157058   0.000000   0.000000
   17       47.193269     47.191814   0.000000   0.000000
   18       51.799846     51.799328   0.000000   0.000000
   19       56.355180     56.353862   0.000000   0.000000
   20       56.355181     56.353863   0.000000   0.000000
   21       56.794914     56.793955   0.000000   0.000000
   22       57.856148     57.854803   0.000000   0.000000
   23       62.186878     62.185491   0.000000   0.000000
   24       62.186878     62.185491   0.000000   0.000000
   25       66.185926     66.183866   0.000000   0.000000
   26       66.866879     66.863176   0.000000   0.000000
   27       67.600766     67.598730   0.000000   0.000000
   28       67.600766     67.598731   0.000000   0.000000
   29       74.348251     74.347892   0.000000   0.000000
   30       74.348252     74.347893   0.000000   0.000000
   31       75.530547     75.527252   0.000000   0.000000
   32       78.093196     78.093926   0.000000   0.000000
   33       79.060548     79.061015   0.000000   0.000000
   34       79.060549     79.061015   0.000000   0.000000
   35       79.947320     79.945973   0.000000   0.000000
   36       79.947323     79.945974   0.000000   0.000000
   37       80.998013     80.997562   0.000000   0.000000
   38       88.336866     88.335809   0.000000   0.000000
   39       88.336867     88.335811   0.000000   0.000000
   40       88.726763     88.723408   0.000000   0.000000
   41       89.463493     89.461817   0.000000   0.000000
   42       89.463494     89.461818   0.000000   0.000000
   43       91.204518     91.203432   0.000000   0.000000
   44       93.039661     93.039722   0.000000   0.000000
   45       97.547160     97.546323   0.000000   0.000000
   46       97.547155     97.546348   0.000000   0.000000
   47      101.514980    101.513914   0.000000   0.000000
   48      102.600613    102.600698   0.000000   0.000000

  0.3333333E+00  0.1237143E-14  0.1237143E-14  0.1371742E-02
    1       -0.171224     -0.172430   1.000000   1.000000
    2        8.442154      8.440845   0.151826   0.152714
    3       18.681034     18.678875   0.000000   0.000000
    4       18.681034     18.678875   0.000000   0.000000
    5       21.268545     21.266194   0.000000   0.000000
    6       21.268545     21.266194   0.000000   0.000000
    7       22.233628     22.231537   0.000000   0.000000
    8       25.226861     25.224785   0.000000   0.000000
    9       29.026879     29.023632   0.000000   0.000000
   10       29.026879     29.023632   0.000000   0.000000
   11       35.426923     35.425233   0.000000   0.000000
   12       42.383167     42.380776   0.000000   0.000000
   13       42.383167     42.380777   0.000000   0.000000
   14       43.562990     43.560156   0.000000   0.000000
   15       45.809752     45.808917   0.000000   0.000000
   16       45.809752     45.808917   0.000000   0.000000
   17       48.502615     48.501337   0.000000   0.000000
   18       51.114727     51.114665   0.000000   0.000000
   19       56.326266     56.324962   0.000000   0.000000
   20       56.326267     56.324962   0.000000   0.000000
   21       56.963115     56.961883   0.000000   0.000000
   22       56.978516     56.977549   0.000000   0.000000
   23       62.051111     62.049069   0.000000   0.000000
   24       62.051112     62.049070   0.000000   0.000000
   25       64.581962     64.579170   0.000000   0.000000
   26       65.157221     65.155950   0.000000   0.000000
   27       65.157221     65.155951   0.000000   0.000000
   28       67.570942     67.566927   0.000000   0.000000
   29       71.955143     71.954122   0.000000   0.000000
   30       73.980649     73.980394   0.000000   0.000000
   31       73.980651     73.980395   0.000000   0.000000
   32       76.654613     76.653531   0.000000   0.000000
   33       77.689127     77.689651   0.000000   0.000000
   34       77.689128     77.689651   0.000000   0.000000
   35       79.116820     79.116697   0.000000   0.000000
   36       80.308822     80.307842   0.000000   0.000000
   37       80.308823     80.307843   0.000000   0.000000
   38       88.583169     88.579741   0.000000   0.000000
   39       89.233963     89.232360   0.000000   0.000000
   40       89.233970     89.232360   0.000000   0.000000
   41       90.644859     90.643499   0.000000   0.000000
   42       90.644859     90.643499   0.000000   0.000000
   43       90.946316     90.946651   0.000000   0.000000
   44       93.872526     93.871849   0.000000   0.000000
   45       98.283522     98.282378   0.000000   0.000000
   46       98.283513     98.282386   0.000000   0.000000
   47      101.823714    101.821846   0.000000   0.000000
   48      103.862367    103.862359   0.000000   0.000000

  0.3888889E+00  0.1249414E-14  0.1249414E-14  0.1371742E-02
    1        0.890130      0.888926   1.000000   1.000000
    2        6.648036      6.646743   1.048506   1.048272
    3       18.761640     18.759431   0.000000   0.000000
    4       18.761640     18.759432   0.000000   0.000000
    5       20.491543     20.489302   0.000000   0.000000
    6       20.491543     20.489302   0.000000   0.000000
    7       22.379148     22.377145   0.000000   0.000000
    8       24.394799     24.392673   0.000000   0.000000
    9       30.602106     30.598496   0.000000   0.000000
   10       30.602106     30.598496   0.000000   0.000000
   11       37.256989     37.254898   0.000000   0.000000
   12       41.140137     41.138487   0.000000   0.000000
   13       41.140137     41.138487   0.000000   0.000000
   14       46.068297     46.065666   0.000000   0.000000
   15       47.412693     47.411337   0.000000   0.000000
   16       47.412693     47.411337   0.000000   0.000000
   17       48.008436     48.007232   0.000000   0.000000
   18       52.676879     52.676963   0.000000   0.000000
   19       55.866168     55.865067   0.000000   0.000000
   20       56.213804     56.212517   0.000000   0.000000
   21       56.213804     56.212518   0.000000   0.000000
   22       57.165407     57.164186   0.000000   0.000000
   23       60.371826     60.369322   0.000000   0.000000
   24       60.371827     60.369322   0.000000   0.000000
   25       63.120939     63.117787   0.000000   0.000000
   26       64.197339     64.196694   0.000000   0.000000
   27       64.197340     64.196694   0.000000   0.000000
   28       67.804171     67.803869   0.000000   0.000000
   29       68.288928     68.284478   0.000000   0.000000
   30       73.738460     73.738223   0.000000   0.000000
   31       73.738463     73.738226   0.000000   0.000000
   32       76.448338     76.448648   0.000000   0.000000
   33       76.448338     76.448648   0.000000   0.000000
   34       76.601608     76.600115   0.000000   0.000000
   35       77.557892     77.558215   0.000000   0.000000
   36       80.498856     80.498367   0.000000   0.000000
   37       80.498857     80.498369   0.000000   0.000000
   38       88.529152     88.525730   0.000000   0.000000
   39       89.038342     89.036815   0.000000   0.000000
   40       89.038350     89.036811   0.000000   0.000000
   41       90.066409     90.066910   0.000000   0.000000
   42       93.090209     93.088780   0.000000   0.000000
   43       93.090210     93.088783   0.000000   0.000000
   44       94.339387     94.339100   0.000000   0.000000
   45       99.667288     99.665984   0.000000   0.000000
   46       99.667414     99.666032   0.000000   0.000000
   47      103.035043    103.032678   0.000000   0.000000
   48      104.136142    104.135601   0.000000   0.000000

  0.4444444E+00  0.1249140E-14  0.1249140E-14  0.1371742E-02
    1        2.104646      2.103457   1.000000   1.000000
    2        4.992850      4.991551   1.000000   1.000000
    3       18.981932     18.979632   0.000000   0.000000
    4       18.981932     18.979632   0.000000   0.000000
    5       19.850474     19.848356   0.000000   0.000000
    6       19.850474     19.848356   0.000000   0.000000
    7       22.665979     22.664122   0.000000   0.000000
    8       23.684748     23.682496   0.000000   0.000000
    9       32.011254     32.007083   0.000000   0.000000
   10       32.011254     32.007084   0.000000   0.000000
   11       38.795500     38.792839   0.000000   0.000000
   12       39.464199     39.463281   0.000000   0.000000
   13       39.464199     39.463281   0.000000   0.000000
   14       45.978008     45.977842   0.000000   0.000000
   15       49.275914     49.272641   0.000000   0.000000
   16       49.888792     49.887093   0.000000   0.000000
   17       49.888793     49.887093   0.000000   0.000000
   18       54.429750     54.428489   0.000000   0.000000
   19       55.103707     55.103792   0.000000   0.000000
   20       55.673197     55.671874   0.000000   0.000000
   21       55.673198     55.671875   0.000000   0.000000
   22       57.521166     57.519891   0.000000   0.000000
   23       58.206261     58.204037   0.000000   0.000000
   24       58.206261     58.204038   0.000000   0.000000
   25       61.907819     61.905286   0.000000   0.000000
   26       64.137800     64.137254   0.000000   0.000000
   27       64.214423     64.213731   0.000000   0.000000
   28       64.214424     64.213732   0.000000   0.000000
   29       68.879972     68.875021   0.000000   0.000000
   30       73.613879     73.613671   0.000000   0.000000
   31       73.613879     73.613671   0.000000   0.000000
   32       75.625457     75.625627   0.000000   0.000000
   33       75.625457     75.625628   0.000000   0.000000
   34       76.462068     76.462898   0.000000   0.000000
   35       76.827259     76.825662   0.000000   0.000000
   36       80.538930     80.538692   0.000000   0.000000
   37       80.538931     80.538694   0.000000   0.000000
   38       88.573218     88.569671   0.000000   0.000000
   39       88.896700     88.895210   0.000000   0.000000
   40       88.896700     88.895212   0.000000   0.000000
   41       89.313861     89.314520   0.000000   0.000000
   42       94.233418     94.233362   0.000000   0.000000
   43       94.884458     94.883082   0.000000   0.000000
   44       94.884459     94.883082   0.000000   0.000000
   45      101.065543    101.064882   0.000000   0.000000
   46      101.065544    101.064883   0.000000   0.000000
   47      104.784465    104.782730   0.000000   0.000000
   48      104.784466    104.782730   0.000000   0.000000

  0.5000000E+00  0.1247867E-14  0.1247867E-14  0.6858711E-03
    1        3.374881      3.374279   1.000000   1.000000
    2        3.575588      3.573705   1.000000   1.000000
    3       19.305497     19.301940   0.000000   0.000000
    4       19.305497     19.301940   0.000000   0.000000
    5       19.386312     19.385461   0.000000   0.000000
    6       19.386312     19.385461   0.000000   0.000000
    7       23.042402     23.042207   0.000000   0.000000
    8       23.165560     23.161652   0.000000   0.000000
    9       32.671535     32.666926   0.000000   0.000000
   10       32.671535     32.666927   0.000000   0.000000
   11       38.689482     38.689043   0.000000   0.000000
   12       38.689482     38.689043   0.000000   0.000000
   13       39.485700     39.482624   0.000000   0.000000
   14       45.404742     45.405145   0.000000   0.000000
   15       50.568769     50.565068   0.000000   0.000000
   16       51.534568     51.532629   0.000000   0.000000
   17       51.534568     51.532630   0.000000   0.000000
   18       53.502767     53.501566   0.000000   0.000000
   19       54.652428     54.651063   0.000000   0.000000
   20       54.652428     54.651063   0.000000   0.000000
   21       56.248466     56.248058   0.000000   0.000000
   22       57.503459     57.501517   0.000000   0.000000
   23       57.503459     57.501517   0.000000   0.000000
   24       58.421542     58.420245   0.000000   0.000000
   25       60.612167     60.612200   0.000000   0.000000
   26       62.630653     62.628257   0.000000   0.000000
   27       64.275030     64.274308   0.000000   0.000000
   28       64.275030     64.274309   0.000000   0.000000
   29       69.123078     69.117866   0.000000   0.000000
   30       73.579102     73.578915   0.000000   0.000000
   31       73.579102     73.578915   0.000000   0.000000
   32       75.332765     75.332879   0.000000   0.000000
   33       75.332765     75.332879   0.000000   0.000000
   34       76.051490     76.052585   0.000000   0.000000
   35       76.948318     76.946690   0.000000   0.000000
   36       80.544882     80.544716   0.000000   0.000000
   37       80.544883     80.544718   0.000000   0.000000
   38       88.686721     88.681631   0.000000   0.000000
   39       88.848189     88.846716   0.000000   0.000000
   40       88.848189     88.846718   0.000000   0.000000
   41       88.940863     88.943062   0.000000   0.000000
   42       94.133096     94.133110   0.000000   0.000000
   43       95.545571     95.544198   0.000000   0.000000
   44       95.545572     95.544199   0.000000   0.000000
   45      101.359742    101.359577   0.000000   0.000000
   46      101.359742    101.359577   0.000000   0.000000
   47      107.179959    107.177116   0.000000   0.000000
   48      107.180003    107.177116   0.000000   0.000000

  0.5555556E-01  0.5555556E-01  0.1262379E-14  0.1028807E-02
    1       -3.040088     -3.041294   1.000000   1.000000
    2       19.507790     19.506055   0.000000   0.000000
    3       19.507790     19.506055   0.000000   0.000000
    4       19.781974     19.781419   0.000000   0.000000
    5       21.726486     21.721908   0.000000   0.000000
    6       23.190743     23.187039   0.000000   0.000000
    7       23.190743     23.187039   0.000000   0.000000
    8       25.357782     25.357928   0.000000   0.000000
    9       25.951654     25.949268   0.000000   0.000000
   10       27.417893     27.414854   0.000000   0.000000
   11       30.179169     30.176549   0.000000   0.000000
   12       32.638186     32.637766   0.000000   0.000000
   13       32.638186     32.637766   0.000000   0.000000
   14       34.066779     34.065580   0.000000   0.000000
   15       41.536167     41.533803   0.000000   0.000000
   16       55.689093     55.688636   0.000000   0.000000
   17       55.805845     55.804556   0.000000   0.000000
   18       55.805845     55.804556   0.000000   0.000000
   19       56.365131     56.364384   0.000000   0.000000
   20       58.272886     58.270451   0.000000   0.000000
   21       58.272886     58.270452   0.000000   0.000000
   22       59.287833     59.285383   0.000000   0.000000