<?xml version="1.0" encoding="ISO-8859-1"?>
<modeling>
 <generator>
  <i name="program" type="string">vasp </i>
  <i name="version" type="string">6.2.1  </i>
  <i name="subversion" type="string">16May21 (build Aug 15 2022 14:47:30) complex                          parallel </i>
  <i name="platform" type="string">LinuxGNU </i>
  <i name="date" type="string">2025 12 15 </i>
  <i name="time" type="string">21:34:14 </i>
 </generator>
 <incar>
  <i type="string" name="PREC">Accurate</i>
  <i type="string" name="ALGO">Fast</i>
  <i type="int" name="ISPIN">     2</i>
  <i type="int" name="NELM">   100</i>
  <i name="EDIFF">      0.00005000</i>
  <i type="int" name="NSW">     0</i>
  <i name="ENCUT">    520.00000000</i>
  <v name="MAGMOM">      0.60000000</v>
  <i type="logical" name="LREAL"> F  </i>
  <i type="int" name="ISMEAR">    -5</i>
  <i name="SIGMA">      0.05000000</i>
  <i type="logical" name="LWAVE"> F  </i>
  <i type="logical" name="LCHARG"> T  </i>
  <i type="int" name="LORBIT">    11</i>
  <i type="logical" name="LASPH"> T  </i>
 </incar>
 <primitive_cell>
  <structure name="primitive_cell" >
   <crystal>
    <varray name="basis" >
     <v>       0.00000000       2.02400000       2.02400000 </v>
     <v>       2.02400000       0.00000000       2.02400000 </v>
     <v>       2.02400000       2.02400000       0.00000000 </v>
    </varray>
    <i name="volume">     16.58293965 </i>
    <varray name="rec_basis" >
     <v>      -0.24703557       0.24703557       0.24703557 </v>
     <v>       0.24703557      -0.24703557       0.24703557 </v>
     <v>       0.24703557       0.24703557      -0.24703557 </v>
    </varray>
   </crystal>
   <varray name="positions" >
    <v>       0.00000000       0.00000000       0.00000000 </v>
   </varray>
  </structure>
  <varray name="primitive_index" >
   <v type="int" >        1 </v>
  </varray>
 </primitive_cell>
 <kpoints>
  <generation param="Gamma">
   <v type="int" name="divisions">      18       18       18 </v>
   <v name="usershift">      0.00000000       0.00000000       0.00000000 </v>
   <v name="genvec1">      0.05555556       0.00000000       0.00000000 </v>
   <v name="genvec2">      0.00000000       0.05555556       0.00000000 </v>
   <v name="genvec3">      0.00000000       0.00000000       0.05555556 </v>
   <v name="shift">      0.00000000       0.00000000       0.00000000 </v>
  </generation>
  <varray name="kpointlist" >
   <v>       0.00000000       0.00000000       0.00000000 </v>
   <v>       0.05555556       0.00000000       0.00000000 </v>
   <v>       0.11111111       0.00000000       0.00000000 </v>
   <v>       0.16666667       0.00000000       0.00000000 </v>
   <v>       0.22222222       0.00000000       0.00000000 </v>
   <v>       0.27777778       0.00000000       0.00000000 </v>
   <v>       0.33333333       0.00000000       0.00000000 </v>
   <v>       0.38888889       0.00000000       0.00000000 </v>
   <v>       0.44444444       0.00000000       0.00000000 </v>
   <v>       0.50000000       0.00000000       0.00000000 </v>
   <v>       0.05555556       0.05555556       0.00000000 </v>
   <v>       0.11111111       0.05555556       0.00000000 </v>
   <v>       0.16666667       0.05555556       0.00000000 </v>
   <v>       0.22222222       0.05555556       0.00000000 </v>
   <v>       0.27777778       0.05555556       0.00000000 </v>
   <v>       0.33333333       0.05555556       0.00000000 </v>
   <v>       0.38888889       0.05555556       0.00000000 </v>
   <v>       0.44444444       0.05555556       0.00000000 </v>
   <v>       0.50000000       0.05555556       0.00000000 </v>
   <v>      -0.44444444       0.05555556       0.00000000 </v>
   <v>      -0.38888889       0.05555556       0.00000000 </v>
   <v>      -0.33333333       0.05555556       0.00000000 </v>
   <v>      -0.27777778       0.05555556       0.00000000 </v>
   <v>      -0.22222222       0.05555556       0.00000000 </v>
   <v>      -0.16666667       0.05555556       0.00000000 </v>
   <v>      -0.11111111       0.05555556       0.00000000 </v>
   <v>      -0.05555556       0.05555556       0.00000000 </v>
   <v>       0.11111111       0.11111111       0.00000000 </v>
   <v>       0.16666667       0.11111111       0.00000000 </v>
   <v>       0.22222222       0.11111111       0.00000000 </v>
   <v>       0.27777778       0.11111111       0.00000000 </v>
   <v>       0.33333333       0.11111111       0.00000000 </v>
   <v>       0.38888889       0.11111111       0.00000000 </v>
   <v>       0.44444444       0.11111111       0.00000000 </v>
   <v>       0.50000000       0.11111111       0.00000000 </v>
   <v>      -0.44444444       0.11111111       0.00000000 </v>
   <v>      -0.38888889       0.11111111       0.00000000 </v>
   <v>      -0.33333333       0.11111111       0.00000000 </v>
   <v>      -0.27777778       0.11111111       0.00000000 </v>
   <v>      -0.22222222       0.11111111       0.00000000 </v>
   <v>      -0.16666667       0.11111111       0.00000000 </v>
   <v>      -0.11111111       0.11111111       0.00000000 </v>
   <v>       0.16666667       0.16666667       0.00000000 </v>
   <v>       0.22222222       0.16666667       0.00000000 </v>
   <v>       0.27777778       0.16666667       0.00000000 </v>
   <v>       0.33333333       0.16666667       0.00000000 </v>
   <v>       0.38888889       0.16666667       0.00000000 </v>
   <v>       0.44444444       0.16666667       0.00000000 </v>
   <v>       0.50000000       0.16666667       0.00000000 </v>
   <v>      -0.44444444       0.16666667       0.00000000 </v>
   <v>      -0.38888889       0.16666667       0.00000000 </v>
   <v>      -0.33333333       0.16666667       0.00000000 </v>
   <v>      -0.27777778       0.16666667       0.00000000 </v>
   <v>      -0.22222222       0.16666667       0.00000000 </v>
   <v>      -0.16666667       0.16666667       0.00000000 </v>
   <v>       0.22222222       0.22222222       0.00000000 </v>
   <v>       0.27777778       0.22222222       0.00000000 </v>
   <v>       0.33333333       0.22222222       0.00000000 </v>
   <v>       0.38888889       0.22222222       0.00000000 </v>
   <v>       0.44444444       0.22222222       0.00000000 </v>
   <v>       0.50000000       0.22222222       0.00000000 </v>
   <v>      -0.44444444       0.22222222       0.00000000 </v>
   <v>      -0.38888889       0.22222222       0.00000000 </v>
   <v>      -0.33333333       0.22222222       0.00000000 </v>
   <v>      -0.27777778       0.22222222       0.00000000 </v>
   <v>      -0.22222222       0.22222222       0.00000000 </v>
   <v>       0.27777778       0.27777778       0.00000000 </v>
   <v>       0.33333333       0.27777778       0.00000000 </v>
   <v>       0.38888889       0.27777778       0.00000000 </v>
   <v>       0.44444444       0.27777778       0.00000000 </v>
   <v>       0.50000000       0.27777778       0.00000000 </v>
   <v>      -0.44444444       0.27777778       0.00000000 </v>
   <v>      -0.38888889       0.27777778       0.00000000 </v>
   <v>      -0.33333333       0.27777778       0.00000000 </v>
   <v>      -0.27777778       0.27777778       0.00000000 </v>
   <v>       0.33333333       0.33333333       0.00000000 </v>
   <v>       0.38888889       0.33333333       0.00000000 </v>
   <v>       0.44444444       0.33333333       0.00000000 </v>
   <v>       0.50000000       0.33333333       0.00000000 </v>
   <v>      -0.44444444       0.33333333       0.00000000 </v>
   <v>      -0.38888889       0.33333333       0.00000000 </v>
   <v>      -0.33333333       0.33333333       0.00000000 </v>
   <v>       0.38888889       0.38888889       0.00000000 </v>
   <v>       0.44444444       0.38888889       0.00000000 </v>
   <v>       0.50000000       0.38888889       0.00000000 </v>
   <v>      -0.44444444       0.38888889       0.00000000 </v>
   <v>      -0.38888889       0.38888889       0.00000000 </v>
   <v>       0.44444444       0.44444444       0.00000000 </v>
   <v>       0.50000000       0.44444444       0.00000000 </v>
   <v>      -0.44444444       0.44444444       0.00000000 </v>
   <v>       0.50000000       0.50000000       0.00000000 </v>
   <v>       0.16666667       0.11111111       0.05555556 </v>
   <v>       0.22222222       0.11111111       0.05555556 </v>
   <v>       0.27777778       0.11111111       0.05555556 </v>
   <v>       0.33333333       0.11111111       0.05555556 </v>
   <v>       0.38888889       0.11111111       0.05555556 </v>
   <v>       0.44444444       0.11111111       0.05555556 </v>
   <v>       0.50000000       0.11111111       0.05555556 </v>
   <v>      -0.44444444       0.11111111       0.05555556 </v>
   <v>       0.22222222       0.16666667       0.05555556 </v>
   <v>       0.27777778       0.16666667       0.05555556 </v>
   <v>       0.33333333       0.16666667       0.05555556 </v>
   <v>       0.38888889       0.16666667       0.05555556 </v>
   <v>       0.44444444       0.16666667       0.05555556 </v>
   <v>       0.50000000       0.16666667       0.05555556 </v>
   <v>      -0.44444444       0.16666667       0.05555556 </v>
   <v>      -0.38888889       0.16666667       0.05555556 </v>
   <v>      -0.33333333       0.16666667       0.05555556 </v>
   <v>      -0.27777778       0.16666667       0.05555556 </v>
   <v>      -0.22222222       0.16666667       0.05555556 </v>
   <v>      -0.16666667       0.16666667       0.05555556 </v>
   <v>      -0.11111111       0.16666667       0.05555556 </v>
   <v>       0.27777778       0.22222222       0.05555556 </v>
   <v>       0.33333333       0.22222222       0.05555556 </v>
   <v>       0.38888889       0.22222222       0.05555556 </v>
   <v>       0.44444444       0.22222222       0.05555556 </v>
   <v>       0.50000000       0.22222222       0.05555556 </v>
   <v>      -0.44444444       0.22222222       0.05555556 </v>
   <v>      -0.38888889       0.22222222       0.05555556 </v>
   <v>      -0.33333333       0.22222222       0.05555556 </v>
   <v>      -0.27777778       0.22222222       0.05555556 </v>
   <v>      -0.22222222       0.22222222       0.05555556 </v>
   <v>      -0.16666667       0.22222222       0.05555556 </v>
   <v>       0.33333333       0.27777778       0.05555556 </v>
   <v>       0.38888889       0.27777778       0.05555556 </v>
   <v>       0.44444444       0.27777778       0.05555556 </v>
   <v>       0.50000000       0.27777778       0.05555556 </v>
   <v>      -0.44444444       0.27777778       0.05555556 </v>
   <v>      -0.38888889       0.27777778       0.05555556 </v>
   <v>      -0.33333333       0.27777778       0.05555556 </v>
   <v>      -0.27777778       0.27777778       0.05555556 </v>
   <v>      -0.22222222       0.27777778       0.05555556 </v>
   <v>       0.38888889       0.33333333       0.05555556 </v>
   <v>       0.44444444       0.33333333       0.05555556 </v>
   <v>       0.50000000       0.33333333       0.05555556 </v>
   <v>      -0.44444444       0.33333333       0.05555556 </v>
   <v>      -0.38888889       0.33333333       0.05555556 </v>
   <v>      -0.33333333       0.33333333       0.05555556 </v>
   <v>      -0.27777778       0.33333333       0.05555556 </v>
   <v>       0.44444444       0.38888889       0.05555556 </v>
   <v>       0.50000000       0.38888889       0.05555556 </v>
   <v>      -0.44444444       0.38888889       0.05555556 </v>
   <v>      -0.38888889       0.38888889       0.05555556 </v>
   <v>      -0.33333333       0.38888889       0.05555556 </v>
   <v>       0.50000000       0.44444444       0.05555556 </v>
   <v>      -0.44444444       0.44444444       0.05555556 </v>
   <v>      -0.38888889       0.44444444       0.05555556 </v>
   <v>      -0.44444444       0.50000000       0.05555556 </v>
   <v>       0.33333333       0.22222222       0.11111111 </v>
   <v>       0.38888889       0.22222222       0.11111111 </v>
   <v>       0.44444444       0.22222222       0.11111111 </v>
   <v>       0.50000000       0.22222222       0.11111111 </v>
   <v>      -0.44444444       0.22222222       0.11111111 </v>
   <v>      -0.38888889       0.22222222       0.11111111 </v>
   <v>       0.38888889       0.27777778       0.11111111 </v>
   <v>       0.44444444       0.27777778       0.11111111 </v>
   <v>       0.50000000       0.27777778       0.11111111 </v>
   <v>      -0.44444444       0.27777778       0.11111111 </v>
   <v>      -0.38888889       0.27777778       0.11111111 </v>
   <v>      -0.33333333       0.27777778       0.11111111 </v>
   <v>      -0.27777778       0.27777778       0.11111111 </v>
   <v>      -0.22222222       0.27777778       0.11111111 </v>
   <v>      -0.16666667       0.27777778       0.11111111 </v>
   <v>       0.44444444       0.33333333       0.11111111 </v>
   <v>       0.50000000       0.33333333       0.11111111 </v>
   <v>      -0.44444444       0.33333333       0.11111111 </v>
   <v>      -0.38888889       0.33333333       0.11111111 </v>
   <v>      -0.33333333       0.33333333       0.11111111 </v>
   <v>      -0.27777778       0.33333333       0.11111111 </v>
   <v>      -0.22222222       0.33333333       0.11111111 </v>
   <v>       0.50000000       0.38888889       0.11111111 </v>
   <v>      -0.44444444       0.38888889       0.11111111 </v>
   <v>      -0.38888889       0.38888889       0.11111111 </v>
   <v>      -0.33333333       0.38888889       0.11111111 </v>
   <v>      -0.27777778       0.38888889       0.11111111 </v>
   <v>      -0.44444444       0.44444444       0.11111111 </v>
   <v>      -0.38888889       0.44444444       0.11111111 </v>
   <v>      -0.33333333       0.44444444       0.11111111 </v>
   <v>      -0.38888889       0.50000000       0.11111111 </v>
   <v>       0.50000000       0.33333333       0.16666667 </v>
   <v>      -0.44444444       0.33333333       0.16666667 </v>
   <v>      -0.38888889       0.33333333       0.16666667 </v>
   <v>      -0.33333333       0.33333333       0.16666667 </v>
   <v>      -0.44444444       0.38888889       0.16666667 </v>
   <v>      -0.38888889       0.38888889       0.16666667 </v>
   <v>      -0.33333333       0.38888889       0.16666667 </v>
   <v>      -0.27777778       0.38888889       0.16666667 </v>
   <v>      -0.22222222       0.38888889       0.16666667 </v>
   <v>      -0.38888889       0.44444444       0.16666667 </v>
   <v>      -0.33333333       0.44444444       0.16666667 </v>
   <v>      -0.27777778       0.44444444       0.16666667 </v>
   <v>      -0.33333333       0.50000000       0.16666667 </v>
   <v>      -0.33333333       0.44444444       0.22222222 </v>
   <v>      -0.27777778       0.44444444       0.22222222 </v>
   <v>      -0.27777778       0.50000000       0.22222222 </v>
  </varray>
  <varray name="weights" >
   <v>       0.00017147 </v>
   <v>       0.00137174 </v>
   <v>       0.00137174 </v>
   <v>       0.00137174 </v>
   <v>       0.00137174 </v>
   <v>       0.00137174 </v>
   <v>       0.00137174 </v>
   <v>       0.00137174 </v>
   <v>       0.00137174 </v>
   <v>       0.00068587 </v>
   <v>       0.00102881 </v>
   <v>       0.00411523 </v>
   <v>       0.00411523 </v>
   <v>       0.00411523 </v>
   <v>       0.00411523 </v>
   <v>       0.00411523 </v>
   <v>       0.00411523 </v>
   <v>       0.00411523 </v>
   <v>       0.00411523 </v>
   <v>       0.00411523 </v>
   <v>       0.00411523 </v>
   <v>       0.00411523 </v>
   <v>       0.00411523 </v>
   <v>       0.00411523 </v>
   <v>       0.00411523 </v>
   <v>       0.00411523 </v>
   <v>       0.00205761 </v>
   <v>       0.00102881 </v>
   <v>       0.00411523 </v>
   <v>       0.00411523 </v>
   <v>       0.00411523 </v>
   <v>       0.00411523 </v>
   <v>       0.00411523 </v>
   <v>       0.00411523 </v>
   <v>       0.00411523 </v>
   <v>       0.00411523 </v>
   <v>       0.00411523 </v>
   <v>       0.00411523 </v>
   <v>       0.00411523 </v>
   <v>       0.00411523 </v>
   <v>       0.00411523 </v>
   <v>       0.00205761 </v>
   <v>       0.00102881 </v>
   <v>       0.00411523 </v>
   <v>       0.00411523 </v>
   <v>       0.00411523 </v>
   <v>       0.00411523 </v>
   <v>       0.00411523 </v>
   <v>       0.00411523 </v>
   <v>       0.00411523 </v>
   <v>       0.00411523 </v>
   <v>       0.00411523 </v>
   <v>       0.00411523 </v>
   <v>       0.00411523 </v>
   <v>       0.00205761 </v>
   <v>       0.00102881 </v>
   <v>       0.00411523 </v>
   <v>       0.00411523 </v>
   <v>       0.00411523 </v>
   <v>       0.00411523 </v>
   <v>       0.00411523 </v>
   <v>       0.00411523 </v>
   <v>       0.00411523 </v>
   <v>       0.00411523 </v>
   <v>       0.00411523 </v>
   <v>       0.00205761 </v>
   <v>       0.00102881 </v>
   <v>       0.00411523 </v>
   <v>       0.00411523 </v>
   <v>       0.00411523 </v>
   <v>       0.00411523 </v>
   <v>       0.00411523 </v>
   <v>       0.00411523 </v>
   <v>       0.00411523 </v>
   <v>       0.00205761 </v>
   <v>       0.00102881 </v>
   <v>       0.00411523 </v>
   <v>       0.00411523 </v>
   <v>       0.00411523 </v>
   <v>       0.00411523 </v>
   <v>       0.00411523 </v>
   <v>       0.00205761 </v>
   <v>       0.00102881 </v>
   <v>       0.00411523 </v>
   <v>       0.00411523 </v>
   <v>       0.00411523 </v>
   <v>       0.00205761 </v>
   <v>       0.00102881 </v>
   <v>       0.00411523 </v>
   <v>       0.00205761 </v>
   <v>       0.00051440 </v>
   <v>       0.00411523 </v>
   <v>       0.00823045 </v>
   <v>       0.00823045 </v>
   <v>       0.00823045 </v>
   <v>       0.00823045 </v>
   <v>       0.00823045 </v>
   <v>       0.00823045 </v>
   <v>       0.00411523 </v>
   <v>       0.00411523 </v>
   <v>       0.00823045 </v>
   <v>       0.00823045 </v>
   <v>       0.00823045 </v>
   <v>       0.00823045 </v>
   <v>       0.00823045 </v>
   <v>       0.00823045 </v>
   <v>       0.00823045 </v>
   <v>       0.00823045 </v>
   <v>       0.00823045 </v>
   <v>       0.00823045 </v>
   <v>       0.00823045 </v>
   <v>       0.00411523 </v>
   <v>       0.00411523 </v>
   <v>       0.00823045 </v>
   <v>       0.00823045 </v>
   <v>       0.00823045 </v>
   <v>       0.00823045 </v>
   <v>       0.00823045 </v>
   <v>       0.00823045 </v>
   <v>       0.00823045 </v>
   <v>       0.00823045 </v>
   <v>       0.00823045 </v>
   <v>       0.00411523 </v>
   <v>       0.00411523 </v>
   <v>       0.00823045 </v>
   <v>       0.00823045 </v>
   <v>       0.00823045 </v>
   <v>       0.00823045 </v>
   <v>       0.00823045 </v>
   <v>       0.00823045 </v>
   <v>       0.00823045 </v>
   <v>       0.00411523 </v>
   <v>       0.00411523 </v>
   <v>       0.00823045 </v>
   <v>       0.00823045 </v>
   <v>       0.00823045 </v>
   <v>       0.00823045 </v>
   <v>       0.00823045 </v>
   <v>       0.00411523 </v>
   <v>       0.00411523 </v>
   <v>       0.00823045 </v>
   <v>       0.00823045 </v>
   <v>       0.00823045 </v>
   <v>       0.00411523 </v>
   <v>       0.00411523 </v>
   <v>       0.00823045 </v>
   <v>       0.00411523 </v>
   <v>       0.00205761 </v>
   <v>       0.00411523 </v>
   <v>       0.00823045 </v>
   <v>       0.00823045 </v>
   <v>       0.00823045 </v>
   <v>       0.00823045 </v>
   <v>       0.00411523 </v>
   <v>       0.00411523 </v>
   <v>       0.00823045 </v>
   <v>       0.00823045 </v>
   <v>       0.00823045 </v>
   <v>       0.00823045 </v>
   <v>       0.00823045 </v>
   <v>       0.00823045 </v>
   <v>       0.00823045 </v>
   <v>       0.00411523 </v>
   <v>       0.00411523 </v>
   <v>       0.00823045 </v>
   <v>       0.00823045 </v>
   <v>       0.00823045 </v>
   <v>       0.00823045 </v>
   <v>       0.00823045 </v>
   <v>       0.00411523 </v>
   <v>       0.00411523 </v>
   <v>       0.00823045 </v>
   <v>       0.00823045 </v>
   <v>       0.00823045 </v>
   <v>       0.00411523 </v>
   <v>       0.00411523 </v>
   <v>       0.00823045 </v>
   <v>       0.00411523 </v>
   <v>       0.00205761 </v>
   <v>       0.00411523 </v>
   <v>       0.00823045 </v>
   <v>       0.00823045 </v>
   <v>       0.00411523 </v>
   <v>       0.00411523 </v>
   <v>       0.00823045 </v>
   <v>       0.00823045 </v>
   <v>       0.00823045 </v>
   <v>       0.00411523 </v>
   <v>       0.00411523 </v>
   <v>       0.00823045 </v>
   <v>       0.00411523 </v>
   <v>       0.00205761 </v>
   <v>       0.00411523 </v>
   <v>       0.00411523 </v>
   <v>       0.00205761 </v>
  </varray>
  <varray name="tetrahedronlist"  type="int" >
   <v type="int" >       24        1        2        2       11 </v>
   <v type="int" >       48        2       11       12       27 </v>
   <v type="int" >       48        2        3       12       27 </v>
   <v type="int" >       24        2        2       11       27 </v>
   <v type="int" >       48        3       12       13       26 </v>
   <v type="int" >       48        3        4       13       26 </v>
   <v type="int" >       48        3       12       26       27 </v>
   <v type="int" >       48        4       13       14       25 </v>
   <v type="int" >       48        4        5       14       25 </v>
   <v type="int" >       48        4       13       25       26 </v>
   <v type="int" >       48        5       14       15       24 </v>
   <v type="int" >       48        5        6       15       24 </v>
   <v type="int" >       48        5       14       24       25 </v>
   <v type="int" >       48        6       15       16       23 </v>
   <v type="int" >       48        6        7       16       23 </v>
   <v type="int" >       48        6       15       23       24 </v>
   <v type="int" >       48        7       16       17       22 </v>
   <v type="int" >       48        7        8       17       22 </v>
   <v type="int" >       48        7       16       22       23 </v>
   <v type="int" >       48        8       17       18       21 </v>
   <v type="int" >       48        8        9       18       21 </v>
   <v type="int" >       48        8       17       21       22 </v>
   <v type="int" >       48        9       18       19       20 </v>
   <v type="int" >       48        9       10       19       20 </v>
   <v type="int" >       48        9       18       20       21 </v>
   <v type="int" >       48       10       19       19       20 </v>
   <v type="int" >       24       11       12       12       28 </v>
   <v type="int" >       24       11       12       12       27 </v>
   <v type="int" >       48       12       28       29       92 </v>
   <v type="int" >       48       12       13       29       92 </v>
   <v type="int" >       48       12       13       26       92 </v>
   <v type="int" >       24       12       12       28       92 </v>
   <v type="int" >       24       12       12       27       92 </v>
   <v type="int" >       48       12       26       27       92 </v>
   <v type="int" >       48       13       29       30       93 </v>
   <v type="int" >       48       13       14       30       93 </v>
   <v type="int" >       48       13       14       25       93 </v>
   <v type="int" >       48       13       29       92       93 </v>
   <v type="int" >       48       13       26       92       93 </v>
   <v type="int" >       48       13       25       26       93 </v>
   <v type="int" >       48       14       30       31       94 </v>
   <v type="int" >       48       14       15       31       94 </v>
   <v type="int" >       48       14       15       24       94 </v>
   <v type="int" >       48       14       30       93       94 </v>
   <v type="int" >       48       14       25       93       94 </v>
   <v type="int" >       48       14       24       25       94 </v>
   <v type="int" >       48       15       31       32       95 </v>
   <v type="int" >       48       15       16       32       95 </v>
   <v type="int" >       48       15       16       23       95 </v>
   <v type="int" >       48       15       31       94       95 </v>
   <v type="int" >       48       15       24       94       95 </v>
   <v type="int" >       48       15       23       24       95 </v>
   <v type="int" >       48       16       32       33       96 </v>
   <v type="int" >       48       16       17       33       96 </v>
   <v type="int" >       48       16       17       22       96 </v>
   <v type="int" >       48       16       32       95       96 </v>
   <v type="int" >       48       16       23       95       96 </v>
   <v type="int" >       48       16       22       23       96 </v>
   <v type="int" >       48       17       33       34       97 </v>
   <v type="int" >       48       17       18       34       97 </v>
   <v type="int" >       48       17       18       21       97 </v>
   <v type="int" >       48       17       33       96       97 </v>
   <v type="int" >       48       17       22       96       97 </v>
   <v type="int" >       48       17       21       22       97 </v>
   <v type="int" >       48       18       34       35       98 </v>
   <v type="int" >       48       18       19       35       98 </v>
   <v type="int" >       48       18       19       20       98 </v>
   <v type="int" >       48       18       34       97       98 </v>
   <v type="int" >       48       18       21       97       98 </v>
   <v type="int" >       48       18       20       21       98 </v>
   <v type="int" >       48       19       35       36       99 </v>
   <v type="int" >       48       19       20       36       99 </v>
   <v type="int" >       48       19       19       20       99 </v>
   <v type="int" >       48       19       35       98       99 </v>
   <v type="int" >       48       19       20       98       99 </v>
   <v type="int" >       48       20       36       37       98 </v>
   <v type="int" >       48       20       21       37       98 </v>
   <v type="int" >       48       20       36       98       99 </v>
   <v type="int" >       48       21       37       38       97 </v>
   <v type="int" >       48       21       22       38       97 </v>
   <v type="int" >       48       21       37       97       98 </v>
   <v type="int" >       48       22       38       39       96 </v>
   <v type="int" >       48       22       23       39       96 </v>
   <v type="int" >       48       22       38       96       97 </v>
   <v type="int" >       48       23       39       40       95 </v>
   <v type="int" >       48       23       24       40       95 </v>
   <v type="int" >       48       23       39       95       96 </v>
   <v type="int" >       48       24       40       41       94 </v>
   <v type="int" >       48       24       25       41       94 </v>
   <v type="int" >       48       24       40       94       95 </v>
   <v type="int" >       48       25       41       42       93 </v>
   <v type="int" >       48       25       26       42       93 </v>
   <v type="int" >       48       25       41       93       94 </v>
   <v type="int" >       24       26       26       42       92 </v>
   <v type="int" >       24       26       26       27       92 </v>
   <v type="int" >       48       26       42       92       93 </v>
   <v type="int" >       24       28       29       29       43 </v>
   <v type="int" >       24       28       29       29       92 </v>
   <v type="int" >       48       29       43       44      100 </v>
   <v type="int" >       48       29       30       44      100 </v>
   <v type="int" >       48       29       30       93      100 </v>
   <v type="int" >       24       29       29       43      100 </v>
   <v type="int" >       24       29       29       92      100 </v>
   <v type="int" >       48       29       92       93      100 </v>
   <v type="int" >       48       30       44       45      101 </v>
   <v type="int" >       48       30       31       45      101 </v>
   <v type="int" >       48       30       31       94      101 </v>
   <v type="int" >       48       30       44      100      101 </v>
   <v type="int" >       48       30       93      100      101 </v>
   <v type="int" >       48       30       93       94      101 </v>
   <v type="int" >       48       31       45       46      102 </v>
   <v type="int" >       48       31       32       46      102 </v>
   <v type="int" >       48       31       32       95      102 </v>
   <v type="int" >       48       31       45      101      102 </v>
   <v type="int" >       48       31       94      101      102 </v>
   <v type="int" >       48       31       94       95      102 </v>
   <v type="int" >       48       32       46       47      103 </v>
   <v type="int" >       48       32       33       47      103 </v>
   <v type="int" >       48       32       33       96      103 </v>
   <v type="int" >       48       32       46      102      103 </v>
   <v type="int" >       48       32       95      102      103 </v>
   <v type="int" >       48       32       95       96      103 </v>
   <v type="int" >       48       33       47       48      104 </v>
   <v type="int" >       48       33       34       48      104 </v>
   <v type="int" >       48       33       34       97      104 </v>
   <v type="int" >       48       33       47      103      104 </v>
   <v type="int" >       48       33       96      103      104 </v>
   <v type="int" >       48       33       96       97      104 </v>
   <v type="int" >       48       34       48       49      105 </v>
   <v type="int" >       48       34       35       49      105 </v>
   <v type="int" >       48       34       35       98      105 </v>
   <v type="int" >       48       34       48      104      105 </v>
   <v type="int" >       48       34       97      104      105 </v>
   <v type="int" >       48       34       97       98      105 </v>
   <v type="int" >       48       35       49       50      106 </v>
   <v type="int" >       48       35       36       50      106 </v>
   <v type="int" >       48       35       36       99      106 </v>
   <v type="int" >       48       35       49      105      106 </v>
   <v type="int" >       48       35       98      105      106 </v>
   <v type="int" >       48       35       98       99      106 </v>
   <v type="int" >       48       36       50       51      107 </v>
   <v type="int" >       48       36       37       51      107 </v>
   <v type="int" >       48       36       37       98      107 </v>
   <v type="int" >       48       36       50      106      107 </v>
   <v type="int" >       48       36       99      106      107 </v>
   <v type="int" >       48       36       98       99      107 </v>
   <v type="int" >       48       37       51       52      108 </v>
   <v type="int" >       48       37       38       52      108 </v>
   <v type="int" >       48       37       38       97      108 </v>
   <v type="int" >       48       37       51      107      108 </v>
   <v type="int" >       48       37       98      107      108 </v>
   <v type="int" >       48       37       97       98      108 </v>
   <v type="int" >       48       38       52       53      109 </v>
   <v type="int" >       48       38       39       53      109 </v>
   <v type="int" >       48       38       39       96      109 </v>
   <v type="int" >       48       38       52      108      109 </v>
   <v type="int" >       48       38       97      108      109 </v>
   <v type="int" >       48       38       96       97      109 </v>
   <v type="int" >       48       39       53       54      110 </v>
   <v type="int" >       48       39       40       54      110 </v>
   <v type="int" >       48       39       40       95      110 </v>
   <v type="int" >       48       39       53      109      110 </v>
   <v type="int" >       48       39       96      109      110 </v>
   <v type="int" >       48       39       95       96      110 </v>
   <v type="int" >       48       40       54       55      111 </v>
   <v type="int" >       48       40       41       55      111 </v>
   <v type="int" >       48       40       41       94      111 </v>
   <v type="int" >       48       40       54      110      111 </v>
   <v type="int" >       48       40       95      110      111 </v>
   <v type="int" >       48       40       94       95      111 </v>
   <v type="int" >       24       41       41       55      112 </v>
   <v type="int" >       24       41       41       42      112 </v>
   <v type="int" >       48       41       42       93      112 </v>
   <v type="int" >       48       41       55      111      112 </v>
   <v type="int" >       48       41       94      111      112 </v>
   <v type="int" >       48       41       93       94      112 </v>
   <v type="int" >       24       42       93       93      112 </v>
   <v type="int" >       24       42       92       93       93 </v>
   <v type="int" >       24       43       44       44       56 </v>
   <v type="int" >       24       43       44       44      100 </v>
   <v type="int" >       48       44       56       57      113 </v>
   <v type="int" >       48       44       45       57      113 </v>
   <v type="int" >       48       44       45      101      113 </v>
   <v type="int" >       24       44       44       56      113 </v>
   <v type="int" >       24       44       44      100      113 </v>
   <v type="int" >       48       44      100      101      113 </v>
   <v type="int" >       48       45       57       58      114 </v>
   <v type="int" >       48       45       46       58      114 </v>
   <v type="int" >       48       45       46      102      114 </v>
   <v type="int" >       48       45       57      113      114 </v>
   <v type="int" >       48       45      101      113      114 </v>
   <v type="int" >       48       45      101      102      114 </v>
   <v type="int" >       48       46       58       59      115 </v>
   <v type="int" >       48       46       47       59      115 </v>
   <v type="int" >       48       46       47      103      115 </v>
   <v type="int" >       48       46       58      114      115 </v>
   <v type="int" >       48       46      102      114      115 </v>
   <v type="int" >       48       46      102      103      115 </v>
   <v type="int" >       48       47       59       60      116 </v>
   <v type="int" >       48       47       48       60      116 </v>
   <v type="int" >       48       47       48      104      116 </v>
   <v type="int" >       48       47       59      115      116 </v>
   <v type="int" >       48       47      103      115      116 </v>
   <v type="int" >       48       47      103      104      116 </v>
   <v type="int" >       48       48       60       61      117 </v>
   <v type="int" >       48       48       49       61      117 </v>
   <v type="int" >       48       48       49      105      117 </v>
   <v type="int" >       48       48       60      116      117 </v>
   <v type="int" >       48       48      104      116      117 </v>
   <v type="int" >       48       48      104      105      117 </v>
   <v type="int" >       48       49       61       62      118 </v>
   <v type="int" >       48       49       50       62      118 </v>
   <v type="int" >       48       49       50      106      118 </v>
   <v type="int" >       48       49       61      117      118 </v>
   <v type="int" >       48       49      105      117      118 </v>
   <v type="int" >       48       49      105      106      118 </v>
   <v type="int" >       48       50       62       63      119 </v>
   <v type="int" >       48       50       51       63      119 </v>
   <v type="int" >       48       50       51      107      119 </v>
   <v type="int" >       48       50       62      118      119 </v>
   <v type="int" >       48       50      106      118      119 </v>
   <v type="int" >       48       50      106      107      119 </v>
   <v type="int" >       48       51       63       64      120 </v>
   <v type="int" >       48       51       52       64      120 </v>
   <v type="int" >       48       51       52      108      120 </v>
   <v type="int" >       48       51       63      119      120 </v>
   <v type="int" >       48       51      107      119      120 </v>
   <v type="int" >       48       51      107      108      120 </v>
   <v type="int" >       48       52       64       65      121 </v>
   <v type="int" >       48       52       53       65      121 </v>
   <v type="int" >       48       52       53      109      121 </v>
   <v type="int" >       48       52       64      120      121 </v>
   <v type="int" >       48       52      108      120      121 </v>
   <v type="int" >       48       52      108      109      121 </v>
   <v type="int" >       48       53       65       66      122 </v>
   <v type="int" >       48       53       54       66      122 </v>
   <v type="int" >       48       53       54      110      122 </v>
   <v type="int" >       48       53       65      121      122 </v>
   <v type="int" >       48       53      109      121      122 </v>
   <v type="int" >       48       53      109      110      122 </v>
   <v type="int" >       24       54       54       66      123 </v>
   <v type="int" >       24       54       54       55      123 </v>
   <v type="int" >       48       54       55      111      123 </v>
   <v type="int" >       48       54       66      122      123 </v>
   <v type="int" >       48       54      110      122      123 </v>
   <v type="int" >       48       54      110      111      123 </v>
   <v type="int" >       24       55      111      111      123 </v>
   <v type="int" >       24       55      111      111      112 </v>
   <v type="int" >       24       56       57       57       67 </v>
   <v type="int" >       24       56       57       57      113 </v>
   <v type="int" >       48       57       67       68      124 </v>
   <v type="int" >       48       57       58       68      124 </v>
   <v type="int" >       48       57       58      114      124 </v>
   <v type="int" >       24       57       57       67      124 </v>
   <v type="int" >       24       57       57      113      124 </v>
   <v type="int" >       48       57      113      114      124 </v>
   <v type="int" >       48       58       68       69      125 </v>
   <v type="int" >       48       58       59       69      125 </v>
   <v type="int" >       48       58       59      115      125 </v>
   <v type="int" >       48       58       68      124      125 </v>
   <v type="int" >       48       58      114      124      125 </v>
   <v type="int" >       48       58      114      115      125 </v>
   <v type="int" >       48       59       69       70      126 </v>
   <v type="int" >       48       59       60       70      126 </v>
   <v type="int" >       48       59       60      116      126 </v>
   <v type="int" >       48       59       69      125      126 </v>
   <v type="int" >       48       59      115      125      126 </v>
   <v type="int" >       48       59      115      116      126 </v>
   <v type="int" >       48       60       70       71      127 </v>
   <v type="int" >       48       60       61       71      127 </v>
   <v type="int" >       48       60       61      117      127 </v>
   <v type="int" >       48       60       70      126      127 </v>
   <v type="int" >       48       60      116      126      127 </v>
   <v type="int" >       48       60      116      117      127 </v>
   <v type="int" >       48       61       71       72      128 </v>
   <v type="int" >       48       61       62       72      128 </v>
   <v type="int" >       48       61       62      118      128 </v>
   <v type="int" >       48       61       71      127      128 </v>
   <v type="int" >       48       61      117      127      128 </v>
   <v type="int" >       48       61      117      118      128 </v>
   <v type="int" >       48       62       72       73      129 </v>
   <v type="int" >       48       62       63       73      129 </v>
   <v type="int" >       48       62       63      119      129 </v>
   <v type="int" >       48       62       72      128      129 </v>
   <v type="int" >       48       62      118      128      129 </v>
   <v type="int" >       48       62      118      119      129 </v>
   <v type="int" >       48       63       73       74      130 </v>
   <v type="int" >       48       63       64       74      130 </v>
   <v type="int" >       48       63       64      120      130 </v>
   <v type="int" >       48       63       73      129      130 </v>
   <v type="int" >       48       63      119      129      130 </v>
   <v type="int" >       48       63      119      120      130 </v>
   <v type="int" >       48       64       74       75      131 </v>
   <v type="int" >       48       64       65       75      131 </v>
   <v type="int" >       48       64       65      121      131 </v>
   <v type="int" >       48       64       74      130      131 </v>
   <v type="int" >       48       64      120      130      131 </v>
   <v type="int" >       48       64      120      121      131 </v>
   <v type="int" >       24       65       65       75      132 </v>
   <v type="int" >       24       65       65       66      132 </v>
   <v type="int" >       48       65       66      122      132 </v>
   <v type="int" >       48       65       75      131      132 </v>
   <v type="int" >       48       65      121      131      132 </v>
   <v type="int" >       48       65      121      122      132 </v>
   <v type="int" >       24       66      122      122      132 </v>
   <v type="int" >       24       66      122      122      123 </v>
   <v type="int" >       24       67       68       68       76 </v>
   <v type="int" >       24       67       68       68      124 </v>
   <v type="int" >       48       68       76       77      133 </v>
   <v type="int" >       48       68       69       77      133 </v>
   <v type="int" >       48       68       69      125      133 </v>
   <v type="int" >       24       68       68       76      133 </v>
   <v type="int" >       24       68       68      124      133 </v>
   <v type="int" >       48       68      124      125      133 </v>
   <v type="int" >       48       69       77       78      134 </v>
   <v type="int" >       48       69       70       78      134 </v>
   <v type="int" >       48       69       70      126      134 </v>
   <v type="int" >       48       69       77      133      134 </v>
   <v type="int" >       48       69      125      133      134 </v>
   <v type="int" >       48       69      125      126      134 </v>
   <v type="int" >       48       70       78       79      135 </v>
   <v type="int" >       48       70       71       79      135 </v>
   <v type="int" >       48       70       71      127      135 </v>
   <v type="int" >       48       70       78      134      135 </v>
   <v type="int" >       48       70      126      134      135 </v>
   <v type="int" >       48       70      126      127      135 </v>
   <v type="int" >       48       71       79       80      136 </v>
   <v type="int" >       48       71       72       80      136 </v>
   <v type="int" >       48       71       72      128      136 </v>
   <v type="int" >       48       71       79      135      136 </v>
   <v type="int" >       48       71      127      135      136 </v>
   <v type="int" >       48       71      127      128      136 </v>
   <v type="int" >       48       72       80       81      137 </v>
   <v type="int" >       48       72       73       81      137 </v>
   <v type="int" >       48       72       73      129      137 </v>
   <v type="int" >       48       72       80      136      137 </v>
   <v type="int" >       48       72      128      136      137 </v>
   <v type="int" >       48       72      128      129      137 </v>
   <v type="int" >       48       73       81       82      138 </v>
   <v type="int" >       48       73       74       82      138 </v>
   <v type="int" >       48       73       74      130      138 </v>
   <v type="int" >       48       73       81      137      138 </v>
   <v type="int" >       48       73      129      137      138 </v>
   <v type="int" >       48       73      129      130      138 </v>
   <v type="int" >       24       74       74       82      139 </v>
   <v type="int" >       24       74       74       75      139 </v>
   <v type="int" >       48       74       75      131      139 </v>
   <v type="int" >       48       74       82      138      139 </v>
   <v type="int" >       48       74      130      138      139 </v>
   <v type="int" >       48       74      130      131      139 </v>
   <v type="int" >       24       75      131      131      139 </v>
   <v type="int" >       24       75      131      131      132 </v>
   <v type="int" >       24       76       77       77       83 </v>
   <v type="int" >       24       76       77       77      133 </v>
   <v type="int" >       48       77       83       84      140 </v>
   <v type="int" >       48       77       78       84      140 </v>
   <v type="int" >       48       77       78      134      140 </v>
   <v type="int" >       24       77       77       83      140 </v>
   <v type="int" >       24       77       77      133      140 </v>
   <v type="int" >       48       77      133      134      140 </v>
   <v type="int" >       48       78       84       85      141 </v>
   <v type="int" >       48       78       79       85      141 </v>
   <v type="int" >       48       78       79      135      141 </v>
   <v type="int" >       48       78       84      140      141 </v>
   <v type="int" >       48       78      134      140      141 </v>
   <v type="int" >       48       78      134      135      141 </v>
   <v type="int" >       48       79       85       86      142 </v>
   <v type="int" >       48       79       80       86      142 </v>
   <v type="int" >       48       79       80      136      142 </v>
   <v type="int" >       48       79       85      141      142 </v>
   <v type="int" >       48       79      135      141      142 </v>
   <v type="int" >       48       79      135      136      142 </v>
   <v type="int" >       48       80       86       87      143 </v>
   <v type="int" >       48       80       81       87      143 </v>
   <v type="int" >       48       80       81      137      143 </v>
   <v type="int" >       48       80       86      142      143 </v>
   <v type="int" >       48       80      136      142      143 </v>
   <v type="int" >       48       80      136      137      143 </v>
   <v type="int" >       24       81       81       87      144 </v>
   <v type="int" >       24       81       81       82      144 </v>
   <v type="int" >       48       81       82      138      144 </v>
   <v type="int" >       48       81       87      143      144 </v>
   <v type="int" >       48       81      137      143      144 </v>
   <v type="int" >       48       81      137      138      144 </v>
   <v type="int" >       24       82      138      138      144 </v>
   <v type="int" >       24       82      138      138      139 </v>
   <v type="int" >       24       83       84       84       88 </v>
   <v type="int" >       24       83       84       84      140 </v>
   <v type="int" >       48       84       88       89      145 </v>
   <v type="int" >       48       84       85       89      145 </v>
   <v type="int" >       48       84       85      141      145 </v>
   <v type="int" >       24       84       84       88      145 </v>
   <v type="int" >       24       84       84      140      145 </v>
   <v type="int" >       48       84      140      141      145 </v>
   <v type="int" >       48       85       89       90      146 </v>
   <v type="int" >       48       85       86       90      146 </v>
   <v type="int" >       48       85       86      142      146 </v>
   <v type="int" >       48       85       89      145      146 </v>
   <v type="int" >       48       85      141      145      146 </v>
   <v type="int" >       48       85      141      142      146 </v>
   <v type="int" >       24       86       86       90      147 </v>
   <v type="int" >       24       86       86       87      147 </v>
   <v type="int" >       48       86       87      143      147 </v>
   <v type="int" >       48       86       90      146      147 </v>
   <v type="int" >       48       86      142      146      147 </v>
   <v type="int" >       48       86      142      143      147 </v>
   <v type="int" >       24       87      143      143      147 </v>
   <v type="int" >       24       87      143      143      144 </v>
   <v type="int" >       24       88       89       89       91 </v>
   <v type="int" >       24       88       89       89      145 </v>
   <v type="int" >       48       89       89       91      148 </v>
   <v type="int" >       24       89       89       90      148 </v>
   <v type="int" >       48       89       90      146      148 </v>
   <v type="int" >       24       89       89      145      148 </v>
   <v type="int" >       48       89      145      146      148 </v>
   <v type="int" >       24       90      146      146      148 </v>
   <v type="int" >       24       90      146      146      147 </v>
   <v type="int" >       24       92       93       93      100 </v>
   <v type="int" >       48       93      100      101      112 </v>
   <v type="int" >       48       93       94      101      112 </v>
   <v type="int" >       24       93       93      100      112 </v>
   <v type="int" >       48       94      101      102      111 </v>
   <v type="int" >       48       94       95      102      111 </v>
   <v type="int" >       48       94      101      111      112 </v>
   <v type="int" >       48       95      102      103      110 </v>
   <v type="int" >       48       95       96      103      110 </v>
   <v type="int" >       48       95      102      110      111 </v>
   <v type="int" >       48       96      103      104      109 </v>
   <v type="int" >       48       96       97      104      109 </v>
   <v type="int" >       48       96      103      109      110 </v>
   <v type="int" >       48       97      104      105      108 </v>
   <v type="int" >       48       97       98      105      108 </v>
   <v type="int" >       48       97      104      108      109 </v>
   <v type="int" >       48       98      105      106      107 </v>
   <v type="int" >       48       98       99      106      107 </v>
   <v type="int" >       48       98      105      107      108 </v>
   <v type="int" >       48       99      106      106      107 </v>
   <v type="int" >       24      100      101      101      113 </v>
   <v type="int" >       24      100      101      101      112 </v>
   <v type="int" >       48      101      113      114      149 </v>
   <v type="int" >       48      101      102      114      149 </v>
   <v type="int" >       48      101      102      111      149 </v>
   <v type="int" >       24      101      101      113      149 </v>
   <v type="int" >       24      101      101      112      149 </v>
   <v type="int" >       48      101      111      112      149 </v>
   <v type="int" >       48      102      114      115      150 </v>
   <v type="int" >       48      102      103      115      150 </v>
   <v type="int" >       48      102      103      110      150 </v>
   <v type="int" >       48      102      114      149      150 </v>
   <v type="int" >       48      102      111      149      150 </v>
   <v type="int" >       48      102      110      111      150 </v>
   <v type="int" >       48      103      115      116      151 </v>
   <v type="int" >       48      103      104      116      151 </v>
   <v type="int" >       48      103      104      109      151 </v>
   <v type="int" >       48      103      115      150      151 </v>
   <v type="int" >       48      103      110      150      151 </v>
   <v type="int" >       48      103      109      110      151 </v>
   <v type="int" >       48      104      116      117      152 </v>
   <v type="int" >       48      104      105      117      152 </v>
   <v type="int" >       48      104      105      108      152 </v>
   <v type="int" >       48      104      116      151      152 </v>
   <v type="int" >       48      104      109      151      152 </v>
   <v type="int" >       48      104      108      109      152 </v>
   <v type="int" >       48      105      117      118      153 </v>
   <v type="int" >       48      105      106      118      153 </v>
   <v type="int" >       48      105      106      107      153 </v>
   <v type="int" >       48      105      117      152      153 </v>
   <v type="int" >       48      105      108      152      153 </v>
   <v type="int" >       48      105      107      108      153 </v>
   <v type="int" >       48      106      118      119      154 </v>
   <v type="int" >       48      106      107      119      154 </v>
   <v type="int" >       48      106      106      107      154 </v>
   <v type="int" >       48      106      118      153      154 </v>
   <v type="int" >       48      106      107      153      154 </v>
   <v type="int" >       48      107      119      120      153 </v>
   <v type="int" >       48      107      108      120      153 </v>
   <v type="int" >       48      107      119      153      154 </v>
   <v type="int" >       48      108      120      121      152 </v>
   <v type="int" >       48      108      109      121      152 </v>
   <v type="int" >       48      108      120      152      153 </v>
   <v type="int" >       48      109      121      122      151 </v>
   <v type="int" >       48      109      110      122      151 </v>
   <v type="int" >       48      109      121      151      152 </v>
   <v type="int" >       48      110      122      123      150 </v>
   <v type="int" >       48      110      111      123      150 </v>
   <v type="int" >       48      110      122      150      151 </v>
   <v type="int" >       24      111      111      123      149 </v>
   <v type="int" >       24      111      111      112      149 </v>
   <v type="int" >       48      111      123      149      150 </v>
   <v type="int" >       24      113      114      114      124 </v>
   <v type="int" >       24      113      114      114      149 </v>
   <v type="int" >       48      114      124      125      155 </v>
   <v type="int" >       48      114      115      125      155 </v>
   <v type="int" >       48      114      115      150      155 </v>
   <v type="int" >       24      114      114      124      155 </v>
   <v type="int" >       24      114      114      149      155 </v>
   <v type="int" >       48      114      149      150      155 </v>
   <v type="int" >       48      115      125      126      156 </v>
   <v type="int" >       48      115      116      126      156 </v>
   <v type="int" >       48      115      116      151      156 </v>
   <v type="int" >       48      115      125      155      156 </v>
   <v type="int" >       48      115      150      155      156 </v>
   <v type="int" >       48      115      150      151      156 </v>
   <v type="int" >       48      116      126      127      157 </v>
   <v type="int" >       48      116      117      127      157 </v>
   <v type="int" >       48      116      117      152      157 </v>
   <v type="int" >       48      116      126      156      157 </v>
   <v type="int" >       48      116      151      156      157 </v>
   <v type="int" >       48      116      151      152      157 </v>
   <v type="int" >       48      117      127      128      158 </v>
   <v type="int" >       48      117      118      128      158 </v>
   <v type="int" >       48      117      118      153      158 </v>
   <v type="int" >       48      117      127      157      158 </v>
   <v type="int" >       48      117      152      157      158 </v>
   <v type="int" >       48      117      152      153      158 </v>
   <v type="int" >       48      118      128      129      159 </v>
   <v type="int" >       48      118      119      129      159 </v>
   <v type="int" >       48      118      119      154      159 </v>
   <v type="int" >       48      118      128      158      159 </v>
   <v type="int" >       48      118      153      158      159 </v>
   <v type="int" >       48      118      153      154      159 </v>
   <v type="int" >       48      119      129      130      160 </v>
   <v type="int" >       48      119      120      130      160 </v>
   <v type="int" >       48      119      120      153      160 </v>
   <v type="int" >       48      119      129      159      160 </v>
   <v type="int" >       48      119      154      159      160 </v>
   <v type="int" >       48      119      153      154      160 </v>
   <v type="int" >       48      120      130      131      161 </v>
   <v type="int" >       48      120      121      131      161 </v>
   <v type="int" >       48      120      121      152      161 </v>
   <v type="int" >       48      120      130      160      161 </v>
   <v type="int" >       48      120      153      160      161 </v>
   <v type="int" >       48      120      152      153      161 </v>
   <v type="int" >       48      121      131      132      162 </v>
   <v type="int" >       48      121      122      132      162 </v>
   <v type="int" >       48      121      122      151      162 </v>
   <v type="int" >       48      121      131      161      162 </v>
   <v type="int" >       48      121      152      161      162 </v>
   <v type="int" >       48      121      151      152      162 </v>
   <v type="int" >       24      122      122      132      163 </v>
   <v type="int" >       24      122      122      123      163 </v>
   <v type="int" >       48      122      123      150      163 </v>
   <v type="int" >       48      122      132      162      163 </v>
   <v type="int" >       48      122      151      162      163 </v>
   <v type="int" >       48      122      150      151      163 </v>
   <v type="int" >       24      123      150      150      163 </v>
   <v type="int" >       24      123      149      150      150 </v>
   <v type="int" >       24      124      125      125      133 </v>
   <v type="int" >       24      124      125      125      155 </v>
   <v type="int" >       48      125      133      134      164 </v>
   <v type="int" >       48      125      126      134      164 </v>
   <v type="int" >       48      125      126      156      164 </v>
   <v type="int" >       24      125      125      133      164 </v>
   <v type="int" >       24      125      125      155      164 </v>
   <v type="int" >       48      125      155      156      164 </v>
   <v type="int" >       48      126      134      135      165 </v>
   <v type="int" >       48      126      127      135      165 </v>
   <v type="int" >       48      126      127      157      165 </v>
   <v type="int" >       48      126      134      164      165 </v>
   <v type="int" >       48      126      156      164      165 </v>
   <v type="int" >       48      126      156      157      165 </v>
   <v type="int" >       48      127      135      136      166 </v>
   <v type="int" >       48      127      128      136      166 </v>
   <v type="int" >       48      127      128      158      166 </v>
   <v type="int" >       48      127      135      165      166 </v>
   <v type="int" >       48      127      157      165      166 </v>
   <v type="int" >       48      127      157      158      166 </v>
   <v type="int" >       48      128      136      137      167 </v>
   <v type="int" >       48      128      129      137      167 </v>
   <v type="int" >       48      128      129      159      167 </v>
   <v type="int" >       48      128      136      166      167 </v>
   <v type="int" >       48      128      158      166      167 </v>
   <v type="int" >       48      128      158      159      167 </v>
   <v type="int" >       48      129      137      138      168 </v>
   <v type="int" >       48      129      130      138      168 </v>
   <v type="int" >       48      129      130      160      168 </v>
   <v type="int" >       48      129      137      167      168 </v>
   <v type="int" >       48      129      159      167      168 </v>
   <v type="int" >       48      129      159      160      168 </v>
   <v type="int" >       48      130      138      139      169 </v>
   <v type="int" >       48      130      131      139      169 </v>
   <v type="int" >       48      130      131      161      169 </v>
   <v type="int" >       48      130      138      168      169 </v>
   <v type="int" >       48      130      160      168      169 </v>
   <v type="int" >       48      130      160      161      169 </v>
   <v type="int" >       24      131      131      139      170 </v>
   <v type="int" >       24      131      131      132      170 </v>
   <v type="int" >       48      131      132      162      170 </v>
   <v type="int" >       48      131      139      169      170 </v>
   <v type="int" >       48      131      161      169      170 </v>
   <v type="int" >       48      131      161      162      170 </v>
   <v type="int" >       24      132      162      162      170 </v>
   <v type="int" >       24      132      162      162      163 </v>
   <v type="int" >       24      133      134      134      140 </v>
   <v type="int" >       24      133      134      134      164 </v>
   <v type="int" >       48      134      140      141      171 </v>
   <v type="int" >       48      134      135      141      171 </v>
   <v type="int" >       48      134      135      165      171 </v>
   <v type="int" >       24      134      134      140      171 </v>
   <v type="int" >       24      134      134      164      171 </v>
   <v type="int" >       48      134      164      165      171 </v>
   <v type="int" >       48      135      141      142      172 </v>
   <v type="int" >       48      135      136      142      172 </v>
   <v type="int" >       48      135      136      166      172 </v>
   <v type="int" >       48      135      141      171      172 </v>
   <v type="int" >       48      135      165      171      172 </v>
   <v type="int" >       48      135      165      166      172 </v>
   <v type="int" >       48      136      142      143      173 </v>
   <v type="int" >       48      136      137      143      173 </v>
   <v type="int" >       48      136      137      167      173 </v>
   <v type="int" >       48      136      142      172      173 </v>
   <v type="int" >       48      136      166      172      173 </v>
   <v type="int" >       48      136      166      167      173 </v>
   <v type="int" >       48      137      143      144      174 </v>
   <v type="int" >       48      137      138      144      174 </v>
   <v type="int" >       48      137      138      168      174 </v>
   <v type="int" >       48      137      143      173      174 </v>
   <v type="int" >       48      137      167      173      174 </v>
   <v type="int" >       48      137      167      168      174 </v>
   <v type="int" >       24      138      138      144      175 </v>
   <v type="int" >       24      138      138      139      175 </v>
   <v type="int" >       48      138      139      169      175 </v>
   <v type="int" >       48      138      144      174      175 </v>
   <v type="int" >       48      138      168      174      175 </v>
   <v type="int" >       48      138      168      169      175 </v>
   <v type="int" >       24      139      169      169      175 </v>
   <v type="int" >       24      139      169      169      170 </v>
   <v type="int" >       24      140      141      141      145 </v>
   <v type="int" >       24      140      141      141      171 </v>
   <v type="int" >       48      141      145      146      176 </v>
   <v type="int" >       48      141      142      146      176 </v>
   <v type="int" >       48      141      142      172      176 </v>
   <v type="int" >       24      141      141      145      176 </v>
   <v type="int" >       24      141      141      171      176 </v>
   <v type="int" >       48      141      171      172      176 </v>
   <v type="int" >       48      142      146      147      177 </v>
   <v type="int" >       48      142      143      147      177 </v>
   <v type="int" >       48      142      143      173      177 </v>
   <v type="int" >       48      142      146      176      177 </v>
   <v type="int" >       48      142      172      176      177 </v>
   <v type="int" >       48      142      172      173      177 </v>
   <v type="int" >       24      143      143      147      178 </v>
   <v type="int" >       24      143      143      144      178 </v>
   <v type="int" >       48      143      144      174      178 </v>
   <v type="int" >       48      143      147      177      178 </v>
   <v type="int" >       48      143      173      177      178 </v>
   <v type="int" >       48      143      173      174      178 </v>
   <v type="int" >       24      144      174      174      178 </v>
   <v type="int" >       24      144      174      174      175 </v>
   <v type="int" >       24      145      146      146      148 </v>
   <v type="int" >       24      145      146      146      176 </v>
   <v type="int" >       48      146      146      148      179 </v>
   <v type="int" >       24      146      146      147      179 </v>
   <v type="int" >       48      146      147      177      179 </v>
   <v type="int" >       24      146      146      176      179 </v>
   <v type="int" >       48      146      176      177      179 </v>
   <v type="int" >       24      147      177      177      179 </v>
   <v type="int" >       24      147      177      177      178 </v>
   <v type="int" >       24      149      150      150      155 </v>
   <v type="int" >       48      150      155      156      163 </v>
   <v type="int" >       48      150      151      156      163 </v>
   <v type="int" >       24      150      150      155      163 </v>
   <v type="int" >       48      151      156      157      162 </v>
   <v type="int" >       48      151      152      157      162 </v>
   <v type="int" >       48      151      156      162      163 </v>
   <v type="int" >       48      152      157      158      161 </v>
   <v type="int" >       48      152      153      158      161 </v>
   <v type="int" >       48      152      157      161      162 </v>
   <v type="int" >       48      153      158      159      160 </v>
   <v type="int" >       48      153      154      159      160 </v>
   <v type="int" >       48      153      158      160      161 </v>
   <v type="int" >       48      154      159      159      160 </v>
   <v type="int" >       24      155      156      156      164 </v>
   <v type="int" >       24      155      156      156      163 </v>
   <v type="int" >       48      156      164      165      180 </v>
   <v type="int" >       48      156      157      165      180 </v>
   <v type="int" >       48      156      157      162      180 </v>
   <v type="int" >       24      156      156      164      180 </v>
   <v type="int" >       24      156      156      163      180 </v>
   <v type="int" >       48      156      162      163      180 </v>
   <v type="int" >       48      157      165      166      181 </v>
   <v type="int" >       48      157      158      166      181 </v>
   <v type="int" >       48      157      158      161      181 </v>
   <v type="int" >       48      157      165      180      181 </v>
   <v type="int" >       48      157      162      180      181 </v>
   <v type="int" >       48      157      161      162      181 </v>
   <v type="int" >       48      158      166      167      182 </v>
   <v type="int" >       48      158      159      167      182 </v>
   <v type="int" >       48      158      159      160      182 </v>
   <v type="int" >       48      158      166      181      182 </v>
   <v type="int" >       48      158      161      181      182 </v>
   <v type="int" >       48      158      160      161      182 </v>
   <v type="int" >       48      159      167      168      183 </v>
   <v type="int" >       48      159      160      168      183 </v>
   <v type="int" >       48      159      159      160      183 </v>
   <v type="int" >       48      159      167      182      183 </v>
   <v type="int" >       48      159      160      182      183 </v>
   <v type="int" >       48      160      168      169      182 </v>
   <v type="int" >       48      160      161      169      182 </v>
   <v type="int" >       48      160      168      182      183 </v>
   <v type="int" >       48      161      169      170      181 </v>
   <v type="int" >       48      161      162      170      181 </v>
   <v type="int" >       48      161      169      181      182 </v>
   <v type="int" >       24      162      162      170      180 </v>
   <v type="int" >       24      162      162      163      180 </v>
   <v type="int" >       48      162      170      180      181 </v>
   <v type="int" >       24      164      165      165      171 </v>
   <v type="int" >       24      164      165      165      180 </v>
   <v type="int" >       48      165      171      172      184 </v>
   <v type="int" >       48      165      166      172      184 </v>
   <v type="int" >       48      165      166      181      184 </v>
   <v type="int" >       24      165      165      171      184 </v>
   <v type="int" >       24      165      165      180      184 </v>
   <v type="int" >       48      165      180      181      184 </v>
   <v type="int" >       48      166      172      173      185 </v>
   <v type="int" >       48      166      167      173      185 </v>
   <v type="int" >       48      166      167      182      185 </v>
   <v type="int" >       48      166      172      184      185 </v>
   <v type="int" >       48      166      181      184      185 </v>
   <v type="int" >       48      166      181      182      185 </v>
   <v type="int" >       48      167      173      174      186 </v>
   <v type="int" >       48      167      168      174      186 </v>
   <v type="int" >       48      167      168      183      186 </v>
   <v type="int" >       48      167      173      185      186 </v>
   <v type="int" >       48      167      182      185      186 </v>
   <v type="int" >       48      167      182      183      186 </v>
   <v type="int" >       48      168      174      175      187 </v>
   <v type="int" >       48      168      169      175      187 </v>
   <v type="int" >       48      168      169      182      187 </v>
   <v type="int" >       48      168      174      186      187 </v>
   <v type="int" >       48      168      183      186      187 </v>
   <v type="int" >       48      168      182      183      187 </v>
   <v type="int" >       24      169      169      175      188 </v>
   <v type="int" >       24      169      169      170      188 </v>
   <v type="int" >       48      169      170      181      188 </v>
   <v type="int" >       48      169      175      187      188 </v>
   <v type="int" >       48      169      182      187      188 </v>
   <v type="int" >       48      169      181      182      188 </v>
   <v type="int" >       24      170      181      181      188 </v>
   <v type="int" >       24      170      180      181      181 </v>
   <v type="int" >       24      171      172      172      176 </v>
   <v type="int" >       24      171      172      172      184 </v>
   <v type="int" >       48      172      176      177      189 </v>
   <v type="int" >       48      172      173      177      189 </v>
   <v type="int" >       48      172      173      185      189 </v>
   <v type="int" >       24      172      172      176      189 </v>
   <v type="int" >       24      172      172      184      189 </v>
   <v type="int" >       48      172      184      185      189 </v>
   <v type="int" >       48      173      177      178      190 </v>
   <v type="int" >       48      173      174      178      190 </v>
   <v type="int" >       48      173      174      186      190 </v>
   <v type="int" >       48      173      177      189      190 </v>
   <v type="int" >       48      173      185      189      190 </v>
   <v type="int" >       48      173      185      186      190 </v>
   <v type="int" >       24      174      174      178      191 </v>
   <v type="int" >       24      174      174      175      191 </v>
   <v type="int" >       48      174      175      187      191 </v>
   <v type="int" >       48      174      178      190      191 </v>
   <v type="int" >       48      174      186      190      191 </v>
   <v type="int" >       48      174      186      187      191 </v>
   <v type="int" >       24      175      187      187      191 </v>
   <v type="int" >       24      175      187      187      188 </v>
   <v type="int" >       24      176      177      177      179 </v>
   <v type="int" >       24      176      177      177      189 </v>
   <v type="int" >       48      177      177      179      192 </v>
   <v type="int" >       24      177      177      178      192 </v>
   <v type="int" >       48      177      178      190      192 </v>
   <v type="int" >       24      177      177      189      192 </v>
   <v type="int" >       48      177      189      190      192 </v>
   <v type="int" >       24      178      190      190      192 </v>
   <v type="int" >       24      178      190      190      191 </v>
   <v type="int" >       24      180      181      181      184 </v>
   <v type="int" >       48      181      184      185      188 </v>
   <v type="int" >       48      181      182      185      188 </v>
   <v type="int" >       24      181      181      184      188 </v>
   <v type="int" >       48      182      185      186      187 </v>
   <v type="int" >       48      182      183      186      187 </v>
   <v type="int" >       48      182      185      187      188 </v>
   <v type="int" >       48      183      186      186      187 </v>
   <v type="int" >       24      184      185      185      189 </v>
   <v type="int" >       24      184      185      185      188 </v>
   <v type="int" >       48      185      189      190      193 </v>
   <v type="int" >       48      185      186      190      193 </v>
   <v type="int" >       48      185      186      187      193 </v>
   <v type="int" >       24      185      185      189      193 </v>
   <v type="int" >       24      185      185      188      193 </v>
   <v type="int" >       48      185      187      188      193 </v>
   <v type="int" >       48      186      190      191      194 </v>
   <v type="int" >       48      186      187      191      194 </v>
   <v type="int" >       48      186      186      187      194 </v>
   <v type="int" >       48      186      190      193      194 </v>
   <v type="int" >       48      186      187      193      194 </v>
   <v type="int" >       24      187      187      191      193 </v>
   <v type="int" >       24      187      187      188      193 </v>
   <v type="int" >       48      187      191      193      194 </v>
   <v type="int" >       24      189      190      190      192 </v>
   <v type="int" >       24      189      190      190      193 </v>
   <v type="int" >       48      190      190      192      195 </v>
   <v type="int" >       24      190      190      191      195 </v>
   <v type="int" >       48      190      191      194      195 </v>
   <v type="int" >       24      190      190      193      195 </v>
   <v type="int" >       48      190      193      194      195 </v>
   <v type="int" >       24      191      194      194      195 </v>
   <v type="int" >       24      191      193      194      194 </v>
   <v type="int" >       24      193      194      194      195 </v>
   <v type="int" >       24      194      194      195      195 </v>
  </varray>
  <i name="volumeweight">      0.00002858 </i>
 </kpoints>
 <parameters>
  <separator name="general" >
   <i type="string" name="SYSTEM">unknown system</i>
   <i type="logical" name="LCOMPAT"> F  </i>
  </separator>
  <separator name="electronic" >
   <i type="string" name="PREC">accura</i>
   <i name="ENMAX">    520.00000000</i>
   <i name="ENAUG">    291.05200000</i>
   <i name="EDIFF">      0.00005000</i>
   <i type="int" name="IALGO">    68</i>
   <i type="int" name="IWAVPR">    10</i>
   <i type="int" name="NBANDS">    48</i>
   <i type="int" name="NBANDSLOW">    -1</i>
   <i type="int" name="NBANDSHIGH">    -1</i>
   <i name="NELECT">      3.00000000</i>
   <i type="int" name="TURBO">     0</i>
   <i type="int" name="IRESTART">     0</i>
   <i type="int" name="NREBOOT">     0</i>
   <i type="int" name="NMIN">     0</i>
   <i name="EREF">      0.00000000</i>
   <separator name="electronic smearing" >
    <i type="int" name="ISMEAR">    -5</i>
    <i name="SIGMA">      0.05000000</i>
    <i name="KSPACING">      0.50000000</i>
    <i type="logical" name="KGAMMA"> T  </i>
    <i type="logical" name="KBLOWUP"> T  </i>
   </separator>
   <separator name="electronic projectors" >
    <i type="logical" name="LREAL"> F  </i>
    <v name="ROPT">      0.00000000</v>
    <i type="int" name="LMAXPAW">  -100</i>
    <i type="int" name="LMAXMIX">     2</i>
    <i type="logical" name="NLSPLINE"> F  </i>
   </separator>
   <separator name="electronic startup" >
    <i type="int" name="ISTART">     0</i>
    <i type="int" name="ICHARG">     2</i>
    <i type="int" name="INIWAV">     1</i>
   </separator>
   <separator name="electronic spin" >
    <i type="int" name="ISPIN">     2</i>
    <i type="logical" name="LNONCOLLINEAR"> F  </i>
    <v name="MAGMOM">      0.60000000</v>
    <i name="NUPDOWN">     -1.00000000</i>
    <i type="logical" name="LSORBIT"> F  </i>
    <v name="SAXIS">      0.00000000      0.00000000      1.00000000</v>
    <i type="logical" name="LSPIRAL"> F  </i>
    <v name="QSPIRAL">      0.00000000      0.00000000      0.00000000</v>
    <i type="logical" name="LZEROZ"> F  </i>
   </separator>
   <separator name="electronic exchange-correlation" >
    <i type="logical" name="LASPH"> T  </i>
    <i type="logical" name="LMETAGGA"> F  </i>
   </separator>
   <separator name="electronic convergence" >
    <i type="int" name="NELM">   100</i>
    <i type="int" name="NELMDL">    -5</i>
    <i type="int" name="NELMIN">     2</i>
    <i name="ENINI">    520.00000000</i>
    <separator name="electronic convergence detail" >
     <i type="logical" name="LDIAG"> T  </i>
     <i type="logical" name="LSUBROT"> F  </i>
     <i name="WEIMIN">      0.00000000</i>
     <i name="EBREAK">      0.00000026</i>
     <i name="DEPER">      0.30000000</i>
     <i type="int" name="NRMM">     4</i>
     <i name="TIME">      0.40000000</i>
    </separator>
   </separator>
   <separator name="electronic mixer" >
    <i name="AMIX">      0.40000000</i>
    <i name="BMIX">      1.00000000</i>
    <i name="AMIN">      0.10000000</i>
    <i name="AMIX_MAG">      1.60000000</i>
    <i name="BMIX_MAG">      1.00000000</i>
    <separator name="electronic mixer details" >
     <i type="int" name="IMIX">     4</i>
     <i type="logical" name="MIXFIRST"> F  </i>
     <i type="int" name="MAXMIX">   -45</i>
     <i name="WC">    100.00000000</i>
     <i type="int" name="INIMIX">     1</i>
     <i type="int" name="MIXPRE">     1</i>
     <i type="int" name="MREMOVE">     5</i>
    </separator>
   </separator>
   <separator name="electronic dipolcorrection" >
    <i type="logical" name="LDIPOL"> F  </i>
    <i type="logical" name="LMONO"> F  </i>
    <i type="int" name="IDIPOL">     0</i>
    <i name="EPSILON">      1.00000000</i>
    <v name="DIPOL">   -100.00000000   -100.00000000   -100.00000000</v>
    <i name="EFIELD">      0.00000000</i>
   </separator>
  </separator>
[...]
        <r>  0.0000  0.0000  0.0000  0.2154  0.0000  0.0000  0.0000  0.0000  0.0000 </r>
       </set>
       <set comment="band 3">
        <r>  0.0399  0.1138  0.0190  0.0000  0.0000  0.0000  0.0000  0.0000  0.0000 </r>
       </set>
       <set comment="band 4">
        <r>  0.3449  0.0000  0.0742  0.0000  0.0000  0.0000  0.0000  0.0000  0.0000 </r>
       </set>
       <set comment="band 5">
        <r>  0.0000  0.0000  0.0000  0.1126  0.0000  0.0000  0.0000  0.0000  0.0000 </r>
       </set>
       <set comment="band 6">
        <r>  0.0048  0.3013  0.0311  0.0000  0.0000  0.0000  0.0000  0.0000  0.0000 </r>
       </set>
       <set comment="band 7">
        <r>  0.0715  0.0210  0.0249  0.0000  0.0000  0.0000  0.0000  0.0000  0.0000 </r>
       </set>
       <set comment="band 8">
        <r>  0.0422  0.0536  0.0480  0.0000  0.0000  0.0000  0.0000  0.0000  0.0000 </r>
       </set>
       <set comment="band 9">
        <r>  0.0000  0.0000  0.0000  0.0324  0.0000  0.0000  0.0000  0.0000  0.0000 </r>
       </set>
       <set comment="band 10">
        <r>  0.0010  0.0019  0.0165  0.0000  0.0000  0.0000  0.0000  0.0000  0.0000 </r>
       </set>
       <set comment="band 11">
        <r>  0.0000  0.0000  0.0000  0.0145  0.0000  0.0000  0.0000  0.0000  0.0000 </r>
       </set>
       <set comment="band 12">
        <r>  0.0879  0.0058  0.0917  0.0000  0.0000  0.0000  0.0000  0.0000  0.0000 </r>
       </set>
       <set comment="band 13">
        <r>  0.0000  0.0000  0.0000  0.2059  0.0000  0.0000  0.0000  0.0000  0.0000 </r>
       </set>
       <set comment="band 14">
        <r>  0.0127  0.0030  0.0485  0.0000  0.0000  0.0000  0.0000  0.0000  0.0000 </r>
       </set>
       <set comment="band 15">
        <r>  0.1307  0.0003  0.0589  0.0000  0.0000  0.0000  0.0000  0.0000  0.0000 </r>
       </set>
       <set comment="band 16">
        <r>  0.0000  0.0000  0.0000  0.0215  0.0000  0.0000  0.0000  0.0000  0.0000 </r>
       </set>
       <set comment="band 17">
        <r>  0.2124  0.1047  0.6072  0.0000  0.0000  0.0000  0.0000  0.0000  0.0000 </r>
       </set>
       <set comment="band 18">
        <r>  0.0000  0.0000  0.0000  0.4350  0.0000  0.0000  0.0000  0.0000  0.0000 </r>
       </set>
       <set comment="band 19">
        <r>  0.9270  2.3119  0.2263  0.0000  0.0000  0.0000  0.0000  0.0000  0.0000 </r>
       </set>
       <set comment="band 20">
        <r>  7.5107  0.3414  0.0222  0.0000  0.0000  0.0000  0.0000  0.0000  0.0000 </r>
       </set>
       <set comment="band 21">
        <r>  0.0000  0.0000  0.0000  1.7533  0.0000  0.0000  0.0000  0.0000  0.0000 </r>
       </set>
       <set comment="band 22">
        <r>  1.1278  0.1307  0.0556  0.0000  0.0000  0.0000  0.0000  0.0000  0.0000 </r>
       </set>
       <set comment="band 23">
        <r>  0.0357  0.2029  3.2487  0.0000  0.0000  0.0000  0.0000  0.0000  0.0000 </r>
       </set>
       <set comment="band 24">
        <r>  0.0000  0.0000  0.0000  2.3404  0.0000  0.0000  0.0000  0.0000  0.0000 </r>
       </set>
       <set comment="band 25">
        <r>  0.0479  0.4219  0.4559  0.0000  0.0000  0.0000  0.0000  0.0000  0.0000 </r>
       </set>
       <set comment="band 26">
        <r>  0.0000  0.0000  0.0000  0.0113  0.0000  0.0000  0.0000  0.0000  0.0000 </r>
       </set>
       <set comment="band 27">
        <r>  0.0026  0.1777  0.0049  0.0000  0.0000  0.0000  0.0000  0.0000  0.0000 </r>
       </set>
       <set comment="band 28">
        <r>  0.0000  0.0000  0.0000  0.4063  0.0000  0.0000  0.0000  0.0000  0.0000 </r>
       </set>
       <set comment="band 29">
        <r>  0.2763  0.0002  0.4311  0.0000  0.0000  0.0000  0.0000  0.0000  0.0000 </r>
       </set>
       <set comment="band 30">
        <r>  0.0606  1.6374  0.0156  0.0000  0.0000  0.0000  0.0000  0.0000  0.0000 </r>
       </set>
       <set comment="band 31">
        <r>  0.0000  0.0000  0.0000  0.2679  0.0000  0.0000  0.0000  0.0000  0.0000 </r>
       </set>
       <set comment="band 32">
        <r>  0.0926  0.0067  0.3567  0.0000  0.0000  0.0000  0.0000  0.0000  0.0000 </r>
       </set>
       <set comment="band 33">
        <r>  0.5077  0.0690  0.0058  0.0000  0.0000  0.0000  0.0000  0.0000  0.0000 </r>
       </set>
       <set comment="band 34">
        <r>  0.3751  0.0019  0.0002  0.0000  0.0000  0.0000  0.0000  0.0000  0.0000 </r>
       </set>
       <set comment="band 35">
        <r>  0.0000  0.0000  0.0000  0.0537  0.0000  0.0000  0.0000  0.0000  0.0000 </r>
       </set>
       <set comment="band 36">
        <r>  0.0628  0.0448  0.0741  0.0000  0.0000  0.0000  0.0000  0.0000  0.0000 </r>
       </set>
       <set comment="band 37">
        <r>  0.0000  0.0000  0.0000  0.3115  0.0000  0.0000  0.0000  0.0000  0.0000 </r>
       </set>
       <set comment="band 38">
        <r>  0.0312  0.0519  0.1296  0.0000  0.0000  0.0000  0.0000  0.0000  0.0000 </r>
       </set>
       <set comment="band 39">
        <r>  0.0000  0.0000  0.0000  0.0080  0.0000  0.0000  0.0000  0.0000  0.0000 </r>
       </set>
       <set comment="band 40">
        <r>  0.0034  0.0562  0.0026  0.0000  0.0000  0.0000  0.0000  0.0000  0.0000 </r>
       </set>
       <set comment="band 41">
        <r>  0.0107  0.0020  0.0050  0.0000  0.0000  0.0000  0.0000  0.0000  0.0000 </r>
       </set>
       <set comment="band 42">
        <r>  0.0000  0.0000  0.0000  0.0312  0.0000  0.0000  0.0000  0.0000  0.0000 </r>
       </set>
       <set comment="band 43">
        <r>  0.0695  0.0102  0.0443  0.0000  0.0000  0.0000  0.0000  0.0000  0.0000 </r>
       </set>
       <set comment="band 44">
        <r>  0.0000  0.0000  0.0000  0.0445  0.0000  0.0000  0.0000  0.0000  0.0000 </r>
       </set>
       <set comment="band 45">
        <r>  0.0000  0.0000  0.0000  0.0220  0.0000  0.0000  0.0000  0.0000  0.0000 </r>
       </set>
       <set comment="band 46">
        <r>  0.0333  0.1973  0.0204  0.0000  0.0000  0.0000  0.0000  0.0000  0.0000 </r>
       </set>
       <set comment="band 47">
        <r>  0.0341  0.0268  0.0552  0.0000  0.0000  0.0000  0.0000  0.0000  0.0000 </r>
       </set>
       <set comment="band 48">
        <r>  0.0000  0.0000  0.0000  0.0611  0.0000  0.0000  0.0000  0.0000  0.0000 </r>
       </set>
      </set>
      <set comment="kpoint 194">
       <set comment="band 1">
        <r>  0.0000  0.0368  0.0835  0.0835  0.0000  0.0000  0.0000  0.0000  0.0000 </r>
       </set>
       <set comment="band 2">
        <r>  0.0846  0.0000  0.0860  0.0860  0.0000  0.0000  0.0000  0.0000  0.0000 </r>
       </set>
       <set comment="band 3">
        <r>  0.0000  0.0989  0.0270  0.0270  0.0000  0.0000  0.0000  0.0000  0.0000 </r>
       </set>
       <set comment="band 4">
        <r>  0.3874  0.0000  0.0253  0.0253  0.0000  0.0000  0.0000  0.0000  0.0000 </r>
       </set>
       <set comment="band 5">
        <r>  0.0000  0.1470  0.0362  0.0362  0.0000  0.0000  0.0000  0.0000  0.0000 </r>
       </set>
       <set comment="band 6">
        <r>  0.0186  0.0000  0.0419  0.0419  0.0000  0.0000  0.0000  0.0000  0.0000 </r>
       </set>
       <set comment="band 7">
        <r>  0.0000  0.2355  0.0164  0.0164  0.0000  0.0000  0.0000  0.0000  0.0000 </r>
       </set>
       <set comment="band 8">
        <r>  0.1000  0.0000  0.0126  0.0126  0.0000  0.0000  0.0000  0.0000  0.0000 </r>
       </set>
       <set comment="band 9">
        <r>  0.0006  0.0000  0.0089  0.0089  0.0000  0.0000  0.0000  0.0000  0.0000 </r>
       </set>
       <set comment="band 10">
        <r>  0.0000  0.0010  0.0067  0.0067  0.0000  0.0000  0.0000  0.0000  0.0000 </r>
       </set>
       <set comment="band 11">
        <r>  0.0702  0.0000  0.0554  0.0554  0.0000  0.0000  0.0000  0.0000  0.0000 </r>
       </set>
       <set comment="band 12">
        <r>  0.0000  0.0000  0.0465  0.0465  0.0000  0.0000  0.0000  0.0000  0.0000 </r>
       </set>
       <set comment="band 13">
        <r>  0.0000  0.0008  0.0624  0.0624  0.0000  0.0000  0.0000  0.0000  0.0000 </r>
       </set>
       <set comment="band 14">
        <r>  0.0131  0.0000  0.0092  0.0092  0.0000  0.0000  0.0000  0.0000  0.0000 </r>
       </set>
       <set comment="band 15">
        <r>  0.1464  0.0000  0.0493  0.0493  0.0000  0.0000  0.0000  0.0000  0.0000 </r>
       </set>
       <set comment="band 16">
        <r>  0.0000  0.0006  0.0053  0.0053  0.0000  0.0000  0.0000  0.0000  0.0000 </r>
       </set>
       <set comment="band 17">
        <r>  0.0000  0.1380  0.3320  0.3320  0.0000  0.0000  0.0000  0.0000  0.0000 </r>
       </set>
       <set comment="band 18">
        <r>  0.1920  0.0000  0.4155  0.4155  0.0000  0.0000  0.0000  0.0000  0.0000 </r>
       </set>
       <set comment="band 19">
        <r>  0.0000  2.6458  0.0727  0.0727  0.0000  0.0000  0.0000  0.0000  0.0000 </r>
       </set>
       <set comment="band 20">
        <r>  9.3858  0.0000  0.0305  0.0305  0.0000  0.0000  0.0000  0.0000  0.0000 </r>
       </set>
       <set comment="band 21">
        <r>  0.0573  0.0000  0.9573  0.9573  0.0000  0.0000  0.0000  0.0000  0.0000 </r>
       </set>
       <set comment="band 22">
        <r>  0.0000  0.0728  1.2606  1.2606  0.0000  0.0000  0.0000  0.0000  0.0000 </r>
       </set>
       <set comment="band 23">
        <r>  0.0000  0.4484  0.0862  0.0862  0.0000  0.0000  0.0000  0.0000  0.0000 </r>
       </set>
       <set comment="band 24">
        <r>  0.2930  0.0000  0.0680  0.0680  0.0000  0.0000  0.0000  0.0000  0.0000 </r>
       </set>
       <set comment="band 25">
        <r>  0.0248  0.0000  0.7855  0.7855  0.0000  0.0000  0.0000  0.0000  0.0000 </r>
       </set>
       <set comment="band 26">
        <r>  0.0000  0.0442  0.4278  0.4278  0.0000  0.0000  0.0000  0.0000  0.0000 </r>
       </set>
       <set comment="band 27">
        <r>  0.0062  0.0000  0.0938  0.0938  0.0000  0.0000  0.0000  0.0000  0.0000 </r>
       </set>
       <set comment="band 28">
        <r>  0.0000  0.1146  0.0659  0.0659  0.0000  0.0000  0.0000  0.0000  0.0000 </r>
       </set>
       <set comment="band 29">
        <r>  0.0000  0.7341  0.2425  0.2425  0.0000  0.0000  0.0000  0.0000  0.0000 </r>
       </set>
       <set comment="band 30">
        <r>  0.1274  0.0000  0.2425  0.2425  0.0000  0.0000  0.0000  0.0000  0.0000 </r>
       </set>
       <set comment="band 31">
        <r>  0.0000  1.1740  0.1336  0.1336  0.0000  0.0000  0.0000  0.0000  0.0000 </r>
       </set>
       <set comment="band 32">
        <r>  0.6286  0.0000  0.0603  0.0603  0.0000  0.0000  0.0000  0.0000  0.0000 </r>
       </set>
       <set comment="band 33">
        <r>  0.0000  0.0502  0.0433  0.0433  0.0000  0.0000  0.0000  0.0000  0.0000 </r>
       </set>
       <set comment="band 34">
        <r>  0.3863  0.0000  0.0134  0.0134  0.0000  0.0000  0.0000  0.0000  0.0000 </r>
       </set>
       <set comment="band 35">
        <r>  0.0000  0.0299  0.0303  0.0303  0.0000  0.0000  0.0000  0.0000  0.0000 </r>
       </set>
       <set comment="band 36">
        <r>  0.1605  0.0000  0.0300  0.0300  0.0000  0.0000  0.0000  0.0000  0.0000 </r>
       </set>
       <set comment="band 37">
        <r>  0.0263  0.0000  0.1063  0.1063  0.0000  0.0000  0.0000  0.0000  0.0000 </r>
       </set>
       <set comment="band 38">
        <r>  0.0000  0.0182  0.1249  0.1249  0.0000  0.0000  0.0000  0.0000  0.0000 </r>
       </set>
       <set comment="band 39">
        <r>  0.0049  0.0000  0.0117  0.0117  0.0000  0.0000  0.0000  0.0000  0.0000 </r>
       </set>
       <set comment="band 40">
        <r>  0.0000  0.0872  0.0020  0.0020  0.0000  0.0000  0.0000  0.0000  0.0000 </r>
       </set>
       <set comment="band 41">
        <r>  0.0002  0.0000  0.0137  0.0137  0.0000  0.0000  0.0000  0.0000  0.0000 </r>
       </set>
       <set comment="band 42">
        <r>  0.0000  0.0002  0.0272  0.0272  0.0000  0.0000  0.0000  0.0000  0.0000 </r>
       </set>
       <set comment="band 43">
        <r>  0.0245  0.0000  0.0057  0.0057  0.0000  0.0000  0.0000  0.0000  0.0000 </r>
       </set>
       <set comment="band 44">
        <r>  0.0000  0.0406  0.0035  0.0035  0.0000  0.0000  0.0000  0.0000  0.0000 </r>
       </set>
       <set comment="band 45">
        <r>  0.0200  0.0000  0.0006  0.0006  0.0000  0.0000  0.0000  0.0000  0.0000 </r>
       </set>
       <set comment="band 46">
        <r>  0.0000  0.0858  0.0174  0.0174  0.0000  0.0000  0.0000  0.0000  0.0000 </r>
       </set>
       <set comment="band 47">
        <r>  0.0914  0.0000  0.0000  0.0000  0.0000  0.0000  0.0000  0.0000  0.0000 </r>
       </set>
       <set comment="band 48">
        <r>  0.0000  0.1654  0.0014  0.0014  0.0000  0.0000  0.0000  0.0000  0.0000 </r>
       </set>
      </set>
      <set comment="kpoint 195">
       <set comment="band 1">
        <r>  0.0000  0.0000  0.2259  0.0000  0.0000  0.0000  0.0000  0.0000  0.0000 </r>
       </set>
       <set comment="band 2">
        <r>  0.0000  0.0000  0.0000  0.2163  0.0000  0.0000  0.0000  0.0000  0.0000 </r>
       </set>
       <set comment="band 3">
        <r>  0.0841  0.1026  0.0000  0.0000  0.0000  0.0000  0.0000  0.0000  0.0000 </r>
       </set>
       <set comment="band 4">
        <r>  0.3879  0.0351  0.0000  0.0000  0.0000  0.0000  0.0000  0.0000  0.0000 </r>
       </set>
       <set comment="band 5">
        <r>  0.0000  0.0000  0.0000  0.1141  0.0000  0.0000  0.0000  0.0000  0.0000 </r>
       </set>
       <set comment="band 6">
        <r>  0.0354  0.3142  0.0000  0.0000  0.0000  0.0000  0.0000  0.0000  0.0000 </r>
       </set>
       <set comment="band 7">
        <r>  0.0000  0.0000  0.0965  0.0000  0.0000  0.0000  0.0000  0.0000  0.0000 </r>
       </set>
       <set comment="band 8">
        <r>  0.0876  0.0652  0.0000  0.0000  0.0000  0.0000  0.0000  0.0000  0.0000 </r>
       </set>
       <set comment="band 9">
        <r>  0.0000  0.0000  0.0000  0.0000  0.0000  0.0000  0.0000  0.0000  0.0000 </r>
       </set>
       <set comment="band 10">
        <r>  0.0023  0.0001  0.0000  0.0000  0.0000  0.0000  0.0000  0.0000  0.0000 </r>
       </set>
       <set comment="band 11">
        <r>  0.0000  0.0000  0.0000  0.1965  0.0000  0.0000  0.0000  0.0000  0.0000 </r>
       </set>
       <set comment="band 12">
        <r>  0.0000  0.0000  0.2095  0.0000  0.0000  0.0000  0.0000  0.0000  0.0000 </r>
       </set>
       <set comment="band 13">
        <r>  0.0000  0.0000  0.0034  0.0000  0.0000  0.0000  0.0000  0.0000  0.0000 </r>
       </set>
       <set comment="band 14">
        <r>  0.0000  0.0000  0.0000  0.0656  0.0000  0.0000  0.0000  0.0000  0.0000 </r>
       </set>
       <set comment="band 15">
        <r>  0.2212  0.0066  0.0000  0.0000  0.0000  0.0000  0.0000  0.0000  0.0000 </r>
       </set>
       <set comment="band 16">
        <r>  0.0000  0.0000  0.0000  0.0000  0.0000  0.0000  0.0000  0.0000  0.0000 </r>
       </set>
       <set comment="band 17">
        <r>  0.0000  0.0000  0.7874  0.0000  0.0000  0.0000  0.0000  0.0000  0.0000 </r>
       </set>
       <set comment="band 18">
        <r>  0.0000  0.0000  0.0000  0.9254  0.0000  0.0000  0.0000  0.0000  0.0000 </r>
       </set>
       <set comment="band 19">
        <r>  1.4296  2.2582  0.0000  0.0000  0.0000  0.0000  0.0000  0.0000  0.0000 </r>
       </set>
       <set comment="band 20">
        <r>  7.9684  0.4627  0.0000  0.0000  0.0000  0.0000  0.0000  0.0000  0.0000 </r>
       </set>
       <set comment="band 21">
        <r>  0.0000  0.0000  0.0000  2.7253  0.0000  0.0000  0.0000  0.0000  0.0000 </r>
       </set>
       <set comment="band 22">
        <r>  0.3940  0.2673  0.0000  0.0000  0.0000  0.0000  0.0000  0.0000  0.0000 </r>
       </set>
       <set comment="band 23">
        <r>  0.0000  0.0000  3.5742  0.0000  0.0000  0.0000  0.0000  0.0000  0.0000 </r>
       </set>
       <set comment="band 24">
        <r>  0.0000  0.0000  0.0000  0.0000  0.0000  0.0000  0.0000  0.0000  0.0000 </r>
       </set>
       <set comment="band 25">
        <r>  0.1997  0.6099  0.0000  0.0000  0.0000  0.0000  0.0000  0.0000  0.0000 </r>
       </set>
       <set comment="band 26">
        <r>  0.0000  0.0000  0.0095  0.0000  0.0000  0.0000  0.0000  0.0000  0.0000 </r>
       </set>
       <set comment="band 27">
        <r>  0.0000  0.0000  0.0000  0.0000  0.0000  0.0000  0.0000  0.0000  0.0000 </r>
       </set>
       <set comment="band 28">
        <r>  0.0000  0.0000  0.0000  1.3226  0.0000  0.0000  0.0000  0.0000  0.0000 </r>
       </set>
       <set comment="band 29">
        <r>  0.0000  0.0000  0.9501  0.0000  0.0000  0.0000  0.0000  0.0000  0.0000 </r>
       </set>
       <set comment="band 30">
        <r>  0.0478  1.7440  0.0000  0.0000  0.0000  0.0000  0.0000  0.0000  0.0000 </r>
       </set>
       <set comment="band 31">
        <r>  0.0000  0.0000  0.0000  0.2524  0.0000  0.0000  0.0000  0.0000  0.0000 </r>
       </set>
       <set comment="band 32">
        <r>  0.7794  0.0024  0.0000  0.0000  0.0000  0.0000  0.0000  0.0000  0.0000 </r>
       </set>
       <set comment="band 33">
        <r>  0.0546  0.0881  0.0000  0.0000  0.0000  0.0000  0.0000  0.0000  0.0000 </r>
       </set>
       <set comment="band 34">
        <r>  0.0000  0.0000  0.1806  0.0000  0.0000  0.0000  0.0000  0.0000  0.0000 </r>
       </set>
       <set comment="band 35">
        <r>  0.0000  0.0000  0.0000  0.0590  0.0000  0.0000  0.0000  0.0000  0.0000 </r>
       </set>
       <set comment="band 36">
        <r>  0.4040  0.0225  0.0000  0.0000  0.0000  0.0000  0.0000  0.0000  0.0000 </r>
       </set>
       <set comment="band 37">
        <r>  0.0000  0.0000  0.0000  0.3760  0.0000  0.0000  0.0000  0.0000  0.0000 </r>
       </set>
       <set comment="band 38">
        <r>  0.0000  0.0000  0.1418  0.0000  0.0000  0.0000  0.0000  0.0000  0.0000 </r>
       </set>
       <set comment="band 39">
        <r>  0.0000  0.0000  0.0000  0.0000  0.0000  0.0000  0.0000  0.0000  0.0000 </r>
       </set>
       <set comment="band 40">
        <r>  0.0024  0.0831  0.0000  0.0000  0.0000  0.0000  0.0000  0.0000  0.0000 </r>
       </set>
       <set comment="band 41">
        <r>  0.0000  0.0000  0.0000  0.0045  0.0000  0.0000  0.0000  0.0000  0.0000 </r>
       </set>
       <set comment="band 42">
        <r>  0.0000  0.0000  0.1198  0.0000  0.0000  0.0000  0.0000  0.0000  0.0000 </r>
       </set>
       <set comment="band 43">
        <r>  0.0160  0.0914  0.0000  0.0000  0.0000  0.0000  0.0000  0.0000  0.0000 </r>
       </set>
       <set comment="band 44">
        <r>  0.0000  0.0000  0.0000  0.0000  0.0000  0.0000  0.0000  0.0000  0.0000 </r>
       </set>
       <set comment="band 45">
        <r>  0.0000  0.0000  0.0142  0.0000  0.0000  0.0000  0.0000  0.0000  0.0000 </r>
       </set>
       <set comment="band 46">
        <r>  0.0000  0.0000  0.0000  0.0512  0.0000  0.0000  0.0000  0.0000  0.0000 </r>
       </set>
       <set comment="band 47">
        <r>  0.0175  0.1641  0.0000  0.0000  0.0000  0.0000  0.0000  0.0000  0.0000 </r>
       </set>
       <set comment="band 48">
        <r>  0.1947  0.0012  0.0000  0.0000  0.0000  0.0000  0.0000  0.0000  0.0000 </r>
       </set>
      </set>
     </set>
    </set>
   </array>
  </projected>
 </calculation>
 <structure name="finalpos" >
  <crystal>
   <varray name="basis" >
    <v>       0.00000000       2.02400000       2.02400000 </v>
    <v>       2.02400000       0.00000000       2.02400000 </v>
    <v>       2.02400000       2.02400000       0.00000000 </v>
   </varray>
   <i name="volume">     16.58293965 </i>
   <varray name="rec_basis" >
    <v>      -0.24703557       0.24703557       0.24703557 </v>
    <v>       0.24703557      -0.24703557       0.24703557 </v>
    <v>       0.24703557       0.24703557      -0.24703557 </v>
   </varray>
  </crystal>
  <varray name="positions" >
   <v>       0.00000000       0.00000000       0.00000000 </v>
  </varray>
 </structure>
</modeling>
