 vasp.6.2.1 16May21 (build Aug 15 2022 14:47:30) complex                         
 executed on             LinuxGNU date 2025.12.24  15:19:28
 running on    4 total cores
 distrk:  each k-point on    4 cores,    1 groups
 distr:  one band on NCORE=   1 cores,    4 groups


--------------------------------------------------------------------------------------------------------


 INCAR:
   ALGO = Fast
   EDIFF = 1e-8
   ENCUT = 520.0
   ISMEAR = 1
   LASPH = True
   LCHARG = True
   LORBIT = 11
   LREAL = False
   LWAVE = False
   NELM = 100
   NSW = 0
   PREC = Accurate

 POTCAR:   PAW_PBE Cu_pv 06Sep2000                
 POTCAR:   PAW_PBE Cu_pv 06Sep2000                
   VRHFIN =Cu: d10 p1                                                                               
   LEXCH  = PE                                                                                      
   EATOM  =  4119.1903 eV,  302.7519 Ry                                                             
                                                                                                    
   TITEL  = PAW_PBE Cu_pv 06Sep2000                                                                 
   LULTRA =        F    use ultrasoft PP ?                                                          
   IUNSCR =        1    unscreen: 0-lin 1-nonlin 2-no                                               
   RPACOR =    1.500    partial core radius                                                         
   POMASS =   63.546; ZVAL   =   17.000    mass and valenz                                          
   RCORE  =    2.000    outmost cutoff radius                                                       
   RWIGS  =    2.000; RWIGS  =    1.058    wigner-seitz radius (au A)                               
   ENMAX  =  368.605; ENMIN  =  276.454 eV                                                          
   RCLOC  =    1.304    cutoff for local pot                                                        
   LCOR   =        T    correct aug charges                                                         
   LPAW   =        T    paw PP                                                                      
   EAUG   =  758.233                                                                                
   DEXC   =    -.002                                                                                
   RMAX   =    2.402    core radius for proj-oper                                                   
   RAUG   =    1.300    factor for augmentation sphere                                              
   RDEP   =    2.025    radius for radial grids                                                     
   QCUT   =   -5.205; QGAM   =   10.410    optimization parameters                                  
                                                                                                    
   Description                                                                                      
     l     E      TYP  RCUT    TYP  RCUT                                                            
     1   .000     23  1.700                                                                         
     1  -.100     23  1.700                                                                         
     2   .000     23  2.000                                                                         
     2   .000     23  2.000                                                                         
     0   .000     23  1.800                                                                         
     0   .000     23  1.800                                                                         
     3   .000      7   .000                                                                         
  local pseudopotential read in
  partial core-charges read in
  atomic valenz-charges read in
  non local Contribution for L=           1  read in
    real space projection operators read in
  non local Contribution for L=           1  read in
    real space projection operators read in
  non local Contribution for L=           2  read in
    real space projection operators read in
  non local Contribution for L=           2  read in
    real space projection operators read in
  non local Contribution for L=           0  read in
    real space projection operators read in
  non local Contribution for L=           0  read in
    real space projection operators read in
    PAW grid and wavefunctions read in

   number of l-projection  operators is LMAX  =           6
   number of lm-projection operators is LMMAX =          18

 PAW_PBE Cu_pv 06Sep2000                :
 energy of atom  1       EATOM=-4119.1903
 kinetic energy error for atom=    0.0541 (will be added to EATOM!!)


 POSCAR: # Generated by Masgent for elastic const
  positions in direct lattice
  No initial velocities read in
 exchange correlation table for  LEXCH =        8
   RHO(1)=    0.500       N(1)  =     2000
   RHO(2)=  100.500       N(2)  =     4000

 VTST: version 4.2, (08/11/21)

 CHAIN: initializing optimizer
 
 OPT: Using VASP Dynamics algorithm
 CHAIN: Read ICHAIN            0

 POSCAR: # Generated by Masgent for elastic const
  positions in direct lattice
  No initial velocities read in



--------------------------------------------------------------------------------------------------------


 ion  position               nearest neighbor table
   1  0.000  0.000  0.000-   3 2.52   4 2.52   3 2.52   4 2.52   3 2.52   4 2.52   3 2.52   4 2.52
                             2 2.53   2 2.53   2 2.53   2 2.53
   2  0.000  0.500  0.500-   3 2.52   4 2.52   4 2.52   3 2.52   3 2.52   4 2.52   4 2.52   3 2.52
                             1 2.53   1 2.53   1 2.53   1 2.53
   3  0.500  0.000  0.500-   1 2.52   2 2.52   1 2.52   2 2.52   1 2.52   2 2.52   1 2.52   2 2.52
                             4 2.53   4 2.53   4 2.53   4 2.53
   4  0.500  0.500  0.000-   1 2.52   2 2.52   2 2.52   1 2.52   1 2.52   2 2.52   2 2.52   1 2.52
                             3 2.53   3 2.53   3 2.53   3 2.53

  LATTYP: Found a simple tetragonal cell.
 ALAT       =     3.5774306716
 C/A-ratio  =     0.9900000000
  
  Lattice vectors:
  
 A1 = (   0.0000000000,   3.5774306716,   0.0000000000)
 A2 = (   0.0000000000,   0.0000000000,   3.5774306716)
 A3 = (   3.5416563649,   0.0000000000,   0.0000000000)


Analysis of symmetry for initial positions (statically):
=====================================================================
 Subroutine PRICEL returns following result:
 
  LATTYP: Found a body centered tetragonal cell.
 ALAT       =     2.5296254871
 C/A-ratio  =     1.4000714267
  
  Lattice vectors:
  
 A1 = (  -1.7708281824,   0.0000000000,  -1.7887153358)
 A2 = (  -1.7708281824,   0.0000000000,   1.7887153358)
 A3 = (   1.7708281824,   1.7887153358,   0.0000000000)
 
   4 primitive cells build up your supercell.
 

 Routine SETGRP: Setting up the symmetry group for a 
 simple tetragonal supercell.


 Subroutine GETGRP returns: Found 16 space group operations
 (whereof 16 operations were pure point group operations)
 out of a pool of 16 trial point group operations.


The static configuration has the point symmetry D_4h.


Analysis of symmetry for dynamics (positions and initial velocities):
=====================================================================
 Subroutine PRICEL returns following result:
 
  LATTYP: Found a body centered tetragonal cell.
 ALAT       =     2.5296254871
 C/A-ratio  =     1.4000714267
  
  Lattice vectors:
  
 A1 = (  -1.7708281824,   0.0000000000,  -1.7887153358)
 A2 = (  -1.7708281824,   0.0000000000,   1.7887153358)
 A3 = (   1.7708281824,   1.7887153358,   0.0000000000)
 
   4 primitive cells build up your supercell.
 

 Routine SETGRP: Setting up the symmetry group for a 
 simple tetragonal supercell.


 Subroutine GETGRP returns: Found 16 space group operations
 (whereof 16 operations were pure point group operations)
 out of a pool of 16 trial point group operations.


The dynamic configuration has the point symmetry D_4h.


 Subroutine INISYM returns: Found 16 space group operations
 (whereof 16 operations are pure point group operations),
 and found     4 'primitive' translations


----------------------------------------------------------------------------------------

                                     Primitive cell                                     

  volume of cell :      11.3315

  direct lattice vectors                    reciprocal lattice vectors
    -1.770828182  0.000000000 -1.788715336    -0.282353762  0.279530225 -0.279530225
    -1.770828182  0.000000000  1.788715336    -0.282353762  0.279530225  0.279530225
     1.770828182  1.788715336  0.000000000     0.000000000  0.559060450  0.000000000

  length of vectors
     2.517009139  2.517009139  2.517009139     0.485796192  0.485796192  0.559060450

  position of ions in fractional coordinates (direct lattice)
     0.000000000  0.000000000  0.000000000

  ion indices of the primitive-cell ions
   primitive index   ion index
                 1           1

----------------------------------------------------------------------------------------



 KPOINTS: # Generated by Masgent for elastic const

Automatic generation of k-mesh.
 Grid dimensions read from file:
 generate k-points for:   12   12   12

 Generating k-lattice:

  Cartesian coordinates                     Fractional coordinates (reciprocal lattice)
     0.023529480 -0.000000000  0.000000000     0.083333333 -0.000000000  0.000000000
     0.000000000  0.023294185  0.000000000     0.000000000  0.083333333  0.000000000
    -0.000000000 -0.000000000  0.023294185    -0.000000000  0.000000000  0.083333333

  Length of vectors
     0.023529480  0.023294185  0.023294185

  Shift w.r.t. Gamma in fractional coordinates (k-lattice)
     0.000000000  0.000000000  0.000000000

 
 Subroutine IBZKPT returns following result:
 ===========================================
 
 Found    196 irreducible k-points:
 
 Following reciprocal coordinates:
            Coordinates               Weight
  0.000000  0.000000  0.000000      1.000000
  0.083333  0.000000  0.000000      2.000000
  0.166667  0.000000  0.000000      2.000000
  0.250000  0.000000  0.000000      2.000000
  0.333333  0.000000  0.000000      2.000000
  0.416667  0.000000  0.000000      2.000000
  0.500000  0.000000  0.000000      1.000000
  0.000000  0.083333  0.000000      4.000000
  0.083333  0.083333  0.000000      8.000000
  0.166667  0.083333  0.000000      8.000000
  0.250000  0.083333  0.000000      8.000000
  0.333333  0.083333  0.000000      8.000000
  0.416667  0.083333  0.000000      8.000000
  0.500000  0.083333  0.000000      4.000000
  0.000000  0.166667  0.000000      4.000000
  0.083333  0.166667  0.000000      8.000000
  0.166667  0.166667  0.000000      8.000000
  0.250000  0.166667  0.000000      8.000000
  0.333333  0.166667  0.000000      8.000000
  0.416667  0.166667  0.000000      8.000000
  0.500000  0.166667  0.000000      4.000000
  0.000000  0.250000  0.000000      4.000000
  0.083333  0.250000  0.000000      8.000000
  0.166667  0.250000  0.000000      8.000000
  0.250000  0.250000  0.000000      8.000000
  0.333333  0.250000  0.000000      8.000000
  0.416667  0.250000  0.000000      8.000000
  0.500000  0.250000  0.000000      4.000000
  0.000000  0.333333  0.000000      4.000000
  0.083333  0.333333  0.000000      8.000000
  0.166667  0.333333  0.000000      8.000000
  0.250000  0.333333  0.000000      8.000000
  0.333333  0.333333  0.000000      8.000000
  0.416667  0.333333  0.000000      8.000000
  0.500000  0.333333  0.000000      4.000000
  0.000000  0.416667  0.000000      4.000000
  0.083333  0.416667  0.000000      8.000000
  0.166667  0.416667  0.000000      8.000000
  0.250000  0.416667  0.000000      8.000000
  0.333333  0.416667  0.000000      8.000000
  0.416667  0.416667  0.000000      8.000000
  0.500000  0.416667  0.000000      4.000000
  0.000000  0.500000  0.000000      2.000000
  0.083333  0.500000  0.000000      4.000000
  0.166667  0.500000  0.000000      4.000000
  0.250000  0.500000  0.000000      4.000000
  0.333333  0.500000  0.000000      4.000000
  0.416667  0.500000  0.000000      4.000000
  0.500000  0.500000  0.000000      2.000000
  0.000000  0.083333  0.083333      4.000000
  0.083333  0.083333  0.083333      8.000000
  0.166667  0.083333  0.083333      8.000000
  0.250000  0.083333  0.083333      8.000000
  0.333333  0.083333  0.083333      8.000000
  0.416667  0.083333  0.083333      8.000000
  0.500000  0.083333  0.083333      4.000000
  0.000000  0.166667  0.083333      8.000000
  0.083333  0.166667  0.083333     16.000000
  0.166667  0.166667  0.083333     16.000000
  0.250000  0.166667  0.083333     16.000000
  0.333333  0.166667  0.083333     16.000000
  0.416667  0.166667  0.083333     16.000000
  0.500000  0.166667  0.083333      8.000000
  0.000000  0.250000  0.083333      8.000000
  0.083333  0.250000  0.083333     16.000000
  0.166667  0.250000  0.083333     16.000000
  0.250000  0.250000  0.083333     16.000000
  0.333333  0.250000  0.083333     16.000000
  0.416667  0.250000  0.083333     16.000000
  0.500000  0.250000  0.083333      8.000000
  0.000000  0.333333  0.083333      8.000000
  0.083333  0.333333  0.083333     16.000000
  0.166667  0.333333  0.083333     16.000000
  0.250000  0.333333  0.083333     16.000000
  0.333333  0.333333  0.083333     16.000000
  0.416667  0.333333  0.083333     16.000000
  0.500000  0.333333  0.083333      8.000000
  0.000000  0.416667  0.083333      8.000000
  0.083333  0.416667  0.083333     16.000000
  0.166667  0.416667  0.083333     16.000000
  0.250000  0.416667  0.083333     16.000000
  0.333333  0.416667  0.083333     16.000000
  0.416667  0.416667  0.083333     16.000000
  0.500000  0.416667  0.083333      8.000000
  0.000000  0.500000  0.083333      4.000000
  0.083333  0.500000  0.083333      8.000000
  0.166667  0.500000  0.083333      8.000000
  0.250000  0.500000  0.083333      8.000000
  0.333333  0.500000  0.083333      8.000000
  0.416667  0.500000  0.083333      8.000000
  0.500000  0.500000  0.083333      4.000000
  0.000000  0.166667  0.166667      4.000000
  0.083333  0.166667  0.166667      8.000000
  0.166667  0.166667  0.166667      8.000000
  0.250000  0.166667  0.166667      8.000000
  0.333333  0.166667  0.166667      8.000000
  0.416667  0.166667  0.166667      8.000000
  0.500000  0.166667  0.166667      4.000000
  0.000000  0.250000  0.166667      8.000000
  0.083333  0.250000  0.166667     16.000000
  0.166667  0.250000  0.166667     16.000000
  0.250000  0.250000  0.166667     16.000000
  0.333333  0.250000  0.166667     16.000000
  0.416667  0.250000  0.166667     16.000000
  0.500000  0.250000  0.166667      8.000000
  0.000000  0.333333  0.166667      8.000000
  0.083333  0.333333  0.166667     16.000000
  0.166667  0.333333  0.166667     16.000000
  0.250000  0.333333  0.166667     16.000000
  0.333333  0.333333  0.166667     16.000000
  0.416667  0.333333  0.166667     16.000000
  0.500000  0.333333  0.166667      8.000000
  0.000000  0.416667  0.166667      8.000000
  0.083333  0.416667  0.166667     16.000000
  0.166667  0.416667  0.166667     16.000000
  0.250000  0.416667  0.166667     16.000000
  0.333333  0.416667  0.166667     16.000000
  0.416667  0.416667  0.166667     16.000000
  0.500000  0.416667  0.166667      8.000000
  0.000000  0.500000  0.166667      4.000000
  0.083333  0.500000  0.166667      8.000000
  0.166667  0.500000  0.166667      8.000000
  0.250000  0.500000  0.166667      8.000000
  0.333333  0.500000  0.166667      8.000000
  0.416667  0.500000  0.166667      8.000000
  0.500000  0.500000  0.166667      4.000000
  0.000000  0.250000  0.250000      4.000000
  0.083333  0.250000  0.250000      8.000000
  0.166667  0.250000  0.250000      8.000000
  0.250000  0.250000  0.250000      8.000000
  0.333333  0.250000  0.250000      8.000000
  0.416667  0.250000  0.250000      8.000000
  0.500000  0.250000  0.250000      4.000000
  0.000000  0.333333  0.250000      8.000000
  0.083333  0.333333  0.250000     16.000000
  0.166667  0.333333  0.250000     16.000000
  0.250000  0.333333  0.250000     16.000000
  0.333333  0.333333  0.250000     16.000000
  0.416667  0.333333  0.250000     16.000000
  0.500000  0.333333  0.250000      8.000000
  0.000000  0.416667  0.250000      8.000000
  0.083333  0.416667  0.250000     16.000000
  0.166667  0.416667  0.250000     16.000000
  0.250000  0.416667  0.250000     16.000000
  0.333333  0.416667  0.250000     16.000000
  0.416667  0.416667  0.250000     16.000000
  0.500000  0.416667  0.250000      8.000000
  0.000000  0.500000  0.250000      4.000000
  0.083333  0.500000  0.250000      8.000000
  0.166667  0.500000  0.250000      8.000000
  0.250000  0.500000  0.250000      8.000000
  0.333333  0.500000  0.250000      8.000000
  0.416667  0.500000  0.250000      8.000000
  0.500000  0.500000  0.250000      4.000000
  0.000000  0.333333  0.333333      4.000000
  0.083333  0.333333  0.333333      8.000000
  0.166667  0.333333  0.333333      8.000000
  0.250000  0.333333  0.333333      8.000000
  0.333333  0.333333  0.333333      8.000000
  0.416667  0.333333  0.333333      8.000000
  0.500000  0.333333  0.333333      4.000000
  0.000000  0.416667  0.333333      8.000000
  0.083333  0.416667  0.333333     16.000000
  0.166667  0.416667  0.333333     16.000000
  0.250000  0.416667  0.333333     16.000000
  0.333333  0.416667  0.333333     16.000000
  0.416667  0.416667  0.333333     16.000000
  0.500000  0.416667  0.333333      8.000000
  0.000000  0.500000  0.333333      4.000000
  0.083333  0.500000  0.333333      8.000000
  0.166667  0.500000  0.333333      8.000000
  0.250000  0.500000  0.333333      8.000000
  0.333333  0.500000  0.333333      8.000000
  0.416667  0.500000  0.333333      8.000000
  0.500000  0.500000  0.333333      4.000000
  0.000000  0.416667  0.416667      4.000000
  0.083333  0.416667  0.416667      8.000000
  0.166667  0.416667  0.416667      8.000000
  0.250000  0.416667  0.416667      8.000000
  0.333333  0.416667  0.416667      8.000000
  0.416667  0.416667  0.416667      8.000000
  0.500000  0.416667  0.416667      4.000000
  0.000000  0.500000  0.416667      4.000000
  0.083333  0.500000  0.416667      8.000000
  0.166667  0.500000  0.416667      8.000000
  0.250000  0.500000  0.416667      8.000000
  0.333333  0.500000  0.416667      8.000000
  0.416667  0.500000  0.416667      8.000000
  0.500000  0.500000  0.416667      4.000000
  0.000000  0.500000  0.500000      1.000000
  0.083333  0.500000  0.500000      2.000000
  0.166667  0.500000  0.500000      2.000000
  0.250000  0.500000  0.500000      2.000000
  0.333333  0.500000  0.500000      2.000000
  0.416667  0.500000  0.500000      2.000000
  0.500000  0.500000  0.500000      1.000000
 
 Following cartesian coordinates:
            Coordinates               Weight
  0.000000  0.000000  0.000000      1.000000
  0.023529  0.000000  0.000000      2.000000
  0.047059  0.000000  0.000000      2.000000
  0.070588  0.000000  0.000000      2.000000
  0.094118  0.000000  0.000000      2.000000
  0.117647  0.000000  0.000000      2.000000
  0.141177  0.000000  0.000000      1.000000
  0.000000  0.023294  0.000000      4.000000
  0.023529  0.023294  0.000000      8.000000
  0.047059  0.023294  0.000000      8.000000
  0.070588  0.023294  0.000000      8.000000
  0.094118  0.023294  0.000000      8.000000
  0.117647  0.023294  0.000000      8.000000
  0.141177  0.023294  0.000000      4.000000
  0.000000  0.046588  0.000000      4.000000
  0.023529  0.046588  0.000000      8.000000
  0.047059  0.046588  0.000000      8.000000
  0.070588  0.046588  0.000000      8.000000
  0.094118  0.046588  0.000000      8.000000
  0.117647  0.046588  0.000000      8.000000
  0.141177  0.046588  0.000000      4.000000
  0.000000  0.069883  0.000000      4.000000
  0.023529  0.069883  0.000000      8.000000
  0.047059  0.069883  0.000000      8.000000
  0.070588  0.069883  0.000000      8.000000
  0.094118  0.069883  0.000000      8.000000
  0.117647  0.069883  0.000000      8.000000
  0.141177  0.069883  0.000000      4.000000
  0.000000  0.093177  0.000000      4.000000
  0.023529  0.093177  0.000000      8.000000
  0.047059  0.093177  0.000000      8.000000
  0.070588  0.093177  0.000000      8.000000
  0.094118  0.093177  0.000000      8.000000
  0.117647  0.093177  0.000000      8.000000
  0.141177  0.093177  0.000000      4.000000
  0.000000  0.116471  0.000000      4.000000
  0.023529  0.116471  0.000000      8.000000
  0.047059  0.116471  0.000000      8.000000
  0.070588  0.116471  0.000000      8.000000
  0.094118  0.116471  0.000000      8.000000
  0.117647  0.116471  0.000000      8.000000
  0.141177  0.116471  0.000000      4.000000
  0.000000  0.139765  0.000000      2.000000
  0.023529  0.139765  0.000000      4.000000
  0.047059  0.139765  0.000000      4.000000
  0.070588  0.139765  0.000000      4.000000
  0.094118  0.139765  0.000000      4.000000
  0.117647  0.139765  0.000000      4.000000
  0.141177  0.139765  0.000000      2.000000
  0.000000  0.023294  0.023294      4.000000
  0.023529  0.023294  0.023294      8.000000
  0.047059  0.023294  0.023294      8.000000
  0.070588  0.023294  0.023294      8.000000
  0.094118  0.023294  0.023294      8.000000
  0.117647  0.023294  0.023294      8.000000
  0.141177  0.023294  0.023294      4.000000
  0.000000  0.046588  0.023294      8.000000
  0.023529  0.046588  0.023294     16.000000
  0.047059  0.046588  0.023294     16.000000
  0.070588  0.046588  0.023294     16.000000
  0.094118  0.046588  0.023294     16.000000
  0.117647  0.046588  0.023294     16.000000
  0.141177  0.046588  0.023294      8.000000
  0.000000  0.069883  0.023294      8.000000
  0.023529  0.069883  0.023294     16.000000
  0.047059  0.069883  0.023294     16.000000
  0.070588  0.069883  0.023294     16.000000
  0.094118  0.069883  0.023294     16.000000
  0.117647  0.069883  0.023294     16.000000
  0.141177  0.069883  0.023294      8.000000
  0.000000  0.093177  0.023294      8.000000
  0.023529  0.093177  0.023294     16.000000
  0.047059  0.093177  0.023294     16.000000
  0.070588  0.093177  0.023294     16.000000
  0.094118  0.093177  0.023294     16.000000
  0.117647  0.093177  0.023294     16.000000
  0.141177  0.093177  0.023294      8.000000
  0.000000  0.116471  0.023294      8.000000
  0.023529  0.116471  0.023294     16.000000
  0.047059  0.116471  0.023294     16.000000
  0.070588  0.116471  0.023294     16.000000
  0.094118  0.116471  0.023294     16.000000
  0.117647  0.116471  0.023294     16.000000
  0.141177  0.116471  0.023294      8.000000
  0.000000  0.139765  0.023294      4.000000
  0.023529  0.139765  0.023294      8.000000
  0.047059  0.139765  0.023294      8.000000
  0.070588  0.139765  0.023294      8.000000
  0.094118  0.139765  0.023294      8.000000
  0.117647  0.139765  0.023294      8.000000
  0.141177  0.139765  0.023294      4.000000
  0.000000  0.046588  0.046588      4.000000
  0.023529  0.046588  0.046588      8.000000
  0.047059  0.046588  0.046588      8.000000
  0.070588  0.046588  0.046588      8.000000
  0.094118  0.046588  0.046588      8.000000
  0.117647  0.046588  0.046588      8.000000
  0.141177  0.046588  0.046588      4.000000
  0.000000  0.069883  0.046588      8.000000
  0.023529  0.069883  0.046588     16.000000
  0.047059  0.069883  0.046588     16.000000
  0.070588  0.069883  0.046588     16.000000
  0.094118  0.069883  0.046588     16.000000
  0.117647  0.069883  0.046588     16.000000
  0.141177  0.069883  0.046588      8.000000
  0.000000  0.093177  0.046588      8.000000
  0.023529  0.093177  0.046588     16.000000
  0.047059  0.093177  0.046588     16.000000
  0.070588  0.093177  0.046588     16.000000
  0.094118  0.093177  0.046588     16.000000
  0.117647  0.093177  0.046588     16.000000
  0.141177  0.093177  0.046588      8.000000
  0.000000  0.116471  0.046588      8.000000
  0.023529  0.116471  0.046588     16.000000
  0.047059  0.116471  0.046588     16.000000
  0.070588  0.116471  0.046588     16.000000
  0.094118  0.116471  0.046588     16.000000
  0.117647  0.116471  0.046588     16.000000
  0.141177  0.116471  0.046588      8.000000
  0.000000  0.139765  0.046588      4.000000
  0.023529  0.139765  0.046588      8.000000
  0.047059  0.139765  0.046588      8.000000
  0.070588  0.139765  0.046588      8.000000
  0.094118  0.139765  0.046588      8.000000
  0.117647  0.139765  0.046588      8.000000
  0.141177  0.139765  0.046588      4.000000
  0.000000  0.069883  0.069883      4.000000
  0.023529  0.069883  0.069883      8.000000
  0.047059  0.069883  0.069883      8.000000
  0.070588  0.069883  0.069883      8.000000
  0.094118  0.069883  0.069883      8.000000
  0.117647  0.069883  0.069883      8.000000
  0.141177  0.069883  0.069883      4.000000
  0.000000  0.093177  0.069883      8.000000
  0.023529  0.093177  0.069883     16.000000
  0.047059  0.093177  0.069883     16.000000
  0.070588  0.093177  0.069883     16.000000
  0.094118  0.093177  0.069883     16.000000
  0.117647  0.093177  0.069883     16.000000
  0.141177  0.093177  0.069883      8.000000
  0.000000  0.116471  0.069883      8.000000
  0.023529  0.116471  0.069883     16.000000
  0.047059  0.116471  0.069883     16.000000
  0.070588  0.116471  0.069883     16.000000
  0.094118  0.116471  0.069883     16.000000
  0.117647  0.116471  0.069883     16.000000
  0.141177  0.116471  0.069883      8.000000
  0.000000  0.139765  0.069883      4.000000
  0.023529  0.139765  0.069883      8.000000
  0.047059  0.139765  0.069883      8.000000
  0.070588  0.139765  0.069883      8.000000
  0.094118  0.139765  0.069883      8.000000
  0.117647  0.139765  0.069883      8.000000
  0.141177  0.139765  0.069883      4.000000
  0.000000  0.093177  0.093177      4.000000
  0.023529  0.093177  0.093177      8.000000
  0.047059  0.093177  0.093177      8.000000
  0.070588  0.093177  0.093177      8.000000
  0.094118  0.093177  0.093177      8.000000
  0.117647  0.093177  0.093177      8.000000
  0.141177  0.093177  0.093177      4.000000
  0.000000  0.116471  0.093177      8.000000
  0.023529  0.116471  0.093177     16.000000
  0.047059  0.116471  0.093177     16.000000
  0.070588  0.116471  0.093177     16.000000
  0.094118  0.116471  0.093177     16.000000
  0.117647  0.116471  0.093177     16.000000
  0.141177  0.116471  0.093177      8.000000
  0.000000  0.139765  0.093177      4.000000
  0.023529  0.139765  0.093177      8.000000
  0.047059  0.139765  0.093177      8.000000
  0.070588  0.139765  0.093177      8.000000
  0.094118  0.139765  0.093177      8.000000
  0.117647  0.139765  0.093177      8.000000
  0.141177  0.139765  0.093177      4.000000
  0.000000  0.116471  0.116471      4.000000
  0.023529  0.116471  0.116471      8.000000
  0.047059  0.116471  0.116471      8.000000
  0.070588  0.116471  0.116471      8.000000
  0.094118  0.116471  0.116471      8.000000
  0.117647  0.116471  0.116471      8.000000
  0.141177  0.116471  0.116471      4.000000
  0.000000  0.139765  0.116471      4.000000
  0.023529  0.139765  0.116471      8.000000
  0.047059  0.139765  0.116471      8.000000
  0.070588  0.139765  0.116471      8.000000
  0.094118  0.139765  0.116471      8.000000
  0.117647  0.139765  0.116471      8.000000
  0.141177  0.139765  0.116471      4.000000
  0.000000  0.139765  0.139765      1.000000
  0.023529  0.139765  0.139765      2.000000
  0.047059  0.139765  0.139765      2.000000
  0.070588  0.139765  0.139765      2.000000
  0.094118  0.139765  0.139765      2.000000
  0.117647  0.139765  0.139765      2.000000
  0.141177  0.139765  0.139765      1.000000
 


--------------------------------------------------------------------------------------------------------




 Dimension of arrays:
   k-points           NKPTS =    196   k-points in BZ     NKDIM =    196   number of bands    NBANDS=     40
   number of dos      NEDOS =    301   number of ions     NIONS =      4
   non local maximal  LDIM  =      6   non local SUM 2l+1 LMDIM =     18
   total plane-waves  NPLWV =  21952
   max r-space proj   IRMAX =      1   max aug-charges    IRDMAX=   9754
   dimension x,y,z NGX =    28 NGY =   28 NGZ =   28
   dimension x,y,z NGXF=    56 NGYF=   56 NGZF=   56
   support grid    NGXF=    56 NGYF=   56 NGZF=   56
   ions per type =               4
   NGX,Y,Z   is equivalent  to a cutoff of  13.14, 13.01, 13.01 a.u.
   NGXF,Y,Z  is equivalent  to a cutoff of  26.29, 26.02, 26.02 a.u.

 SYSTEM =  unknown system                          
 POSCAR =  # Generated by Masgent for elastic const

 Startparameter for this run:
   NWRITE =      2    write-flag & timer
   PREC   = accura    normal or accurate (medium, high low for compatibility)
   ISTART =      0    job   : 0-new  1-cont  2-samecut
   ICHARG =      2    charge: 1-file 2-atom 10-const
   ISPIN  =      1    spin polarized calculation?
   LNONCOLLINEAR =      F non collinear calculations
   LSORBIT =      F    spin-orbit coupling
   INIWAV =      1    electr: 0-lowe 1-rand  2-diag
   LASPH  =      T    aspherical Exc in radial PAW
 Electronic Relaxation 1
   ENCUT  =  520.0 eV  38.22 Ry    6.18 a.u.   6.59  6.65  6.65*2*pi/ulx,y,z
   ENINI  =  520.0     initial cutoff
   ENAUG  =  758.2 eV  augmentation charge cutoff
   NELM   =    100;   NELMIN=  2; NELMDL= -5     # of ELM steps 
   EDIFF  = 0.1E-07   stopping-criterion for ELM
   LREAL  =      F    real-space projection
   NLSPLINE    = F    spline interpolate recip. space projectors
   LCOMPAT=      F    compatible to vasp.4.4
   GGA_COMPAT  = T    GGA compatible to vasp.4.4-vasp.4.6
   LMAXPAW     = -100 max onsite density
   LMAXMIX     =    2 max onsite mixed and CHGCAR
   VOSKOWN=      0    Vosko Wilk Nusair interpolation
   ROPT   =    0.00000
 Ionic relaxation
   EDIFFG = 0.1E-06   stopping-criterion for IOM
   NSW    =      0    number of steps for IOM
   NBLOCK =      1;   KBLOCK =      1    inner block; outer block 
   IBRION =     -1    ionic relax: 0-MD 1-quasi-New 2-CG
   NFREE  =      0    steps in history (QN), initial steepest desc. (CG)
   ISIF   =      2    stress and relaxation
   IWAVPR =     10    prediction:  0-non 1-charg 2-wave 3-comb
   ISYM   =      2    0-nonsym 1-usesym 2-fastsym
   LCORR  =      T    Harris-Foulkes like correction to forces

   POTIM  = 0.5000    time-step for ionic-motion
   TEIN   =    0.0    initial temperature
   TEBEG  =    0.0;   TEEND  =   0.0 temperature during run
   SMASS  =  -3.00    Nose mass-parameter (am)
   estimated Nose-frequenzy (Omega)   =  0.10E-29 period in steps = 0.13E+47 mass=  -0.287E-27a.u.
   SCALEE = 1.0000    scale energy and forces
   NPACO  =    256;   APACO  = 16.0  distance and # of slots for P.C.
   PSTRESS=    0.0 pullay stress

  Mass of Ions in am
   POMASS =  63.55
  Ionic Valenz
   ZVAL   =  17.00
  Atomic Wigner-Seitz radii
   RWIGS  =  -1.00
  virtual crystal weights 
   VCA    =   1.00
   NELECT =      68.0000    total number of electrons
   NUPDOWN=      -1.0000    fix difference up-down

 DOS related values:
   EMIN   =  10.00;   EMAX   =-10.00  energy-range for DOS
   EFERMI =   0.00
   ISMEAR =     1;   SIGMA  =   0.20  broadening in eV -4-tet -1-fermi 0-gaus

 Electronic relaxation 2 (details)
   IALGO  =     68    algorithm
   LDIAG  =      T    sub-space diagonalisation (order eigenvalues)
   LSUBROT=      F    optimize rotation matrix (better conditioning)
   TURBO    =      0    0=normal 1=particle mesh
   IRESTART =      0    0=no restart 2=restart with 2 vectors
   NREBOOT  =      0    no. of reboots
   NMIN     =      0    reboot dimension
   EREF     =   0.00    reference energy to select bands
   IMIX   =      4    mixing-type and parameters
     AMIX     =   0.40;   BMIX     =  1.00
     AMIX_MAG =   1.60;   BMIX_MAG =  1.00
     AMIN     =   0.10
     WC   =   100.;   INIMIX=   1;  MIXPRE=   1;  MAXMIX= -45

 Intra band minimization:
   WEIMIN = 0.0000     energy-eigenvalue tresh-hold
   EBREAK =  0.63E-10  absolut break condition
   DEPER  =   0.30     relativ break condition  

   TIME   =   0.40     timestep for ELM

  volume/ion in A,a.u.               =      11.33        76.47
  Fermi-wavevector in a.u.,A,eV,Ry     =   1.874109  3.541552 47.787532  3.512285
  Thomas-Fermi vector in A             =   2.919116

 Write flags
   LWAVE        =      F    write WAVECAR
   LDOWNSAMPLE  =      F    k-point downsampling of WAVECAR
   LCHARG       =      T    write CHGCAR
   LVTOT        =      F    write LOCPOT, total local potential
   LVHAR        =      F    write LOCPOT, Hartree potential only
   LELF         =      F    write electronic localiz. function (ELF)
   LORBIT       =     11    0 simple, 1 ext, 2 COOP (PROOUT), +10 PAW based schemes


 Dipole corrections
   LMONO  =      F    monopole corrections only (constant potential shift)
   LDIPOL =      F    correct potential (dipole corrections)
   IDIPOL =      0    1-x, 2-y, 3-z, 4-all directions 
   EPSILON=  1.0000000 bulk dielectric constant

 Exchange correlation treatment:
   GGA     =    --    GGA type
   LEXCH   =     8    internal setting for exchange type
   VOSKOWN=      0    Vosko Wilk Nusair interpolation
   LHFCALC =     F    Hartree Fock is set to
   LHFONE  =     F    Hartree Fock one center treatment
   AEXX    =    0.0000 exact exchange contribution

 Linear response parameters
   LEPSILON=     F    determine dielectric tensor
   LRPA    =     F    only Hartree local field effects (RPA)
   LNABLA  =     F    use nabla operator in PAW spheres
   LVEL    =     F    velocity operator in full k-point grid
   LINTERFAST=   F  fast interpolation
   KINTER  =     0    interpolate to denser k-point grid
   CSHIFT  =0.1000    complex shift for real part using Kramers Kronig
   OMEGAMAX=  -1.0    maximum frequency
   DEG_THRESHOLD= 0.2000000E-02 threshold for treating states as degnerate
   RTIME   =   -0.100 relaxation time in fs
  (WPLASMAI=    0.000 imaginary part of plasma frequency in eV, 0.658/RTIME)
   DFIELD  = 0.0000000 0.0000000 0.0000000 field for delta impulse in time

 Orbital magnetization related:
   ORBITALMAG=     F  switch on orbital magnetization
   LCHIMAG   =     F  perturbation theory with respect to B field
   DQ        =  0.001000  dq finite difference perturbation B field
   LLRAUG    =     F  two centre corrections for induced B field



--------------------------------------------------------------------------------------------------------


 Static calculation
 charge density and potential will be updated during run
 non-spin polarized calculation
 RMM-DIIS sequential band-by-band and
  variant of blocked Davidson during initial phase
 perform sub-space diagonalisation
    before iterative eigenvector-optimisation
 modified Broyden-mixing scheme, WC =      100.0
 initial mixing is a Kerker type mixing with AMIX =  0.4000 and BMIX =      1.0000
 Hartree-type preconditioning will be used
 using additional bands            6
 reciprocal scheme for non local part
 use partial core corrections
 calculate Harris-corrections to forces   (improved forces if not selfconsistent)
 use gradient corrections 
 use of overlap-Matrix (Vanderbilt PP)
 Methfessel and Paxton  Order N= 1 SIGMA  =   0.20


--------------------------------------------------------------------------------------------------------


  energy-cutoff  :      520.00
  volume of cell :       45.33
      direct lattice vectors                 reciprocal lattice vectors
     3.541656365  0.000000000  0.000000000     0.282353762 -0.000000000  0.000000000
     0.000000000  3.577430672  0.000000000     0.000000000  0.279530225  0.000000000
     0.000000000  0.000000000  3.577430672    -0.000000000 -0.000000000  0.279530225

  length of vectors
     3.541656365  3.577430672  3.577430672     0.282353762  0.279530225  0.279530225



 k-points in units of 2pi/SCALE and weight: # Generated by Masgent for elastic const
   0.00000000  0.00000000  0.00000000       0.001
   0.02352948  0.00000000  0.00000000       0.001
   0.04705896  0.00000000  0.00000000       0.001
   0.07058844  0.00000000  0.00000000       0.001
   0.09411792  0.00000000  0.00000000       0.001
   0.11764740  0.00000000  0.00000000       0.001
   0.14117688  0.00000000  0.00000000       0.001
   0.00000000  0.02329419  0.00000000       0.002
   0.02352948  0.02329419  0.00000000       0.005
   0.04705896  0.02329419  0.00000000       0.005
   0.07058844  0.02329419  0.00000000       0.005
   0.09411792  0.02329419  0.00000000       0.005
   0.11764740  0.02329419  0.00000000       0.005
   0.14117688  0.02329419  0.00000000       0.002
   0.00000000  0.04658837  0.00000000       0.002
   0.02352948  0.04658837  0.00000000       0.005
   0.04705896  0.04658837  0.00000000       0.005
   0.07058844  0.04658837  0.00000000       0.005
   0.09411792  0.04658837  0.00000000       0.005
   0.11764740  0.04658837  0.00000000       0.005
   0.14117688  0.04658837  0.00000000       0.002
   0.00000000  0.06988256  0.00000000       0.002
   0.02352948  0.06988256  0.00000000       0.005
   0.04705896  0.06988256  0.00000000       0.005
   0.07058844  0.06988256  0.00000000       0.005
   0.09411792  0.06988256  0.00000000       0.005
   0.11764740  0.06988256  0.00000000       0.005
   0.14117688  0.06988256  0.00000000       0.002
   0.00000000  0.09317674  0.00000000       0.002
   0.02352948  0.09317674  0.00000000       0.005
   0.04705896  0.09317674  0.00000000       0.005
   0.07058844  0.09317674  0.00000000       0.005
   0.09411792  0.09317674  0.00000000       0.005
   0.11764740  0.09317674  0.00000000       0.005
   0.14117688  0.09317674  0.00000000       0.002
   0.00000000  0.11647093  0.00000000       0.002
   0.02352948  0.11647093  0.00000000       0.005
   0.04705896  0.11647093  0.00000000       0.005
   0.07058844  0.11647093  0.00000000       0.005
   0.09411792  0.11647093  0.00000000       0.005
   0.11764740  0.11647093  0.00000000       0.005
   0.14117688  0.11647093  0.00000000       0.002
   0.00000000  0.13976511  0.00000000       0.001
   0.02352948  0.13976511  0.00000000       0.002
   0.04705896  0.13976511  0.00000000       0.002
   0.07058844  0.13976511  0.00000000       0.002
   0.09411792  0.13976511  0.00000000       0.002
   0.11764740  0.13976511  0.00000000       0.002
   0.14117688  0.13976511  0.00000000       0.001
   0.00000000  0.02329419  0.02329419       0.002
   0.02352948  0.02329419  0.02329419       0.005
   0.04705896  0.02329419  0.02329419       0.005
   0.07058844  0.02329419  0.02329419       0.005
   0.09411792  0.02329419  0.02329419       0.005
   0.11764740  0.02329419  0.02329419       0.005
   0.14117688  0.02329419  0.02329419       0.002
   0.00000000  0.04658837  0.02329419       0.005
   0.02352948  0.04658837  0.02329419       0.009
   0.04705896  0.04658837  0.02329419       0.009
   0.07058844  0.04658837  0.02329419       0.009
   0.09411792  0.04658837  0.02329419       0.009
   0.11764740  0.04658837  0.02329419       0.009
   0.14117688  0.04658837  0.02329419       0.005
   0.00000000  0.06988256  0.02329419       0.005
   0.02352948  0.06988256  0.02329419       0.009
   0.04705896  0.06988256  0.02329419       0.009
   0.07058844  0.06988256  0.02329419       0.009
   0.09411792  0.06988256  0.02329419       0.009
   0.11764740  0.06988256  0.02329419       0.009
   0.14117688  0.06988256  0.02329419       0.005
   0.00000000  0.09317674  0.02329419       0.005
   0.02352948  0.09317674  0.02329419       0.009
   0.04705896  0.09317674  0.02329419       0.009
   0.07058844  0.09317674  0.02329419       0.009
   0.09411792  0.09317674  0.02329419       0.009
   0.11764740  0.09317674  0.02329419       0.009
   0.14117688  0.09317674  0.02329419       0.005
   0.00000000  0.11647093  0.02329419       0.005
   0.02352948  0.11647093  0.02329419       0.009
   0.04705896  0.11647093  0.02329419       0.009
   0.07058844  0.11647093  0.02329419       0.009
   0.09411792  0.11647093  0.02329419       0.009
   0.11764740  0.11647093  0.02329419       0.009
   0.14117688  0.11647093  0.02329419       0.005
   0.00000000  0.13976511  0.02329419       0.002
   0.02352948  0.13976511  0.02329419       0.005
   0.04705896  0.13976511  0.02329419       0.005
   0.07058844  0.13976511  0.02329419       0.005
   0.09411792  0.13976511  0.02329419       0.005
   0.11764740  0.13976511  0.02329419       0.005
   0.14117688  0.13976511  0.02329419       0.002
   0.00000000  0.04658837  0.04658837       0.002
   0.02352948  0.04658837  0.04658837       0.005
   0.04705896  0.04658837  0.04658837       0.005
   0.07058844  0.04658837  0.04658837       0.005
   0.09411792  0.04658837  0.04658837       0.005
   0.11764740  0.04658837  0.04658837       0.005
   0.14117688  0.04658837  0.04658837       0.002
   0.00000000  0.06988256  0.04658837       0.005
   0.02352948  0.06988256  0.04658837       0.009
   0.04705896  0.06988256  0.04658837       0.009
   0.07058844  0.06988256  0.04658837       0.009
   0.09411792  0.06988256  0.04658837       0.009
   0.11764740  0.06988256  0.04658837       0.009
   0.14117688  0.06988256  0.04658837       0.005
   0.00000000  0.09317674  0.04658837       0.005
   0.02352948  0.09317674  0.04658837       0.009
   0.04705896  0.09317674  0.04658837       0.009
   0.07058844  0.09317674  0.04658837       0.009
   0.09411792  0.09317674  0.04658837       0.009
   0.11764740  0.09317674  0.04658837       0.009
   0.14117688  0.09317674  0.04658837       0.005
   0.00000000  0.11647093  0.04658837       0.005
   0.02352948  0.11647093  0.04658837       0.009
   0.04705896  0.11647093  0.04658837       0.009
   0.07058844  0.11647093  0.04658837       0.009
   0.09411792  0.11647093  0.04658837       0.009
   0.11764740  0.11647093  0.04658837       0.009
   0.14117688  0.11647093  0.04658837       0.005
   0.00000000  0.13976511  0.04658837       0.002
   0.02352948  0.13976511  0.04658837       0.005
   0.04705896  0.13976511  0.04658837       0.005
   0.07058844  0.13976511  0.04658837       0.005
   0.09411792  0.13976511  0.04658837       0.005
   0.11764740  0.13976511  0.04658837       0.005
   0.14117688  0.13976511  0.04658837       0.002
   0.00000000  0.06988256  0.06988256       0.002
   0.02352948  0.06988256  0.06988256       0.005
   0.04705896  0.06988256  0.06988256       0.005
   0.07058844  0.06988256  0.06988256       0.005
   0.09411792  0.06988256  0.06988256       0.005
   0.11764740  0.06988256  0.06988256       0.005
   0.14117688  0.06988256  0.06988256       0.002
   0.00000000  0.09317674  0.06988256       0.005
   0.02352948  0.09317674  0.06988256       0.009
   0.04705896  0.09317674  0.06988256       0.009
   0.07058844  0.09317674  0.06988256       0.009
   0.09411792  0.09317674  0.06988256       0.009
   0.11764740  0.09317674  0.06988256       0.009
   0.14117688  0.09317674  0.06988256       0.005
   0.00000000  0.11647093  0.06988256       0.005
   0.02352948  0.11647093  0.06988256       0.009
   0.04705896  0.11647093  0.06988256       0.009
   0.07058844  0.11647093  0.06988256       0.009
   0.09411792  0.11647093  0.06988256       0.009
   0.11764740  0.11647093  0.06988256       0.009
   0.14117688  0.11647093  0.06988256       0.005
   0.00000000  0.13976511  0.06988256       0.002
   0.02352948  0.13976511  0.06988256       0.005
   0.04705896  0.13976511  0.06988256       0.005
   0.07058844  0.13976511  0.06988256       0.005
   0.09411792  0.13976511  0.06988256       0.005
   0.11764740  0.13976511  0.06988256       0.005
   0.14117688  0.13976511  0.06988256       0.002
   0.00000000  0.09317674  0.09317674       0.002
   0.02352948  0.09317674  0.09317674       0.005
   0.04705896  0.09317674  0.09317674       0.005
   0.07058844  0.09317674  0.09317674       0.005
   0.09411792  0.09317674  0.09317674       0.005
   0.11764740  0.09317674  0.09317674       0.005
   0.14117688  0.09317674  0.09317674       0.002
   0.00000000  0.11647093  0.09317674       0.005
   0.02352948  0.11647093  0.09317674       0.009
   0.04705896  0.11647093  0.09317674       0.009
   0.07058844  0.11647093  0.09317674       0.009
   0.09411792  0.11647093  0.09317674       0.009
   0.11764740  0.11647093  0.09317674       0.009
   0.14117688  0.11647093  0.09317674       0.005
   0.00000000  0.13976511  0.09317674       0.002
   0.02352948  0.13976511  0.09317674       0.005
   0.04705896  0.13976511  0.09317674       0.005
   0.07058844  0.13976511  0.09317674       0.005
   0.09411792  0.13976511  0.09317674       0.005
   0.11764740  0.13976511  0.09317674       0.005
   0.14117688  0.13976511  0.09317674       0.002
   0.00000000  0.11647093  0.11647093       0.002
   0.02352948  0.11647093  0.11647093       0.005
   0.04705896  0.11647093  0.11647093       0.005
   0.07058844  0.11647093  0.11647093       0.005
   0.09411792  0.11647093  0.11647093       0.005
   0.11764740  0.11647093  0.11647093       0.005
   0.14117688  0.11647093  0.11647093       0.002
   0.00000000  0.13976511  0.11647093       0.002
   0.02352948  0.13976511  0.11647093       0.005
   0.04705896  0.13976511  0.11647093       0.005
   0.07058844  0.13976511  0.11647093       0.005
   0.09411792  0.13976511  0.11647093       0.005
   0.11764740  0.13976511  0.11647093       0.005
   0.14117688  0.13976511  0.11647093       0.002
   0.00000000  0.13976511  0.13976511       0.001
   0.02352948  0.13976511  0.13976511       0.001
   0.04705896  0.13976511  0.13976511       0.001
   0.07058844  0.13976511  0.13976511       0.001
   0.09411792  0.13976511  0.13976511       0.001
   0.11764740  0.13976511  0.13976511       0.001
   0.14117688  0.13976511  0.13976511       0.001

 k-points in reciprocal lattice and weights: # Generated by Masgent for elastic const
   0.00000000  0.00000000  0.00000000       0.001
   0.08333333  0.00000000  0.00000000       0.001
   0.16666667  0.00000000  0.00000000       0.001
   0.25000000  0.00000000  0.00000000       0.001
   0.33333333  0.00000000  0.00000000       0.001
   0.41666667  0.00000000  0.00000000       0.001
   0.50000000  0.00000000  0.00000000       0.001
   0.00000000  0.08333333  0.00000000       0.002
   0.08333333  0.08333333  0.00000000       0.005
   0.16666667  0.08333333  0.00000000       0.005
   0.25000000  0.08333333  0.00000000       0.005
   0.33333333  0.08333333  0.00000000       0.005
   0.41666667  0.08333333  0.00000000       0.005
   0.50000000  0.08333333  0.00000000       0.002
   0.00000000  0.16666667  0.00000000       0.002
   0.08333333  0.16666667  0.00000000       0.005
   0.16666667  0.16666667  0.00000000       0.005
   0.25000000  0.16666667  0.00000000       0.005
   0.33333333  0.16666667  0.00000000       0.005
   0.41666667  0.16666667  0.00000000       0.005
   0.50000000  0.16666667  0.00000000       0.002
   0.00000000  0.25000000  0.00000000       0.002
   0.08333333  0.25000000  0.00000000       0.005
   0.16666667  0.25000000  0.00000000       0.005
   0.25000000  0.25000000  0.00000000       0.005
   0.33333333  0.25000000  0.00000000       0.005
   0.41666667  0.25000000  0.00000000       0.005
   0.50000000  0.25000000  0.00000000       0.002
   0.00000000  0.33333333  0.00000000       0.002
   0.08333333  0.33333333  0.00000000       0.005
   0.16666667  0.33333333  0.00000000       0.005
   0.25000000  0.33333333  0.00000000       0.005
   0.33333333  0.33333333  0.00000000       0.005
   0.41666667  0.33333333  0.00000000       0.005
   0.50000000  0.33333333  0.00000000       0.002
   0.00000000  0.41666667  0.00000000       0.002
   0.08333333  0.41666667  0.00000000       0.005
   0.16666667  0.41666667  0.00000000       0.005
   0.25000000  0.41666667  0.00000000       0.005
   0.33333333  0.41666667  0.00000000       0.005
   0.41666667  0.41666667  0.00000000       0.005
   0.50000000  0.41666667  0.00000000       0.002
   0.00000000  0.50000000  0.00000000       0.001
   0.08333333  0.50000000  0.00000000       0.002
   0.16666667  0.50000000  0.00000000       0.002
   0.25000000  0.50000000  0.00000000       0.002
   0.33333333  0.50000000  0.00000000       0.002
   0.41666667  0.50000000  0.00000000       0.002
   0.50000000  0.50000000  0.00000000       0.001
   0.00000000  0.08333333  0.08333333       0.002
   0.08333333  0.08333333  0.08333333       0.005
   0.16666667  0.08333333  0.08333333       0.005
   0.25000000  0.08333333  0.08333333       0.005
   0.33333333  0.08333333  0.08333333       0.005
   0.41666667  0.08333333  0.08333333       0.005
   0.50000000  0.08333333  0.08333333       0.002
   0.00000000  0.16666667  0.08333333       0.005
   0.08333333  0.16666667  0.08333333       0.009
   0.16666667  0.16666667  0.08333333       0.009
   0.25000000  0.16666667  0.08333333       0.009
   0.33333333  0.16666667  0.08333333       0.009
   0.41666667  0.16666667  0.08333333       0.009
   0.50000000  0.16666667  0.08333333       0.005
   0.00000000  0.25000000  0.08333333       0.005
   0.08333333  0.25000000  0.08333333       0.009
   0.16666667  0.25000000  0.08333333       0.009
   0.25000000  0.25000000  0.08333333       0.009
   0.33333333  0.25000000  0.08333333       0.009
   0.41666667  0.25000000  0.08333333       0.009
   0.50000000  0.25000000  0.08333333       0.005
   0.00000000  0.33333333  0.08333333       0.005
   0.08333333  0.33333333  0.08333333       0.009
   0.16666667  0.33333333  0.08333333       0.009
   0.25000000  0.33333333  0.08333333       0.009
   0.33333333  0.33333333  0.08333333       0.009
   0.41666667  0.33333333  0.08333333       0.009
   0.50000000  0.33333333  0.08333333       0.005
   0.00000000  0.41666667  0.08333333       0.005
   0.08333333  0.41666667  0.08333333       0.009
   0.16666667  0.41666667  0.08333333       0.009
   0.25000000  0.41666667  0.08333333       0.009
   0.33333333  0.41666667  0.08333333       0.009
   0.41666667  0.41666667  0.08333333       0.009
   0.50000000  0.41666667  0.08333333       0.005
   0.00000000  0.50000000  0.08333333       0.002
   0.08333333  0.50000000  0.08333333       0.005
   0.16666667  0.50000000  0.08333333       0.005
   0.25000000  0.50000000  0.08333333       0.005
   0.33333333  0.50000000  0.08333333       0.005
   0.41666667  0.50000000  0.08333333       0.005
   0.50000000  0.50000000  0.08333333       0.002
   0.00000000  0.16666667  0.16666667       0.002
   0.08333333  0.16666667  0.16666667       0.005
   0.16666667  0.16666667  0.16666667       0.005
   0.25000000  0.16666667  0.16666667       0.005
   0.33333333  0.16666667  0.16666667       0.005
   0.41666667  0.16666667  0.16666667       0.005
   0.50000000  0.16666667  0.16666667       0.002
   0.00000000  0.25000000  0.16666667       0.005
   0.08333333  0.25000000  0.16666667       0.009
   0.16666667  0.25000000  0.16666667       0.009
   0.25000000  0.25000000  0.16666667       0.009
   0.33333333  0.25000000  0.16666667       0.009
   0.41666667  0.25000000  0.16666667       0.009
   0.50000000  0.25000000  0.16666667       0.005
   0.00000000  0.33333333  0.16666667       0.005
   0.08333333  0.33333333  0.16666667       0.009
   0.16666667  0.33333333  0.16666667       0.009
   0.25000000  0.33333333  0.16666667       0.009
   0.33333333  0.33333333  0.16666667       0.009
   0.41666667  0.33333333  0.16666667       0.009
   0.50000000  0.33333333  0.16666667       0.005
   0.00000000  0.41666667  0.16666667       0.005
   0.08333333  0.41666667  0.16666667       0.009
   0.16666667  0.41666667  0.16666667       0.009
   0.25000000  0.41666667  0.16666667       0.009
   0.33333333  0.41666667  0.16666667       0.009
   0.41666667  0.41666667  0.16666667       0.009
   0.50000000  0.41666667  0.16666667       0.005
   0.00000000  0.50000000  0.16666667       0.002
   0.08333333  0.50000000  0.16666667       0.005
   0.16666667  0.50000000  0.16666667       0.005
   0.25000000  0.50000000  0.16666667       0.005
   0.33333333  0.50000000  0.16666667       0.005
   0.41666667  0.50000000  0.16666667       0.005
   0.50000000  0.50000000  0.16666667       0.002
   0.00000000  0.25000000  0.25000000       0.002
   0.08333333  0.25000000  0.25000000       0.005
   0.16666667  0.25000000  0.25000000       0.005
   0.25000000  0.25000000  0.25000000       0.005
   0.33333333  0.25000000  0.25000000       0.005
   0.41666667  0.25000000  0.25000000       0.005
   0.50000000  0.25000000  0.25000000       0.002
   0.00000000  0.33333333  0.25000000       0.005
   0.08333333  0.33333333  0.25000000       0.009
   0.16666667  0.33333333  0.25000000       0.009
   0.25000000  0.33333333  0.25000000       0.009
   0.33333333  0.33333333  0.25000000       0.009
   0.41666667  0.33333333  0.25000000       0.009
   0.50000000  0.33333333  0.25000000       0.005
   0.00000000  0.41666667  0.25000000       0.005
   0.08333333  0.41666667  0.25000000       0.009
   0.16666667  0.41666667  0.25000000       0.009
   0.25000000  0.41666667  0.25000000       0.009
   0.33333333  0.41666667  0.25000000       0.009
   0.41666667  0.41666667  0.25000000       0.009
   0.50000000  0.41666667  0.25000000       0.005
   0.00000000  0.50000000  0.25000000       0.002
   0.08333333  0.50000000  0.25000000       0.005
   0.16666667  0.50000000  0.25000000       0.005
   0.25000000  0.50000000  0.25000000       0.005
   0.33333333  0.50000000  0.25000000       0.005
   0.41666667  0.50000000  0.25000000       0.005
   0.50000000  0.50000000  0.25000000       0.002
   0.00000000  0.33333333  0.33333333       0.002
   0.08333333  0.33333333  0.33333333       0.005
   0.16666667  0.33333333  0.33333333       0.005
   0.25000000  0.33333333  0.33333333       0.005
   0.33333333  0.33333333  0.33333333       0.005
   0.41666667  0.33333333  0.33333333       0.005
   0.50000000  0.33333333  0.33333333       0.002
   0.00000000  0.41666667  0.33333333       0.005
   0.08333333  0.41666667  0.33333333       0.009
   0.16666667  0.41666667  0.33333333       0.009
   0.25000000  0.41666667  0.33333333       0.009
   0.33333333  0.41666667  0.33333333       0.009
   0.41666667  0.41666667  0.33333333       0.009
   0.50000000  0.41666667  0.33333333       0.005
   0.00000000  0.50000000  0.33333333       0.002
   0.08333333  0.50000000  0.33333333       0.005
   0.16666667  0.50000000  0.33333333       0.005
   0.25000000  0.50000000  0.33333333       0.005
   0.33333333  0.50000000  0.33333333       0.005
   0.41666667  0.50000000  0.33333333       0.005
   0.50000000  0.50000000  0.33333333       0.002
   0.00000000  0.41666667  0.41666667       0.002
   0.08333333  0.41666667  0.41666667       0.005
   0.16666667  0.41666667  0.41666667       0.005
   0.25000000  0.41666667  0.41666667       0.005
   0.33333333  0.41666667  0.41666667       0.005
   0.41666667  0.41666667  0.41666667       0.005
   0.50000000  0.41666667  0.41666667       0.002
   0.00000000  0.50000000  0.41666667       0.002
   0.08333333  0.50000000  0.41666667       0.005
   0.16666667  0.50000000  0.41666667       0.005
   0.25000000  0.50000000  0.41666667       0.005
   0.33333333  0.50000000  0.41666667       0.005
   0.41666667  0.50000000  0.41666667       0.005
   0.50000000  0.50000000  0.41666667       0.002
   0.00000000  0.50000000  0.50000000       0.001
   0.08333333  0.50000000  0.50000000       0.001
   0.16666667  0.50000000  0.50000000       0.001
   0.25000000  0.50000000  0.50000000       0.001
   0.33333333  0.50000000  0.50000000       0.001
   0.41666667  0.50000000  0.50000000       0.001
   0.50000000  0.50000000  0.50000000       0.001

 position of ions in fractional coordinates (direct lattice) 
   0.00000000  0.00000000  0.00000000
   0.00000000  0.50000000  0.50000000
   0.50000000  0.00000000  0.50000000
   0.50000000  0.50000000  0.00000000

 position of ions in cartesian coordinates  (Angst):
   0.00000000  0.00000000  0.00000000
   0.00000000  1.78871534  1.78871534
   1.77082818  0.00000000  1.78871534
   1.77082818  1.78871534  0.00000000



--------------------------------------------------------------------------------------------------------


 k-point   1 :   0.0000 0.0000 0.0000  plane waves:    1229
 k-point   2 :   0.0833 0.0000 0.0000  plane waves:    1221
 k-point   3 :   0.1667 0.0000 0.0000  plane waves:    1245
 k-point   4 :   0.2500 0.0000 0.0000  plane waves:    1229
 k-point   5 :   0.3333 0.0000 0.0000  plane waves:    1221
 k-point   6 :   0.4167 0.0000 0.0000  plane waves:    1218
 k-point   7 :   0.5000 0.0000 0.0000  plane waves:    1222
 k-point   8 :   0.0000 0.0833 0.0000  plane waves:    1225
 k-point   9 :   0.0833 0.0833 0.0000  plane waves:    1235
 k-point  10 :   0.1667 0.0833 0.0000  plane waves:    1238
 k-point  11 :   0.2500 0.0833 0.0000  plane waves:    1232
 k-point  12 :   0.3333 0.0833 0.0000  plane waves:    1217
 k-point  13 :   0.4167 0.0833 0.0000  plane waves:    1217
 k-point  14 :   0.5000 0.0833 0.0000  plane waves:    1216
 k-point  15 :   0.0000 0.1667 0.0000  plane waves:    1247
 k-point  16 :   0.0833 0.1667 0.0000  plane waves:    1240
 k-point  17 :   0.1667 0.1667 0.0000  plane waves:    1239
 k-point  18 :   0.2500 0.1667 0.0000  plane waves:    1229
 k-point  19 :   0.3333 0.1667 0.0000  plane waves:    1218
 k-point  20 :   0.4167 0.1667 0.0000  plane waves:    1217
 k-point  21 :   0.5000 0.1667 0.0000  plane waves:    1204
 k-point  22 :   0.0000 0.2500 0.0000  plane waves:    1231
 k-point  23 :   0.0833 0.2500 0.0000  plane waves:    1232
 k-point  24 :   0.1667 0.2500 0.0000  plane waves:    1220
 k-point  25 :   0.2500 0.2500 0.0000  plane waves:    1225
 k-point  26 :   0.3333 0.2500 0.0000  plane waves:    1222
 k-point  27 :   0.4167 0.2500 0.0000  plane waves:    1220
 k-point  28 :   0.5000 0.2500 0.0000  plane waves:    1228
 k-point  29 :   0.0000 0.3333 0.0000  plane waves:    1223
 k-point  30 :   0.0833 0.3333 0.0000  plane waves:    1217
 k-point  31 :   0.1667 0.3333 0.0000  plane waves:    1215
 k-point  32 :   0.2500 0.3333 0.0000  plane waves:    1226
 k-point  33 :   0.3333 0.3333 0.0000  plane waves:    1220
 k-point  34 :   0.4167 0.3333 0.0000  plane waves:    1219
 k-point  35 :   0.5000 0.3333 0.0000  plane waves:    1224
 k-point  36 :   0.0000 0.4167 0.0000  plane waves:    1214
 k-point  37 :   0.0833 0.4167 0.0000  plane waves:    1213
 k-point  38 :   0.1667 0.4167 0.0000  plane waves:    1214
 k-point  39 :   0.2500 0.4167 0.0000  plane waves:    1218
 k-point  40 :   0.3333 0.4167 0.0000  plane waves:    1219
 k-point  41 :   0.4167 0.4167 0.0000  plane waves:    1217
 k-point  42 :   0.5000 0.4167 0.0000  plane waves:    1218
 k-point  43 :   0.0000 0.5000 0.0000  plane waves:    1222
 k-point  44 :   0.0833 0.5000 0.0000  plane waves:    1218
 k-point  45 :   0.1667 0.5000 0.0000  plane waves:    1218
 k-point  46 :   0.2500 0.5000 0.0000  plane waves:    1218
 k-point  47 :   0.3333 0.5000 0.0000  plane waves:    1220
 k-point  48 :   0.4167 0.5000 0.0000  plane waves:    1218
 k-point  49 :   0.5000 0.5000 0.0000  plane waves:    1220
 k-point  50 :   0.0000 0.0833 0.0833  plane waves:    1231
 k-point  51 :   0.0833 0.0833 0.0833  plane waves:    1235
 k-point  52 :   0.1667 0.0833 0.0833  plane waves:    1235
 k-point  53 :   0.2500 0.0833 0.0833  plane waves:    1227
 k-point  54 :   0.3333 0.0833 0.0833  plane waves:    1222
 k-point  55 :   0.4167 0.0833 0.0833  plane waves:    1219
 k-point  56 :   0.5000 0.0833 0.0833  plane waves:    1212
 k-point  57 :   0.0000 0.1667 0.0833  plane waves:    1242
 k-point  58 :   0.0833 0.1667 0.0833  plane waves:    1236
 k-point  59 :   0.1667 0.1667 0.0833  plane waves:    1232
 k-point  60 :   0.2500 0.1667 0.0833  plane waves:    1228
 k-point  61 :   0.3333 0.1667 0.0833  plane waves:    1220
 k-point  62 :   0.4167 0.1667 0.0833  plane waves:    1215
 k-point  63 :   0.5000 0.1667 0.0833  plane waves:    1214
 k-point  64 :   0.0000 0.2500 0.0833  plane waves:    1236
 k-point  65 :   0.0833 0.2500 0.0833  plane waves:    1227
 k-point  66 :   0.1667 0.2500 0.0833  plane waves:    1229
 k-point  67 :   0.2500 0.2500 0.0833  plane waves:    1222
 k-point  68 :   0.3333 0.2500 0.0833  plane waves:    1215
 k-point  69 :   0.4167 0.2500 0.0833  plane waves:    1219
 k-point  70 :   0.5000 0.2500 0.0833  plane waves:    1214
 k-point  71 :   0.0000 0.3333 0.0833  plane waves:    1218
 k-point  72 :   0.0833 0.3333 0.0833  plane waves:    1220
 k-point  73 :   0.1667 0.3333 0.0833  plane waves:    1217
 k-point  74 :   0.2500 0.3333 0.0833  plane waves:    1218
 k-point  75 :   0.3333 0.3333 0.0833  plane waves:    1219
 k-point  76 :   0.4167 0.3333 0.0833  plane waves:    1219
 k-point  77 :   0.5000 0.3333 0.0833  plane waves:    1218
 k-point  78 :   0.0000 0.4167 0.0833  plane waves:    1214
 k-point  79 :   0.0833 0.4167 0.0833  plane waves:    1218
 k-point  80 :   0.1667 0.4167 0.0833  plane waves:    1214
 k-point  81 :   0.2500 0.4167 0.0833  plane waves:    1218
 k-point  82 :   0.3333 0.4167 0.0833  plane waves:    1217
 k-point  83 :   0.4167 0.4167 0.0833  plane waves:    1217
 k-point  84 :   0.5000 0.4167 0.0833  plane waves:    1222
 k-point  85 :   0.0000 0.5000 0.0833  plane waves:    1218
 k-point  86 :   0.0833 0.5000 0.0833  plane waves:    1214
 k-point  87 :   0.1667 0.5000 0.0833  plane waves:    1218
 k-point  88 :   0.2500 0.5000 0.0833  plane waves:    1216
 k-point  89 :   0.3333 0.5000 0.0833  plane waves:    1222
 k-point  90 :   0.4167 0.5000 0.0833  plane waves:    1220
 k-point  91 :   0.5000 0.5000 0.0833  plane waves:    1220
 k-point  92 :   0.0000 0.1667 0.1667  plane waves:    1237
 k-point  93 :   0.0833 0.1667 0.1667  plane waves:    1231
 k-point  94 :   0.1667 0.1667 0.1667  plane waves:    1229
 k-point  95 :   0.2500 0.1667 0.1667  plane waves:    1224
 k-point  96 :   0.3333 0.1667 0.1667  plane waves:    1221
 k-point  97 :   0.4167 0.1667 0.1667  plane waves:    1218
 k-point  98 :   0.5000 0.1667 0.1667  plane waves:    1208
 k-point  99 :   0.0000 0.2500 0.1667  plane waves:    1222
 k-point 100 :   0.0833 0.2500 0.1667  plane waves:    1228
 k-point 101 :   0.1667 0.2500 0.1667  plane waves:    1222
 k-point 102 :   0.2500 0.2500 0.1667  plane waves:    1218
 k-point 103 :   0.3333 0.2500 0.1667  plane waves:    1216
 k-point 104 :   0.4167 0.2500 0.1667  plane waves:    1220
 k-point 105 :   0.5000 0.2500 0.1667  plane waves:    1218
 k-point 106 :   0.0000 0.3333 0.1667  plane waves:    1219
 k-point 107 :   0.0833 0.3333 0.1667  plane waves:    1224
 k-point 108 :   0.1667 0.3333 0.1667  plane waves:    1220
 k-point 109 :   0.2500 0.3333 0.1667  plane waves:    1221
 k-point 110 :   0.3333 0.3333 0.1667  plane waves:    1221
 k-point 111 :   0.4167 0.3333 0.1667  plane waves:    1217
 k-point 112 :   0.5000 0.3333 0.1667  plane waves:    1212
 k-point 113 :   0.0000 0.4167 0.1667  plane waves:    1222
 k-point 114 :   0.0833 0.4167 0.1667  plane waves:    1217
 k-point 115 :   0.1667 0.4167 0.1667  plane waves:    1216
 k-point 116 :   0.2500 0.4167 0.1667  plane waves:    1216
 k-point 117 :   0.3333 0.4167 0.1667  plane waves:    1220
 k-point 118 :   0.4167 0.4167 0.1667  plane waves:    1214
 k-point 119 :   0.5000 0.4167 0.1667  plane waves:    1214
 k-point 120 :   0.0000 0.5000 0.1667  plane waves:    1214
 k-point 121 :   0.0833 0.5000 0.1667  plane waves:    1218
 k-point 122 :   0.1667 0.5000 0.1667  plane waves:    1214
 k-point 123 :   0.2500 0.5000 0.1667  plane waves:    1224
 k-point 124 :   0.3333 0.5000 0.1667  plane waves:    1220
 k-point 125 :   0.4167 0.5000 0.1667  plane waves:    1218
 k-point 126 :   0.5000 0.5000 0.1667  plane waves:    1212
 k-point 127 :   0.0000 0.2500 0.2500  plane waves:    1217
 k-point 128 :   0.0833 0.2500 0.2500  plane waves:    1216
 k-point 129 :   0.1667 0.2500 0.2500  plane waves:    1223
 k-point 130 :   0.2500 0.2500 0.2500  plane waves:    1224
 k-point 131 :   0.3333 0.2500 0.2500  plane waves:    1222
 k-point 132 :   0.4167 0.2500 0.2500  plane waves:    1218
 k-point 133 :   0.5000 0.2500 0.2500  plane waves:    1210
 k-point 134 :   0.0000 0.3333 0.2500  plane waves:    1217
 k-point 135 :   0.0833 0.3333 0.2500  plane waves:    1218
 k-point 136 :   0.1667 0.3333 0.2500  plane waves:    1221
 k-point 137 :   0.2500 0.3333 0.2500  plane waves:    1221
 k-point 138 :   0.3333 0.3333 0.2500  plane waves:    1217
 k-point 139 :   0.4167 0.3333 0.2500  plane waves:    1212
 k-point 140 :   0.5000 0.3333 0.2500  plane waves:    1214
 k-point 141 :   0.0000 0.4167 0.2500  plane waves:    1219
 k-point 142 :   0.0833 0.4167 0.2500  plane waves:    1221
 k-point 143 :   0.1667 0.4167 0.2500  plane waves:    1218
 k-point 144 :   0.2500 0.4167 0.2500  plane waves:    1219
 k-point 145 :   0.3333 0.4167 0.2500  plane waves:    1216
 k-point 146 :   0.4167 0.4167 0.2500  plane waves:    1213
 k-point 147 :   0.5000 0.4167 0.2500  plane waves:    1220
 k-point 148 :   0.0000 0.5000 0.2500  plane waves:    1226
 k-point 149 :   0.0833 0.5000 0.2500  plane waves:    1222
 k-point 150 :   0.1667 0.5000 0.2500  plane waves:    1228
 k-point 151 :   0.2500 0.5000 0.2500  plane waves:    1214
 k-point 152 :   0.3333 0.5000 0.2500  plane waves:    1216
 k-point 153 :   0.4167 0.5000 0.2500  plane waves:    1210
 k-point 154 :   0.5000 0.5000 0.2500  plane waves:    1216
 k-point 155 :   0.0000 0.3333 0.3333  plane waves:    1214
 k-point 156 :   0.0833 0.3333 0.3333  plane waves:    1222
 k-point 157 :   0.1667 0.3333 0.3333  plane waves:    1220
 k-point 158 :   0.2500 0.3333 0.3333  plane waves:    1215
 k-point 159 :   0.3333 0.3333 0.3333  plane waves:    1223
 k-point 160 :   0.4167 0.3333 0.3333  plane waves:    1214
 k-point 161 :   0.5000 0.3333 0.3333  plane waves:    1216
 k-point 162 :   0.0000 0.4167 0.3333  plane waves:    1220
 k-point 163 :   0.0833 0.4167 0.3333  plane waves:    1222
 k-point 164 :   0.1667 0.4167 0.3333  plane waves:    1220
 k-point 165 :   0.2500 0.4167 0.3333  plane waves:    1218
 k-point 166 :   0.3333 0.4167 0.3333  plane waves:    1221
 k-point 167 :   0.4167 0.4167 0.3333  plane waves:    1221
 k-point 168 :   0.5000 0.4167 0.3333  plane waves:    1214
 k-point 169 :   0.0000 0.5000 0.3333  plane waves:    1216
 k-point 170 :   0.0833 0.5000 0.3333  plane waves:    1220
 k-point 171 :   0.1667 0.5000 0.3333  plane waves:    1222
 k-point 172 :   0.2500 0.5000 0.3333  plane waves:    1220
 k-point 173 :   0.3333 0.5000 0.3333  plane waves:    1216
 k-point 174 :   0.4167 0.5000 0.3333  plane waves:    1214
 k-point 175 :   0.5000 0.5000 0.3333  plane waves:    1216
 k-point 176 :   0.0000 0.4167 0.4167  plane waves:    1222
 k-point 177 :   0.0833 0.4167 0.4167  plane waves:    1218
 k-point 178 :   0.1667 0.4167 0.4167  plane waves:    1224
 k-point 179 :   0.2500 0.4167 0.4167  plane waves:    1221
 k-point 180 :   0.3333 0.4167 0.4167  plane waves:    1224
 k-point 181 :   0.4167 0.4167 0.4167  plane waves:    1219
 k-point 182 :   0.5000 0.4167 0.4167  plane waves:    1232
 k-point 183 :   0.0000 0.5000 0.4167  plane waves:    1218
 k-point 184 :   0.0833 0.5000 0.4167  plane waves:    1214
 k-point 185 :   0.1667 0.5000 0.4167  plane waves:    1218
 k-point 186 :   0.2500 0.5000 0.4167  plane waves:    1224
 k-point 187 :   0.3333 0.5000 0.4167  plane waves:    1220
 k-point 188 :   0.4167 0.5000 0.4167  plane waves:    1222
 k-point 189 :   0.5000 0.5000 0.4167  plane waves:    1228
 k-point 190 :   0.0000 0.5000 0.5000  plane waves:    1228
 k-point 191 :   0.0833 0.5000 0.5000  plane waves:    1220
 k-point 192 :   0.1667 0.5000 0.5000  plane waves:    1224
 k-point 193 :   0.2500 0.5000 0.5000  plane waves:    1228
 k-point 194 :   0.3333 0.5000 0.5000  plane waves:    1220
 k-point 195 :   0.4167 0.5000 0.5000  plane waves:    1192
 k-point 196 :   0.5000 0.5000 0.5000  plane waves:    1208

 maximum and minimum number of plane-waves per node :      1247     1192

 maximum number of plane-waves:      1247
 maximum index in each direction: 
   IXMAX=    6   IYMAX=    6   IZMAX=    6
   IXMIN=   -7   IYMIN=   -7   IZMIN=   -7


 serial   3D FFT for wavefunctions
 parallel 3D FFT for charge:
    minimum data exchange during FFTs selected (reduces bandwidth)


 total amount of memory used by VASP MPI-rank0   111427. kBytes
=======================================================================

   base      :      30000. kBytes
   nonl-proj :      35303. kBytes
   fftplans  :       1619. kBytes
   grid      :       3048. kBytes
   one-center:         62. kBytes
   wavefun   :      41395. kBytes

     INWAV:  cpu time    0.0000: real time    0.0002
 Broyden mixing: mesh for mixing (old mesh)
   NGX = 13   NGY = 13   NGZ = 13
  (NGX  = 56   NGY  = 56   NGZ  = 56)
  gives a total of   2197 points

 initial charge density was supplied:
 charge density of overlapping atoms calculated
 number of electron      68.0000000 magnetization 
 keeping initial charge density in first step


--------------------------------------------------------------------------------------------------------


 Maximum index for augmentation-charges         2339 (set IRDMAX)


--------------------------------------------------------------------------------------------------------


 First call to EWALD:  gamma=   0.497
 Maximum number of real-space cells 3x 3x 3
 Maximum number of reciprocal cells 3x 3x 3

    FEWALD:  cpu time    0.0007: real time    0.0007


--------------------------------------- Iteration      1(   1)  ---------------------------------------


    POTLOK:  cpu time    0.0295: real time    0.0295
    SETDIJ:  cpu time    0.0977: real time    0.0977
     EDDAV:  cpu time    9.7559: real time    9.7561
       DOS:  cpu time    0.0031: real time    0.0032
    --------------------------------------------
      LOOP:  cpu time    9.8862: real time    9.8866

 eigenvalue-minimisations  : 18048
 total energy-change (2. order) : 0.9124844E+03  (-0.4667530E+04)
 number of electron      68.0000000 magnetization 
 augmentation part       68.0000000 magnetization 

 Free energy of the ion-electron system (eV)
  ---------------------------------------------------
  alpha Z        PSCENC =       638.62965381
  Ewald energy   TEWEN  =    -10702.69788226
  -Hartree energ DENC   =     -5092.24999845
  -exchange      EXHF   =         0.00000000
  -V(xc)+E(xc)   XCENC  =       433.66726524
  PAW double counting   =     12922.79092432   -13518.70815821
  entropy T*S    EENTRO =         0.00035022
  eigenvalues    EBANDS =      -245.49254704
  atomic energy  EATOM  =     16476.54478555
  Solvation  Ediel_sol  =         0.00000000
  ---------------------------------------------------
  free energy    TOTEN  =       912.48439317 eV

  energy without entropy =      912.48404295  energy(sigma->0) =      912.48427643


--------------------------------------------------------------------------------------------------------




--------------------------------------- Iteration      1(   2)  ---------------------------------------


     EDDAV:  cpu time    8.8584: real time    8.8587
       DOS:  cpu time    0.0035: real time    0.0036
    --------------------------------------------
      LOOP:  cpu time    8.8618: real time    8.8622

 eigenvalue-minimisations  : 15976
 total energy-change (2. order) :-0.8725644E+03  (-0.8528493E+03)
 number of electron      68.0000000 magnetization 
 augmentation part       68.0000000 magnetization 

 Free energy of the ion-electron system (eV)
  ---------------------------------------------------
  alpha Z        PSCENC =       638.62965381
  Ewald energy   TEWEN  =    -10702.69788226
  -Hartree energ DENC   =     -5092.24999845
  -exchange      EXHF   =         0.00000000
  -V(xc)+E(xc)   XCENC  =       433.66726524
  PAW double counting   =     12922.79092432   -13518.70815821
  entropy T*S    EENTRO =        -0.00076998
  eigenvalues    EBANDS =     -1118.05585034
  atomic energy  EATOM  =     16476.54478555
  Solvation  Ediel_sol  =         0.00000000
  ---------------------------------------------------
  free energy    TOTEN  =        39.91996967 eV

  energy without entropy =       39.92073965  energy(sigma->0) =       39.92022633


--------------------------------------------------------------------------------------------------------




--------------------------------------- Iteration      1(   3)  ---------------------------------------


     EDDAV:  cpu time    9.4474: real time    9.4476
       DOS:  cpu time    0.0032: real time    0.0033
    --------------------------------------------
      LOOP:  cpu time    9.4506: real time    9.4509

 eigenvalue-minimisations  : 17168
 total energy-change (2. order) :-0.5825756E+02  (-0.5624726E+02)
 number of electron      68.0000000 magnetization 
 augmentation part       68.0000000 magnetization 

 Free energy of the ion-electron system (eV)
  ---------------------------------------------------
  alpha Z        PSCENC =       638.62965381
  Ewald energy   TEWEN  =    -10702.69788226
  -Hartree energ DENC   =     -5092.24999845
  -exchange      EXHF   =         0.00000000
  -V(xc)+E(xc)   XCENC  =       433.66726524
  PAW double counting   =     12922.79092432   -13518.70815821
  entropy T*S    EENTRO =         0.00042555
  eigenvalues    EBANDS =     -1176.31460242
  atomic energy  EATOM  =     16476.54478555
  Solvation  Ediel_sol  =         0.00000000
  ---------------------------------------------------
  free energy    TOTEN  =       -18.33758688 eV

  energy without entropy =      -18.33801243  energy(sigma->0) =      -18.33772873


--------------------------------------------------------------------------------------------------------




--------------------------------------- Iteration      1(   4)  ---------------------------------------


     EDDAV:  cpu time    9.3577: real time    9.3584
       DOS:  cpu time    0.0034: real time    0.0034
    --------------------------------------------
      LOOP:  cpu time    9.3610: real time    9.3619

 eigenvalue-minimisations  : 17096
 total energy-change (2. order) :-0.1420984E+01  (-0.1407006E+01)
 number of electron      68.0000000 magnetization 
 augmentation part       68.0000000 magnetization 

 Free energy of the ion-electron system (eV)
  ---------------------------------------------------
  alpha Z        PSCENC =       638.62965381
  Ewald energy   TEWEN  =    -10702.69788226
  -Hartree energ DENC   =     -5092.24999845
  -exchange      EXHF   =         0.00000000
  -V(xc)+E(xc)   XCENC  =       433.66726524
  PAW double counting   =     12922.79092432   -13518.70815821
  entropy T*S    EENTRO =         0.00002366
  eigenvalues    EBANDS =     -1177.73518475
  atomic energy  EATOM  =     16476.54478555
  Solvation  Ediel_sol  =         0.00000000
  ---------------------------------------------------
  free energy    TOTEN  =       -19.75857110 eV

  energy without entropy =      -19.75859476  energy(sigma->0) =      -19.75857899


--------------------------------------------------------------------------------------------------------




--------------------------------------- Iteration      1(   5)  ---------------------------------------


     EDDAV:  cpu time   10.3323: real time   10.3324
       DOS:  cpu time    0.0034: real time    0.0035
    CHARGE:  cpu time    0.8940: real time    0.8940
    MIXING:  cpu time    0.0009: real time    0.0009
    --------------------------------------------
      LOOP:  cpu time   11.2306: real time   11.2309

 eigenvalue-minimisations  : 19392
 total energy-change (2. order) :-0.4610574E-01  (-0.4611813E-01)
 number of electron      68.0000088 magnetization 
 augmentation part       41.5119585 magnetization 

 Broyden mixing:
  rms(total) = 0.16139E+01    rms(broyden)= 0.16135E+01
  rms(prec ) = 0.37225E+01
  weight for this iteration     100.00

 Free energy of the ion-electron system (eV)
  ---------------------------------------------------
  alpha Z        PSCENC =       638.62965381
  Ewald energy   TEWEN  =    -10702.69788226
  -Hartree energ DENC   =     -5092.24999845
  -exchange      EXHF   =         0.00000000
  -V(xc)+E(xc)   XCENC  =       433.66726524
  PAW double counting   =     12922.79092432   -13518.70815821
  entropy T*S    EENTRO =         0.00000351
  eigenvalues    EBANDS =     -1177.78127034
  atomic energy  EATOM  =     16476.54478555
  Solvation  Ediel_sol  =         0.00000000
  ---------------------------------------------------
  free energy    TOTEN  =       -19.80467684 eV

  energy without entropy =      -19.80468035  energy(sigma->0) =      -19.80467801


--------------------------------------------------------------------------------------------------------




--------------------------------------- Iteration      1(   6)  ---------------------------------------


    POTLOK:  cpu time    0.0239: real time    0.0240
    SETDIJ:  cpu time    0.0961: real time    0.0961
    EDDIAG:  cpu time    2.3235: real time    2.3235
  RMM-DIIS:  cpu time    7.2051: real time    7.2056
    ORTHCH:  cpu time    0.1300: real time    0.1300
       DOS:  cpu time    0.0032: real time    0.0034
    CHARGE:  cpu time    0.8864: real time    0.8864
    MIXING:  cpu time    0.0009: real time    0.0009
    --------------------------------------------
      LOOP:  cpu time   10.6691: real time   10.6701

 eigenvalue-minimisations  : 16020
 total energy-change (2. order) : 0.2024943E+01  (-0.3610104E+01)
 number of electron      68.0000093 magnetization 
 augmentation part       44.5694397 magnetization 

 Broyden mixing:
  rms(total) = 0.10276E+01    rms(broyden)= 0.10273E+01
  rms(prec ) = 0.20347E+01
  weight for this iteration     100.00

 eigenvalues of (default mixing * dielectric matrix)
  average eigenvalue GAMMA=   0.6119
  0.6119

 Free energy of the ion-electron system (eV)
  ---------------------------------------------------
  alpha Z        PSCENC =       638.62965381
  Ewald energy   TEWEN  =    -10702.69788226
  -Hartree energ DENC   =     -4876.24922636
  -exchange      EXHF   =         0.00000000
  -V(xc)+E(xc)   XCENC  =       425.77916653
  PAW double counting   =     12603.55379883   -13184.37836517
  entropy T*S    EENTRO =         0.00438083
  eigenvalues    EBANDS =     -1398.96604526
  atomic energy  EATOM  =     16476.54478555
  Solvation  Ediel_sol  =         0.00000000
  ---------------------------------------------------
  free energy    TOTEN  =       -17.77973351 eV

  energy without entropy =      -17.78411434  energy(sigma->0) =      -17.78119379


--------------------------------------------------------------------------------------------------------




--------------------------------------- Iteration      1(   7)  ---------------------------------------


    POTLOK:  cpu time    0.0227: real time    0.0228
    SETDIJ:  cpu time    0.0958: real time    0.0958
    EDDIAG:  cpu time    2.3492: real time    2.3492
  RMM-DIIS:  cpu time    6.7182: real time    6.7183
    ORTHCH:  cpu time    0.1299: real time    0.1299
       DOS:  cpu time    0.0030: real time    0.0031
    CHARGE:  cpu time    0.8908: real time    0.8908
    MIXING:  cpu time    0.0009: real time    0.0009
    --------------------------------------------
      LOOP:  cpu time   10.2105: real time   10.2109

 eigenvalue-minimisations  : 15712
 total energy-change (2. order) : 0.1418855E+01  (-0.6516734E+00)
 number of electron      68.0000091 magnetization 
 augmentation part       43.3540413 magnetization 

 Broyden mixing:
  rms(total) = 0.12091E+00    rms(broyden)= 0.12066E+00
  rms(prec ) = 0.28466E+00
  weight for this iteration     100.00

 eigenvalues of (default mixing * dielectric matrix)
  average eigenvalue GAMMA=   1.3221
  2.0242  0.6201

 Free energy of the ion-electron system (eV)
[...]
     25       4.7685      2.00000
     26       4.7685      2.00000
     27       4.7685      2.00000
     28       4.7685      2.00000
     29       5.1165      2.00000
     30       5.1165      2.00000
     31       5.1165      2.00000
     32       5.1165      2.00000
     33       7.0839      2.04279
     34       7.0839      2.04279
     35       7.0839      2.04279
     36       7.0839      2.04279
     37      17.4754      0.00000
     38      17.4754      0.00000
     39      17.4754      0.00000
     40      17.4754      0.00000

 k-point   191 :       0.0833    0.5000    0.5000
  band No.  band energies     occupation 
      1     -62.6043      2.00000
      2     -62.6043      2.00000
      3     -62.6043      2.00000
      4     -62.6043      2.00000
      5     -62.5604      2.00000
      6     -62.5604      2.00000
      7     -62.5604      2.00000
      8     -62.5604      2.00000
      9     -62.5304      2.00000
     10     -62.5304      2.00000
     11     -62.5304      2.00000
     12     -62.5304      2.00000
     13       2.4167      2.00000
     14       2.4167      2.00000
     15       2.4167      2.00000
     16       2.4167      2.00000
     17       3.8012      2.00000
     18       3.8012      2.00000
     19       3.8012      2.00000
     20       3.8012      2.00000
     21       3.9487      2.00000
     22       3.9487      2.00000
     23       3.9487      2.00000
     24       3.9487      2.00000
     25       4.6805      2.00000
     26       4.6805      2.00000
     27       4.6805      2.00000
     28       4.6805      2.00000
     29       5.2076      2.00000
     30       5.2076      2.00000
     31       5.2076      2.00000
     32       5.2076      2.00000
     33       7.0706      2.03685
     34       7.0706      2.03685
     35       7.0706      2.03685
     36       7.0706      2.03685
     37      16.2394      0.00000
     38      16.2394      0.00000
     39      16.2394      0.00000
     40      16.2394      0.00000

 k-point   192 :       0.1667    0.5000    0.5000
  band No.  band energies     occupation 
      1     -62.6134      2.00000
      2     -62.6134      2.00000
      3     -62.6134      2.00000
      4     -62.6134      2.00000
      5     -62.5514      2.00000
      6     -62.5514      2.00000
      7     -62.5514      2.00000
      8     -62.5514      2.00000
      9     -62.5304      2.00000
     10     -62.5304      2.00000
     11     -62.5304      2.00000
     12     -62.5304      2.00000
     13       2.3302      2.00000
     14       2.3302      2.00000
     15       2.3302      2.00000
     16       2.3302      2.00000
     17       3.9798      2.00000
     18       3.9798      2.00000
     19       3.9798      2.00000
     20       3.9798      2.00000
     21       4.0806      2.00000
     22       4.0806      2.00000
     23       4.0806      2.00000
     24       4.0806      2.00000
     25       4.5281      2.00000
     26       4.5281      2.00000
     27       4.5281      2.00000
     28       4.5281      2.00000
     29       5.3682      2.00000
     30       5.3682      2.00000
     31       5.3682      2.00000
     32       5.3682      2.00000
     33       7.0249      2.01984
     34       7.0249      2.01984
     35       7.0249      2.01984
     36       7.0249      2.01984
     37      14.7010      0.00000
     38      14.7010      0.00000
     39      14.7010      0.00000
     40      14.7010      0.00000

 k-point   193 :       0.2500    0.5000    0.5000
  band No.  band energies     occupation 
      1     -62.6226      2.00000
      2     -62.6226      2.00000
      3     -62.6226      2.00000
      4     -62.6226      2.00000
      5     -62.5422      2.00000
      6     -62.5422      2.00000
      7     -62.5422      2.00000
      8     -62.5422      2.00000
      9     -62.5307      2.00000
     10     -62.5307      2.00000
     11     -62.5307      2.00000
     12     -62.5307      2.00000
     13       2.2301      2.00000
     14       2.2301      2.00000
     15       2.2301      2.00000
     16       2.2301      2.00000
     17       4.0791      2.00000
     18       4.0791      2.00000
     19       4.0791      2.00000
     20       4.0791      2.00000
     21       4.3854      2.00000
     22       4.3854      2.00000
     23       4.3854      2.00000
     24       4.3854      2.00000
     25       4.4375      2.00000
     26       4.4375      2.00000
     27       4.4375      2.00000
     28       4.4375      2.00000
     29       5.5217      2.00000
     30       5.5217      2.00000
     31       5.5217      2.00000
     32       5.5217      2.00000
     33       6.9295      2.00346
     34       6.9295      2.00346
     35       6.9295      2.00346
     36       6.9295      2.00346
     37      13.3583      0.00000
     38      13.3583      0.00000
     39      13.3583      0.00000
     40      13.3583      0.00000

 k-point   194 :       0.3333    0.5000    0.5000
  band No.  band energies     occupation 
      1     -62.6300      2.00000
      2     -62.6300      2.00000
      3     -62.6300      2.00000
      4     -62.6300      2.00000
      5     -62.5347      2.00000
      6     -62.5347      2.00000
      7     -62.5347      2.00000
      8     -62.5347      2.00000
      9     -62.5307      2.00000
     10     -62.5307      2.00000
     11     -62.5307      2.00000
     12     -62.5307      2.00000
     13       2.1435      2.00000
     14       2.1435      2.00000
     15       2.1435      2.00000
     16       2.1435      2.00000
     17       4.1592      2.00000
     18       4.1592      2.00000
     19       4.1592      2.00000
     20       4.1592      2.00000
     21       4.2743      2.00000
     22       4.2743      2.00000
     23       4.2743      2.00000
     24       4.2743      2.00000
     25       4.9008      2.00000
     26       4.9008      2.00000
     27       4.9008      2.00000
     28       4.9008      2.00000
     29       5.6440      2.00000
     30       5.6440      2.00000
     31       5.6440      2.00000
     32       5.6440      2.00000
     33       6.7554      2.00004
     34       6.7554      2.00004
     35       6.7554      2.00004
     36       6.7554      2.00004
     37      12.3003     -0.00000
     38      12.3003     -0.00000
     39      12.3003     -0.00000
     40      12.3003     -0.00000

 k-point   195 :       0.4167    0.5000    0.5000
  band No.  band energies     occupation 
      1     -62.6344      2.00000
      2     -62.6344      2.00000
      3     -62.6344      2.00000
      4     -62.6344      2.00000
      5     -62.5305      2.00000
      6     -62.5305      2.00000
      7     -62.5305      2.00000
      8     -62.5305      2.00000
      9     -62.5295      2.00000
     10     -62.5295      2.00000
     11     -62.5295      2.00000
     12     -62.5295      2.00000
     13       2.0863      2.00000
     14       2.0863      2.00000
     15       2.0863      2.00000
     16       2.0863      2.00000
     17       4.2043      2.00000
     18       4.2043      2.00000
     19       4.2043      2.00000
     20       4.2043      2.00000
     21       4.2142      2.00000
     22       4.2142      2.00000
     23       4.2142      2.00000
     24       4.2142      2.00000
     25       5.4011      2.00000
     26       5.4011      2.00000
     27       5.4011      2.00000
     28       5.4011      2.00000
     29       5.7225      2.00000
     30       5.7225      2.00000
     31       5.7225      2.00000
     32       5.7225      2.00000
     33       6.4798      2.00000
     34       6.4798      2.00000
     35       6.4798      2.00000
     36       6.4798      2.00000
     37      11.6136     -0.00000
     38      11.6136     -0.00000
     39      11.6136     -0.00000
     40      11.6136     -0.00000

 k-point   196 :       0.5000    0.5000    0.5000
  band No.  band energies     occupation 
      1     -62.6363      2.00000
      2     -62.6363      2.00000
      3     -62.6363      2.00000
      4     -62.6363      2.00000
      5     -62.5305      2.00000
      6     -62.5305      2.00000
      7     -62.5305      2.00000
      8     -62.5305      2.00000
      9     -62.5281      2.00000
     10     -62.5281      2.00000
     11     -62.5281      2.00000
     12     -62.5281      2.00000
     13       2.0663      2.00000
     14       2.0663      2.00000
     15       2.0663      2.00000
     16       2.0663      2.00000
     17       4.1803      2.00000
     18       4.1803      2.00000
     19       4.1803      2.00000
     20       4.1803      2.00000
     21       4.2334      2.00000
     22       4.2334      2.00000
     23       4.2334      2.00000
     24       4.2334      2.00000
     25       5.7281      2.00000
     26       5.7281      2.00000
     27       5.7281      2.00000
     28       5.7281      2.00000
     29       5.7493      2.00000
     30       5.7493      2.00000
     31       5.7493      2.00000
     32       5.7493      2.00000
     33       6.2375      2.00000
     34       6.2375      2.00000
     35       6.2375      2.00000
     36       6.2375      2.00000
     37      11.3745     -0.00000
     38      11.3745     -0.00000
     39      11.3745     -0.00000
     40      11.3745     -0.00000


--------------------------------------------------------------------------------------------------------


 soft charge-density along one line, spin component           1
         0         1         2         3         4         5         6         7         8         9
 total charge-density along one line

 pseudopotential strength for first ion, spin component:           1
-67.055   0.000   0.000  31.456  -0.000  -0.000  -0.000  -0.000
  0.000 -67.055  -0.000  -0.000  31.456   0.000  -0.000  -0.000
  0.000  -0.000 -67.055  -0.000   0.000  31.456  -0.000  -0.000
 31.456  -0.000  -0.000  -8.845   0.000   0.000   0.000   0.000
 -0.000  31.456   0.000   0.000  -8.845  -0.000   0.000   0.000
 -0.000   0.000  31.456   0.000  -0.000  -8.845   0.000   0.000
 -0.000  -0.000  -0.000   0.000   0.000   0.000  -6.332  -0.000
 -0.000  -0.000  -0.000   0.000   0.000   0.000  -0.000  -6.331
  0.000  -0.000   0.000  -0.000   0.000  -0.000  -0.000   0.000
 -0.000  -0.000  -0.000   0.000   0.000   0.000   0.000   0.000
  0.000  -0.000  -0.000  -0.000   0.000   0.000  -0.000  -0.000
  0.000   0.000   0.000  -0.000  -0.000  -0.000  -0.787   0.000
  0.000   0.000   0.000  -0.000  -0.000  -0.000   0.000  -0.788
 -0.000   0.000  -0.000   0.000  -0.000   0.000   0.000  -0.000
  0.000   0.000   0.000  -0.000  -0.000  -0.000  -0.000  -0.000
 -0.000   0.000   0.000   0.000  -0.000  -0.000   0.000   0.000
  0.000   0.000   0.000  -0.000  -0.000  -0.000  -0.000  -0.000
 -0.000  -0.000  -0.000   0.000   0.000   0.000   0.000   0.000
 total augmentation occupancy for first ion, spin component:           1
  2.000   0.000   0.000   0.030   0.000   0.000  -0.000  -0.000   0.000  -0.000   0.000   0.000  -0.000   0.000   0.000   0.000
  0.000   2.000   0.000   0.000   0.030   0.000   0.000   0.000   0.000  -0.000  -0.000  -0.000  -0.000  -0.000   0.000   0.000
  0.000   0.000   2.000   0.000   0.000   0.031   0.000   0.000  -0.000  -0.000   0.000   0.000   0.000  -0.000   0.000   0.000
  0.030   0.000   0.000   0.144   0.000   0.000  -0.000   0.000   0.000  -0.000  -0.000   0.000   0.000   0.000  -0.000   0.000
  0.000   0.030   0.000   0.000   0.144   0.000   0.000  -0.000   0.000   0.000   0.000   0.000  -0.000   0.000   0.000  -0.000
  0.000   0.000   0.031   0.000   0.000   0.144   0.000  -0.000   0.000   0.000  -0.000   0.000  -0.000   0.000   0.000  -0.000
 -0.000   0.000   0.000  -0.000   0.000   0.000   1.898   0.000  -0.000   0.000  -0.000  -0.052  -0.000   0.000  -0.000   0.000
 -0.000   0.000   0.000   0.000  -0.000  -0.000   0.000   1.898   0.000   0.000  -0.000  -0.000  -0.055  -0.000  -0.000   0.000
  0.000   0.000  -0.000  -0.000   0.000   0.000  -0.000   0.000   1.922   0.000  -0.000   0.000   0.000  -0.099   0.000   0.001
 -0.000  -0.000  -0.000  -0.000   0.000   0.000   0.000   0.000   0.000   1.898   0.000  -0.000  -0.000   0.000  -0.052  -0.000
  0.000   0.000   0.000  -0.000  -0.000  -0.000  -0.000  -0.000  -0.000   0.000   1.922   0.000   0.000   0.001  -0.000  -0.100
  0.000  -0.000   0.000   0.000   0.000   0.000  -0.052  -0.000   0.000  -0.000   0.000   0.099   0.000  -0.000   0.000   0.000
 -0.000  -0.000   0.000   0.000  -0.000  -0.000  -0.000  -0.055  -0.000  -0.000   0.000   0.000   0.099   0.000   0.000  -0.000
  0.000   0.000  -0.000   0.000   0.000   0.000   0.000   0.000  -0.099   0.000   0.001  -0.000   0.000   0.094   0.000  -0.000
  0.000   0.000   0.000  -0.000   0.000   0.000  -0.000  -0.000   0.000  -0.052  -0.000   0.000   0.000   0.000   0.099   0.000
  0.000   0.000   0.000   0.000  -0.000  -0.000   0.000   0.000   0.001  -0.000  -0.100   0.000  -0.000  -0.000   0.000   0.094
  0.000   0.000  -0.000   0.000  -0.000  -0.000  -0.000  -0.000  -0.001   0.000   0.001   0.000   0.000  -0.000  -0.000   0.000
  0.000   0.000  -0.000  -0.000  -0.000   0.000   0.000  -0.000  -0.000  -0.000   0.000  -0.000   0.000   0.000  -0.000  -0.000


------------------------ aborting loop because EDIFF is reached ----------------------------------------





 total charge

# of ion       s       p       d       tot
------------------------------------------
    1        0.302   6.205   8.877  15.383
    2        0.302   6.205   8.877  15.383
    3        0.302   6.205   8.877  15.383
    4        0.302   6.205   8.877  15.383
--------------------------------------------------
tot          1.208  24.819  35.507  61.533

    CHARGE:  cpu time    0.9162: real time    0.9162
    FORLOC:  cpu time    0.0012: real time    0.0012
    FORNL :  cpu time    1.9507: real time    1.9507
    STRESS:  cpu time    2.4898: real time    2.4899
    FORCOR:  cpu time    0.0236: real time    0.0236
    FORHAR:  cpu time    0.0065: real time    0.0065
    MIXING:  cpu time    0.0013: real time    0.0013
    OFIELD:  cpu time    0.0000: real time    0.0000

  FORCE on cell =-STRESS in cart. coord.  units (eV):
  Direction    XX          YY          ZZ          XY          YZ          ZX
  --------------------------------------------------------------------------------------
  Alpha Z   638.62965   638.62965   638.62965
  Ewald   -3564.55514 -3569.07372 -3569.07372     0.00000     0.00000     0.00000
  Hartree  1643.99781  1641.64050  1641.64050    -0.00000    -0.00000    -0.00000
  E(xc)    -535.36960  -535.37322  -535.37322     0.00000     0.00000    -0.00000
  Local     575.98110   582.78209   582.78209     0.00000    -0.00000    -0.00000
  n-local  -351.95137  -349.19912  -354.76925     0.49193     0.96503     1.59094
  augment   751.88298   751.86223   751.86223     0.00000    -0.00000     0.00000
  Kinetic   843.43866   848.69894   838.04916    -2.09423    -1.22832    -0.18725
  Fock        0.00000     0.00000     0.00000     0.00000     0.00000     0.00000
  -------------------------------------------------------------------------------------
  Total       2.05409     1.85740     1.85740     0.00000     0.00000     0.00000
  in kB      72.60733    65.65478    65.65478     0.00000     0.00000     0.00000
  external pressure =       67.97 kB  Pullay stress =        0.00 kB


 VOLUME and BASIS-vectors are now :
 -----------------------------------------------------------------------------
  energy-cutoff  :      520.00
  volume of cell :       45.33
      direct lattice vectors                 reciprocal lattice vectors
     3.541656365  0.000000000  0.000000000     0.282353762 -0.000000000  0.000000000
     0.000000000  3.577430672  0.000000000     0.000000000  0.279530225  0.000000000
     0.000000000  0.000000000  3.577430672    -0.000000000 -0.000000000  0.279530225

  length of vectors
     3.541656365  3.577430672  3.577430672     0.282353762  0.279530225  0.279530225


 FORCES acting on ions
    electron-ion (+dipol)            ewald-force                    non-local-force                 convergence-correction
 -----------------------------------------------------------------------------------------------
   -.172E-12 -.135E-12 -.173E-12   -.131E-13 -.206E-13 -.133E-13   0.200E-22 -.662E-23 0.000E+00   -.224E-12 -.297E-12 0.271E-13
   -.219E-12 0.216E-11 0.215E-11   -.123E-13 0.419E-13 0.106E-13   0.429E-23 0.199E-22 -.331E-23   -.132E-12 -.169E-12 0.487E-13
   0.208E-11 -.137E-12 0.308E-10   0.110E-13 -.466E-13 0.196E-13   -.169E-23 0.827E-23 0.000E+00   0.190E-12 -.305E-12 -.139E-13
   0.206E-11 0.149E-10 0.894E-11   0.118E-13 0.159E-13 -.131E-13   -.301E-23 -.124E-23 -.132E-22   0.207E-12 -.177E-12 0.278E-14
 -----------------------------------------------------------------------------------------------
   0.375E-11 0.168E-10 0.417E-10   -.263E-14 -.933E-14 0.384E-14   0.196E-22 0.203E-22 -.165E-22   0.416E-13 -.948E-12 0.646E-13


 POSITION                                       TOTAL-FORCE (eV/Angst)
 -----------------------------------------------------------------------------------
      0.00000      0.00000      0.00000         0.000000     -0.000000      0.000000
      0.00000      1.78872      1.78872        -0.000000      0.000000     -0.000000
      1.77083      0.00000      1.78872         0.000000      0.000000     -0.000000
      1.77083      1.78872      0.00000        -0.000000      0.000000     -0.000000
 -----------------------------------------------------------------------------------
    total drift:                                0.000000      0.000000      0.000000


--------------------------------------------------------------------------------------------------------



  FREE ENERGIE OF THE ION-ELECTRON SYSTEM (eV)
  ---------------------------------------------------
  free  energy   TOTEN  =       -16.32356602 eV

  energy  without entropy=      -16.32630169  energy(sigma->0) =      -16.32447791



--------------------------------------------------------------------------------------------------------


    POTLOK:  cpu time    0.1192: real time    0.1192


--------------------------------------------------------------------------------------------------------


 stress matrix after NEB project (eV)
      2.05409      0.00000      0.00000
      0.00000      1.85740      0.00000
      0.00000      0.00000      1.85740
  FORCES: max atom, RMS     0.000000    0.000000
  FORCE total and by dimension    0.000000    0.000000
  Stress total and by dimension    3.334534    2.054087
     LOOP+:  cpu time  195.8657: real time  195.8825
    4ORBIT:  cpu time    0.0000: real time    0.0000



 total charge

# of ion       s       p       d       tot
------------------------------------------
    1        0.302   6.205   8.877  15.383
    2        0.302   6.205   8.877  15.383
    3        0.302   6.205   8.877  15.383
    4        0.302   6.205   8.877  15.383
--------------------------------------------------
tot          1.208  24.819  35.507  61.533


 total amount of memory used by VASP MPI-rank0   111427. kBytes
=======================================================================

   base      :      30000. kBytes
   nonl-proj :      35303. kBytes
   fftplans  :       1619. kBytes
   grid      :       3048. kBytes
   one-center:         62. kBytes
   wavefun   :      41395. kBytes

  
  
 General timing and accounting informations for this job:
 ========================================================
  
                  Total CPU time used (sec):      197.826
                            User time (sec):      197.218
                          System time (sec):        0.608
                         Elapsed time (sec):      197.927
  
                   Maximum memory used (kb):      116296.
                   Average memory used (kb):          N/A
  
                          Minor page faults:       186967
                          Major page faults:          780
                 Voluntary context switches:          957
