   1   1   1   0
  0.1658294E+02  0.2862368E-09  0.2862368E-09  0.2862368E-09  0.5000000E-15
   1.0000000000000000E-004
  CAR 
 unknown system                          
    116.96799751     -8.87274123  301      8.00271762      1.00000000
     -8.873  0.0000E+00  0.0000E+00  0.0000E+00  0.0000E+00
     -8.453  0.0000E+00  0.0000E+00  0.0000E+00  0.0000E+00
     -8.034  0.0000E+00  0.0000E+00  0.0000E+00  0.0000E+00
     -7.614  0.0000E+00  0.0000E+00  0.0000E+00  0.0000E+00
     -7.195  0.0000E+00  0.0000E+00  0.0000E+00  0.0000E+00
     -6.775  0.0000E+00  0.0000E+00  0.0000E+00  0.0000E+00
     -6.356  0.0000E+00  0.0000E+00  0.0000E+00  0.0000E+00
     -5.936  0.0000E+00  0.0000E+00  0.0000E+00  0.0000E+00
     -5.517  0.0000E+00  0.0000E+00  0.0000E+00  0.0000E+00
     -5.098  0.0000E+00  0.0000E+00  0.0000E+00  0.0000E+00
     -4.678  0.0000E+00  0.0000E+00  0.0000E+00  0.0000E+00
     -4.259  0.0000E+00  0.0000E+00  0.0000E+00  0.0000E+00
     -3.839  0.0000E+00  0.0000E+00  0.0000E+00  0.0000E+00
     -3.420  0.0000E+00  0.0000E+00  0.0000E+00  0.0000E+00
     -3.000  0.1370E-01  0.1403E-01  0.6880E-03  0.7135E-03
     -2.581  0.4142E-01  0.4153E-01  0.1336E-01  0.1344E-01
     -2.161  0.5473E-01  0.5479E-01  0.3395E-01  0.3406E-01
     -1.742  0.6953E-01  0.6960E-01  0.5996E-01  0.6009E-01
     -1.322  0.7716E-01  0.7719E-01  0.9058E-01  0.9073E-01
     -0.903  0.8734E-01  0.8739E-01  0.1250E+00  0.1252E+00
     -0.483  0.9533E-01  0.9536E-01  0.1636E+00  0.1638E+00
     -0.064  0.1027E+00  0.1027E+00  0.2051E+00  0.2053E+00
      0.356  0.1108E+00  0.1108E+00  0.2499E+00  0.2501E+00
      0.775  0.1181E+00  0.1181E+00  0.2980E+00  0.2982E+00
      1.195  0.1240E+00  0.1240E+00  0.3487E+00  0.3490E+00
      1.614  0.1308E+00  0.1308E+00  0.4022E+00  0.4024E+00
      2.033  0.1383E+00  0.1383E+00  0.4585E+00  0.4588E+00
      2.453  0.1501E+00  0.1501E+00  0.5187E+00  0.5189E+00
      2.872  0.1634E+00  0.1635E+00  0.5847E+00  0.5850E+00
      3.292  0.1709E+00  0.1708E+00  0.6604E+00  0.6607E+00
      3.711  0.1472E+00  0.1471E+00  0.7252E+00  0.7254E+00
      4.131  0.1572E+00  0.1572E+00  0.7887E+00  0.7890E+00
      4.550  0.1894E+00  0.1892E+00  0.8594E+00  0.8597E+00
      4.970  0.1881E+00  0.1881E+00  0.9365E+00  0.9368E+00
      5.389  0.1817E+00  0.1817E+00  0.1018E+01  0.1018E+01
      5.809  0.1503E+00  0.1502E+00  0.1089E+01  0.1089E+01
      6.228  0.1433E+00  0.1434E+00  0.1148E+01  0.1149E+01
      6.648  0.2128E+00  0.2129E+00  0.1232E+01  0.1233E+01
      7.067  0.2097E+00  0.2098E+00  0.1324E+01  0.1325E+01
      7.487  0.1921E+00  0.1921E+00  0.1406E+01  0.1407E+01
      7.906  0.1706E+00  0.1705E+00  0.1484E+01  0.1484E+01
      8.325  0.2003E+00  0.2006E+00  0.1557E+01  0.1557E+01
      8.745  0.2500E+00  0.2502E+00  0.1655E+01  0.1655E+01
      9.164  0.2049E+00  0.2049E+00  0.1747E+01  0.1747E+01
      9.584  0.2119E+00  0.2120E+00  0.1834E+01  0.1834E+01
     10.003  0.2008E+00  0.2008E+00  0.1921E+01  0.1921E+01
     10.423  0.2338E+00  0.2339E+00  0.2017E+01  0.2018E+01
     10.842  0.2429E+00  0.2430E+00  0.2114E+01  0.2114E+01
     11.262  0.2395E+00  0.2394E+00  0.2218E+01  0.2219E+01
     11.681  0.2338E+00  0.2338E+00  0.2317E+01  0.2317E+01
     12.101  0.2411E+00  0.2412E+00  0.2417E+01  0.2418E+01
     12.520  0.2636E+00  0.2636E+00  0.2525E+01  0.2526E+01
     12.940  0.2796E+00  0.2797E+00  0.2639E+01  0.2639E+01
     13.359  0.2923E+00  0.2924E+00  0.2758E+01  0.2759E+01
     13.779  0.3038E+00  0.3039E+00  0.2885E+01  0.2886E+01
     14.198  0.2819E+00  0.2819E+00  0.3008E+01  0.3008E+01
     14.618  0.2746E+00  0.2746E+00  0.3124E+01  0.3125E+01
     15.037  0.2668E+00  0.2667E+00  0.3238E+01  0.3239E+01
     15.456  0.2607E+00  0.2607E+00  0.3348E+01  0.3349E+01
     15.876  0.2671E+00  0.2672E+00  0.3458E+01  0.3459E+01
     16.295  0.2634E+00  0.2633E+00  0.3570E+01  0.3571E+01
     16.715  0.2578E+00  0.2578E+00  0.3679E+01  0.3680E+01
     17.134  0.2565E+00  0.2565E+00  0.3787E+01  0.3788E+01
     17.554  0.2669E+00  0.2670E+00  0.3896E+01  0.3897E+01
     17.973  0.2779E+00  0.2780E+00  0.4011E+01  0.4012E+01
     18.393  0.2914E+00  0.2916E+00  0.4130E+01  0.4131E+01
     18.812  0.3103E+00  0.3102E+00  0.4258E+01  0.4259E+01
     19.232  0.3346E+00  0.3350E+00  0.4390E+01  0.4391E+01
     19.651  0.3888E+00  0.3887E+00  0.4544E+01  0.4545E+01
     20.071  0.3917E+00  0.3917E+00  0.4708E+01  0.4709E+01
     20.490  0.3391E+00  0.3377E+00  0.4873E+01  0.4874E+01
     20.910  0.2633E+00  0.2633E+00  0.4993E+01  0.4993E+01
     21.329  0.3189E+00  0.3218E+00  0.5102E+01  0.5103E+01
     21.749  0.2681E+00  0.2682E+00  0.5219E+01  0.5220E+01
     22.168  0.2549E+00  0.2551E+00  0.5327E+01  0.5327E+01
     22.587  0.3808E+00  0.3811E+00  0.5463E+01  0.5464E+01
     23.007  0.4317E+00  0.4318E+00  0.5634E+01  0.5636E+01
     23.426  0.3231E+00  0.3216E+00  0.5795E+01  0.5796E+01
     23.846  0.2910E+00  0.2920E+00  0.5915E+01  0.5916E+01
     24.265  0.3051E+00  0.3050E+00  0.6046E+01  0.6047E+01
     24.685  0.2986E+00  0.2987E+00  0.6172E+01  0.6173E+01
     25.104  0.3672E+00  0.3679E+00  0.6308E+01  0.6309E+01
     25.524  0.4554E+00  0.4555E+00  0.6484E+01  0.6485E+01
     25.943  0.4215E+00  0.4210E+00  0.6669E+01  0.6671E+01
     26.363  0.4006E+00  0.4009E+00  0.6838E+01  0.6840E+01
     26.782  0.3342E+00  0.3339E+00  0.6997E+01  0.6998E+01
     27.202  0.3196E+00  0.3193E+00  0.7136E+01  0.7137E+01
     27.621  0.2912E+00  0.2909E+00  0.7266E+01  0.7267E+01
     28.041  0.2928E+00  0.2935E+00  0.7386E+01  0.7387E+01
     28.460  0.4331E+00  0.4374E+00  0.7533E+01  0.7535E+01
     28.879  0.4083E+00  0.4053E+00  0.7736E+01  0.7738E+01
     29.299  0.5070E+00  0.5058E+00  0.7918E+01  0.7920E+01
     29.718  0.4231E+00  0.4230E+00  0.8105E+01  0.8106E+01
     30.138  0.4066E+00  0.4064E+00  0.8280E+01  0.8281E+01
     30.557  0.3501E+00  0.3498E+00  0.8438E+01  0.8439E+01
     30.977  0.3512E+00  0.3516E+00  0.8582E+01  0.8583E+01
     31.396  0.3981E+00  0.3982E+00  0.8739E+01  0.8741E+01
     31.816  0.4164E+00  0.4172E+00  0.8907E+01  0.8909E+01
     32.235  0.5438E+00  0.5422E+00  0.9135E+01  0.9137E+01
     32.655  0.4006E+00  0.4002E+00  0.9317E+01  0.9319E+01
     33.074  0.3575E+00  0.3552E+00  0.9482E+01  0.9483E+01
     33.494  0.3114E+00  0.3107E+00  0.9621E+01  0.9622E+01
     33.913  0.2551E+00  0.2547E+00  0.9737E+01  0.9738E+01
     34.333  0.2916E+00  0.2909E+00  0.9849E+01  0.9851E+01
     34.752  0.1841E+00  0.1839E+00  0.9944E+01  0.9945E+01
     35.172  0.1672E+00  0.1672E+00  0.1002E+02  0.1002E+02
     35.591  0.1717E+00  0.1718E+00  0.1009E+02  0.1009E+02
     36.010  0.1931E+00  0.1932E+00  0.1016E+02  0.1016E+02
     36.430  0.2469E+00  0.2469E+00  0.1025E+02  0.1025E+02
     36.849  0.2455E+00  0.2456E+00  0.1035E+02  0.1035E+02
     37.269  0.2640E+00  0.2640E+00  0.1046E+02  0.1046E+02
     37.688  0.2902E+00  0.2902E+00  0.1057E+02  0.1058E+02
     38.108  0.3999E+00  0.4000E+00  0.1072E+02  0.1072E+02
     38.527  0.3944E+00  0.3944E+00  0.1088E+02  0.1088E+02
     38.947  0.3128E+00  0.3124E+00  0.1102E+02  0.1102E+02
     39.366  0.3782E+00  0.3785E+00  0.1116E+02  0.1116E+02
     39.786  0.5361E+00  0.5372E+00  0.1135E+02  0.1135E+02
     40.205  0.4947E+00  0.4946E+00  0.1157E+02  0.1157E+02
     40.625  0.4285E+00  0.4286E+00  0.1175E+02  0.1175E+02
     41.044  0.4552E+00  0.4556E+00  0.1193E+02  0.1194E+02
     41.464  0.6662E+00  0.6674E+00  0.1215E+02  0.1216E+02
     41.883  0.4762E+00  0.4763E+00  0.1238E+02  0.1238E+02
     42.302  0.5145E+00  0.5131E+00  0.1259E+02  0.1260E+02
     42.722  0.4708E+00  0.4740E+00  0.1277E+02  0.1277E+02
     43.141  0.4378E+00  0.4372E+00  0.1300E+02  0.1300E+02
     43.561  0.4362E+00  0.4371E+00  0.1317E+02  0.1317E+02
     43.980  0.5054E+00  0.5055E+00  0.1337E+02  0.1337E+02
     44.400  0.4342E+00  0.4339E+00  0.1357E+02  0.1357E+02
     44.819  0.3911E+00  0.3907E+00  0.1374E+02  0.1374E+02
     45.239  0.3880E+00  0.3885E+00  0.1390E+02  0.1390E+02
     45.658  0.5026E+00  0.5031E+00  0.1408E+02  0.1409E+02
     46.078  0.5746E+00  0.5747E+00  0.1431E+02  0.1432E+02
     46.497  0.5451E+00  0.5449E+00  0.1455E+02  0.1455E+02
     46.917  0.4369E+00  0.4365E+00  0.1476E+02  0.1476E+02
     47.336  0.4240E+00  0.4247E+00  0.1493E+02  0.1493E+02
     47.756  0.4568E+00  0.4565E+00  0.1513E+02  0.1513E+02
     48.175  0.4613E+00  0.4615E+00  0.1532E+02  0.1532E+02
     48.595  0.5501E+00  0.5506E+00  0.1552E+02  0.1552E+02
     49.014  0.4553E+00  0.4549E+00  0.1574E+02  0.1575E+02
     49.433  0.4038E+00  0.4057E+00  0.1591E+02  0.1592E+02
     49.853  0.6509E+00  0.6578E+00  0.1612E+02  0.1613E+02
     50.272  0.3153E+00  0.3154E+00  0.1627E+02  0.1627E+02
     50.692  0.3841E+00  0.3847E+00  0.1641E+02  0.1641E+02
     51.111  0.5394E+00  0.5404E+00  0.1660E+02  0.1660E+02
     51.531  0.6412E+00  0.6412E+00  0.1685E+02  0.1685E+02
     51.950  0.4411E+00  0.4418E+00  0.1708E+02  0.1708E+02
     52.370  0.3875E+00  0.3878E+00  0.1725E+02  0.1725E+02
     52.789  0.4635E+00  0.4639E+00  0.1743E+02  0.1743E+02
     53.209  0.7035E+00  0.7033E+00  0.1769E+02  0.1770E+02
     53.628  0.9068E+00  0.9077E+00  0.1801E+02  0.1801E+02
     54.048  0.9436E+00  0.9421E+00  0.1844E+02  0.1844E+02
     54.467  0.8119E+00  0.8137E+00  0.1876E+02  0.1876E+02
     54.887  0.9046E+00  0.9045E+00  0.1912E+02  0.1913E+02
     55.306  0.1034E+01  0.1033E+01  0.1954E+02  0.1954E+02
     55.726  0.9050E+00  0.9047E+00  0.1991E+02  0.1992E+02
     56.145  0.1297E+01  0.1301E+01  0.2036E+02  0.2036E+02
     56.564  0.1221E+01  0.1215E+01  0.2104E+02  0.2104E+02
     56.984  0.1101E+01  0.1104E+01  0.2147E+02  0.2148E+02
     57.403  0.1017E+01  0.1023E+01  0.2194E+02  0.2195E+02
     57.823  0.8309E+00  0.8302E+00  0.2234E+02  0.2234E+02
     58.242  0.6141E+00  0.6147E+00  0.2262E+02  0.2262E+02
     58.662  0.6093E+00  0.6101E+00  0.2287E+02  0.2287E+02
     59.081  0.9110E+00  0.9126E+00  0.2319E+02  0.2319E+02
     59.501  0.9807E+00  0.9809E+00  0.2356E+02  0.2356E+02
     59.920  0.6418E+00  0.6560E+00  0.2389E+02  0.2389E+02
     60.340  0.4772E+00  0.4773E+00  0.2411E+02  0.2411E+02
     60.759  0.5489E+00  0.5491E+00  0.2432E+02  0.2432E+02
     61.179  0.6312E+00  0.6311E+00  0.2457E+02  0.2457E+02
     61.598  0.6980E+00  0.6982E+00  0.2485E+02  0.2485E+02
     62.018  0.5839E+00  0.5830E+00  0.2514E+02  0.2515E+02
     62.437  0.4771E+00  0.4769E+00  0.2535E+02  0.2535E+02
     62.856  0.5314E+00  0.5334E+00  0.2556E+02  0.2556E+02
     63.276  0.5731E+00  0.5724E+00  0.2580E+02  0.2580E+02
     63.695  0.5311E+00  0.5306E+00  0.2604E+02  0.2604E+02
     64.115  0.4872E+00  0.4873E+00  0.2625E+02  0.2625E+02
     64.534  0.5285E+00  0.5287E+00  0.2646E+02  0.2646E+02
     64.954  0.5973E+00  0.5968E+00  0.2671E+02  0.2672E+02
     65.373  0.4471E+00  0.4468E+00  0.2692E+02  0.2692E+02
     65.793  0.4695E+00  0.4697E+00  0.2711E+02  0.2711E+02
     66.212  0.5088E+00  0.5087E+00  0.2732E+02  0.2732E+02
     66.632  0.4808E+00  0.4805E+00  0.2753E+02  0.2753E+02
     67.051  0.3843E+00  0.3842E+00  0.2771E+02  0.2771E+02
     67.471  0.3908E+00  0.3909E+00  0.2787E+02  0.2787E+02
     67.890  0.3920E+00  0.3920E+00  0.2803E+02  0.2803E+02
     68.310  0.4340E+00  0.4342E+00  0.2820E+02  0.2820E+02
     68.729  0.5815E+00  0.5812E+00  0.2841E+02  0.2842E+02
     69.149  0.5299E+00  0.5295E+00  0.2865E+02  0.2865E+02
     69.568  0.4925E+00  0.4921E+00  0.2886E+02  0.2886E+02
     69.987  0.4739E+00  0.4739E+00  0.2906E+02  0.2906E+02
     70.407  0.5330E+00  0.5327E+00  0.2926E+02  0.2926E+02
     70.826  0.5011E+00  0.5012E+00  0.2947E+02  0.2947E+02
     71.246  0.5220E+00  0.5222E+00  0.2969E+02  0.2969E+02
     71.665  0.5299E+00  0.5300E+00  0.2991E+02  0.2991E+02
     72.085  0.5175E+00  0.5173E+00  0.3013E+02  0.3013E+02
     72.504  0.4655E+00  0.4650E+00  0.3034E+02  0.3034E+02
     72.924  0.4133E+00  0.4131E+00  0.3052E+02  0.3052E+02
     73.343  0.3693E+00  0.3690E+00  0.3069E+02  0.3069E+02
     73.763  0.4253E+00  0.4251E+00  0.3087E+02  0.3087E+02
     74.182  0.3928E+00  0.3928E+00  0.3103E+02  0.3103E+02
     74.602  0.4007E+00  0.4010E+00  0.3120E+02  0.3120E+02
     75.021  0.5162E+00  0.5156E+00  0.3141E+02  0.3141E+02
     75.441  0.4641E+00  0.4643E+00  0.3161E+02  0.3161E+02
     75.860  0.4802E+00  0.4805E+00  0.3180E+02  0.3180E+02
     76.279  0.7160E+00  0.7151E+00  0.3205E+02  0.3205E+02
     76.699  0.5563E+00  0.5568E+00  0.3229E+02  0.3229E+02
     77.118  0.4560E+00  0.4552E+00  0.3252E+02  0.3252E+02
     77.538  0.4343E+00  0.4345E+00  0.3269E+02  0.3270E+02
     77.957  0.6511E+00  0.6527E+00  0.3291E+02  0.3291E+02
     78.377  0.6690E+00  0.6683E+00  0.3319E+02  0.3319E+02
     78.796  0.5489E+00  0.5484E+00  0.3343E+02  0.3343E+02
     79.216  0.5001E+00  0.4979E+00  0.3368E+02  0.3368E+02
     79.635  0.4573E+00  0.4581E+00  0.3386E+02  0.3387E+02
     80.055  0.4861E+00  0.4851E+00  0.3407E+02  0.3407E+02
     80.474  0.5046E+00  0.5051E+00  0.3426E+02  0.3426E+02
     80.894  0.5748E+00  0.5750E+00  0.3449E+02  0.3449E+02
     81.313  0.6272E+00  0.6274E+00  0.3474E+02  0.3474E+02
     81.733  0.6618E+00  0.6611E+00  0.3502E+02  0.3502E+02
     82.152  0.6210E+00  0.6199E+00  0.3529E+02  0.3529E+02
     82.572  0.5480E+00  0.5479E+00  0.3553E+02  0.3553E+02
     82.991  0.5014E+00  0.5015E+00  0.3575E+02  0.3576E+02
     83.410  0.6553E+00  0.6553E+00  0.3599E+02  0.3599E+02
     83.830  0.6548E+00  0.6547E+00  0.3625E+02  0.3625E+02
     84.249  0.5937E+00  0.5934E+00  0.3653E+02  0.3653E+02
     84.669  0.4932E+00  0.4928E+00  0.3675E+02  0.3675E+02
     85.088  0.3752E+00  0.3749E+00  0.3693E+02  0.3694E+02
     85.508  0.3935E+00  0.3937E+00  0.3709E+02  0.3709E+02
     85.927  0.4681E+00  0.4683E+00  0.3727E+02  0.3727E+02
     86.347  0.4782E+00  0.4784E+00  0.3747E+02  0.3747E+02
     86.766  0.4724E+00  0.4726E+00  0.3767E+02  0.3767E+02
     87.186  0.5732E+00  0.5737E+00  0.3788E+02  0.3788E+02
     87.605  0.5690E+00  0.5685E+00  0.3812E+02  0.3812E+02
     88.025  0.5899E+00  0.5896E+00  0.3837E+02  0.3837E+02
     88.444  0.7540E+00  0.7593E+00  0.3864E+02  0.3864E+02
     88.864  0.7209E+00  0.7192E+00  0.3897E+02  0.3897E+02
     89.283  0.5145E+00  0.5146E+00  0.3921E+02  0.3921E+02
     89.703  0.5857E+00  0.5861E+00  0.3944E+02  0.3944E+02
     90.122  0.6605E+00  0.6594E+00  0.3971E+02  0.3971E+02
     90.541  0.4978E+00  0.4973E+00  0.3995E+02  0.3995E+02
     90.961  0.5109E+00  0.5103E+00  0.4016E+02  0.4016E+02
     91.380  0.4583E+00  0.4583E+00  0.4035E+02  0.4035E+02
     91.800  0.5114E+00  0.5116E+00  0.4056E+02  0.4056E+02
     92.219  0.5322E+00  0.5329E+00  0.4077E+02  0.4077E+02
     92.639  0.6203E+00  0.6203E+00  0.4102E+02  0.4102E+02
     93.058  0.5297E+00  0.5292E+00  0.4126E+02  0.4127E+02
     93.478  0.4018E+00  0.4016E+00  0.4145E+02  0.4145E+02
     93.897  0.4276E+00  0.4279E+00  0.4162E+02  0.4162E+02
     94.317  0.6628E+00  0.6642E+00  0.4184E+02  0.4184E+02
     94.736  0.6689E+00  0.6686E+00  0.4213E+02  0.4213E+02
     95.156  0.6270E+00  0.6335E+00  0.4239E+02  0.4239E+02
     95.575  0.6140E+00  0.6141E+00  0.4265E+02  0.4265E+02
     95.995  0.7376E+00  0.7382E+00  0.4293E+02  0.4293E+02
     96.414  0.6976E+00  0.6981E+00  0.4323E+02  0.4323E+02
     96.833  0.6137E+00  0.6137E+00  0.4351E+02  0.4351E+02
     97.253  0.6137E+00  0.6148E+00  0.4376E+02  0.4376E+02
     97.672  0.5871E+00  0.5868E+00  0.4402E+02  0.4402E+02
     98.092  0.4329E+00  0.4329E+00  0.4423E+02  0.4423E+02
     98.511  0.4270E+00  0.4269E+00  0.4441E+02  0.4441E+02
     98.931  0.4513E+00  0.4520E+00  0.4459E+02  0.4459E+02
     99.350  0.5315E+00  0.5315E+00  0.4480E+02  0.4480E+02
     99.770  0.6355E+00  0.6360E+00  0.4504E+02  0.4504E+02
    100.189  0.6515E+00  0.6515E+00  0.4532E+02  0.4532E+02
    100.609  0.6579E+00  0.6578E+00  0.4560E+02  0.4560E+02
    101.028  0.5605E+00  0.5594E+00  0.4586E+02  0.4586E+02
    101.448  0.5099E+00  0.5098E+00  0.4609E+02  0.4609E+02
    101.867  0.5064E+00  0.5065E+00  0.4630E+02  0.4630E+02
    102.287  0.4779E+00  0.4777E+00  0.4651E+02  0.4651E+02
    102.706  0.5367E+00  0.5369E+00  0.4672E+02  0.4672E+02
    103.126  0.4979E+00  0.4985E+00  0.4694E+02  0.4694E+02
    103.545  0.4490E+00  0.4484E+00  0.4714E+02  0.4714E+02
    103.964  0.3728E+00  0.3729E+00  0.4731E+02  0.4731E+02
    104.384  0.4315E+00  0.4319E+00  0.4747E+02  0.4747E+02
    104.803  0.3797E+00  0.3794E+00  0.4764E+02  0.4765E+02
    105.223  0.3044E+00  0.3040E+00  0.4779E+02  0.4779E+02
    105.642  0.2006E+00  0.2001E+00  0.4790E+02  0.4790E+02
    106.062  0.6092E-01  0.6027E-01  0.4795E+02  0.4795E+02
    106.481  0.3540E-01  0.3530E-01  0.4797E+02  0.4797E+02
    106.901  0.1423E-01  0.1422E-01  0.4798E+02  0.4798E+02
    107.320  0.1116E-01  0.1114E-01  0.4798E+02  0.4798E+02
    107.740  0.8620E-02  0.8606E-02  0.4799E+02  0.4799E+02
    108.159  0.6614E-02  0.6603E-02  0.4799E+02  0.4799E+02
    108.579  0.5143E-02  0.5135E-02  0.4799E+02  0.4799E+02
    108.998  0.4137E-02  0.4131E-02  0.4800E+02  0.4800E+02
    109.418  0.3240E-02  0.3234E-02  0.4800E+02  0.4800E+02
    109.837  0.2401E-02  0.2394E-02  0.4800E+02  0.4800E+02
    110.256  0.1619E-02  0.1612E-02  0.4800E+02  0.4800E+02
    110.676  0.8950E-03  0.8883E-03  0.4800E+02  0.4800E+02
    111.095  0.2282E-03  0.2219E-03  0.4800E+02  0.4800E+02
    111.515  0.0000E+00  0.0000E+00  0.4800E+02  0.4800E+02
    111.934  0.0000E+00  0.0000E+00  0.4800E+02  0.4800E+02
    112.354  0.0000E+00  0.0000E+00  0.4800E+02  0.4800E+02
    112.773  0.0000E+00  0.0000E+00  0.4800E+02  0.4800E+02
    113.193  0.0000E+00  0.0000E+00  0.4800E+02  0.4800E+02
    113.612  0.0000E+00  0.0000E+00  0.4800E+02  0.4800E+02
    114.032  0.0000E+00  0.0000E+00  0.4800E+02  0.4800E+02
    114.451  0.0000E+00  0.0000E+00  0.4800E+02  0.4800E+02
    114.871  0.0000E+00  0.0000E+00  0.4800E+02  0.4800E+02
    115.290  0.0000E+00  0.0000E+00  0.4800E+02  0.4800E+02
    115.710  0.0000E+00  0.0000E+00  0.4800E+02  0.4800E+02
    116.129  0.0000E+00  0.0000E+00  0.4800E+02  0.4800E+02
    116.549  0.0000E+00  0.0000E+00  0.4800E+02  0.4800E+02
    116.968  0.0000E+00  0.0000E+00  0.4800E+02  0.4800E+02
    116.96799751     -8.87274123  301      8.00271762      1.00000000
     -8.873  0.0000E+00  0.0000E+00  0.0000E+00  0.0000E+00  0.0000E+00  0.0000E+00  0.0000E+00  0.0000E+00  0.0000E+00  0.0000E+00  0.0000E+00  0.0000E+00  0.0000E+00  0.0000E+00  0.0000E+00  0.0000E+00  0.0000E+00  0.0000E+00
     -8.453  0.0000E+00  0.0000E+00  0.0000E+00  0.0000E+00  0.0000E+00  0.0000E+00  0.0000E+00  0.0000E+00  0.0000E+00  0.0000E+00  0.0000E+00  0.0000E+00  0.0000E+00  0.0000E+00  0.0000E+00  0.0000E+00  0.0000E+00  0.0000E+00
     -8.034  0.0000E+00  0.0000E+00  0.0000E+00  0.0000E+00  0.0000E+00  0.0000E+00  0.0000E+00  0.0000E+00  0.0000E+00  0.0000E+00  0.0000E+00  0.0000E+00  0.0000E+00  0.0000E+00  0.0000E+00  0.0000E+00  0.0000E+00  0.0000E+00
     -7.614  0.0000E+00  0.0000E+00  0.0000E+00  0.0000E+00  0.0000E+00  0.0000E+00  0.0000E+00  0.0000E+00  0.0000E+00  0.0000E+00  0.0000E+00  0.0000E+00  0.0000E+00  0.0000E+00  0.0000E+00  0.0000E+00  0.0000E+00  0.0000E+00
     -7.195  0.0000E+00  0.0000E+00  0.0000E+00  0.0000E+00  0.0000E+00  0.0000E+00  0.0000E+00  0.0000E+00  0.0000E+00  0.0000E+00  0.0000E+00  0.0000E+00  0.0000E+00  0.0000E+00  0.0000E+00  0.0000E+00  0.0000E+00  0.0000E+00
     -6.775  0.0000E+00  0.0000E+00  0.0000E+00  0.0000E+00  0.0000E+00  0.0000E+00  0.0000E+00  0.0000E+00  0.0000E+00  0.0000E+00  0.0000E+00  0.0000E+00  0.0000E+00  0.0000E+00  0.0000E+00  0.0000E+00  0.0000E+00  0.0000E+00
     -6.356  0.0000E+00  0.0000E+00  0.0000E+00  0.0000E+00  0.0000E+00  0.0000E+00  0.0000E+00  0.0000E+00  0.0000E+00  0.0000E+00  0.0000E+00  0.0000E+00  0.0000E+00  0.0000E+00  0.0000E+00  0.0000E+00  0.0000E+00  0.0000E+00
     -5.936  0.0000E+00  0.0000E+00  0.0000E+00  0.0000E+00  0.0000E+00  0.0000E+00  0.0000E+00  0.0000E+00  0.0000E+00  0.0000E+00  0.0000E+00  0.0000E+00  0.0000E+00  0.0000E+00  0.0000E+00  0.0000E+00  0.0000E+00  0.0000E+00
     -5.517  0.0000E+00  0.0000E+00  0.0000E+00  0.0000E+00  0.0000E+00  0.0000E+00  0.0000E+00  0.0000E+00  0.0000E+00  0.0000E+00  0.0000E+00  0.0000E+00  0.0000E+00  0.0000E+00  0.0000E+00  0.0000E+00  0.0000E+00  0.0000E+00
     -5.098  0.0000E+00  0.0000E+00  0.0000E+00  0.0000E+00  0.0000E+00  0.0000E+00  0.0000E+00  0.0000E+00  0.0000E+00  0.0000E+00  0.0000E+00  0.0000E+00  0.0000E+00  0.0000E+00  0.0000E+00  0.0000E+00  0.0000E+00  0.0000E+00
     -4.678  0.0000E+00  0.0000E+00  0.0000E+00  0.0000E+00  0.0000E+00  0.0000E+00  0.0000E+00  0.0000E+00  0.0000E+00  0.0000E+00  0.0000E+00  0.0000E+00  0.0000E+00  0.0000E+00  0.0000E+00  0.0000E+00  0.0000E+00  0.0000E+00
     -4.259  0.0000E+00  0.0000E+00  0.0000E+00  0.0000E+00  0.0000E+00  0.0000E+00  0.0000E+00  0.0000E+00  0.0000E+00  0.0000E+00  0.0000E+00  0.0000E+00  0.0000E+00  0.0000E+00  0.0000E+00  0.0000E+00  0.0000E+00  0.0000E+00
     -3.839  0.0000E+00  0.0000E+00  0.0000E+00  0.0000E+00  0.0000E+00  0.0000E+00  0.0000E+00  0.0000E+00  0.0000E+00  0.0000E+00  0.0000E+00  0.0000E+00  0.0000E+00  0.0000E+00  0.0000E+00  0.0000E+00  0.0000E+00  0.0000E+00
     -3.420  0.0000E+00  0.0000E+00  0.0000E+00  0.0000E+00  0.0000E+00  0.0000E+00  0.0000E+00  0.0000E+00  0.0000E+00  0.0000E+00  0.0000E+00  0.0000E+00  0.0000E+00  0.0000E+00  0.0000E+00  0.0000E+00  0.0000E+00  0.0000E+00
     -3.000  0.3637E-02  0.3729E-02  0.1726E-04  0.1769E-04  0.1726E-04  0.1769E-04  0.1726E-04  0.1769E-04  0.0000E+00  0.0000E+00  0.0000E+00  0.0000E+00  0.0000E+00  0.0000E+00  0.0000E+00  0.0000E+00  0.0000E+00  0.0000E+00
     -2.581  0.1067E-01  0.1071E-01  0.1620E-03  0.1628E-03  0.1620E-03  0.1628E-03  0.1620E-03  0.1628E-03  0.0000E+00  0.0000E+00  0.0000E+00  0.0000E+00  0.0000E+00  0.0000E+00  0.0000E+00  0.0000E+00  0.0000E+00  0.0000E+00
     -2.161  0.1359E-01  0.1361E-01  0.3846E-03  0.3858E-03  0.3846E-03  0.3858E-03  0.3846E-03  0.3858E-03  0.0000E+00  0.0000E+00  0.0000E+00  0.0000E+00  0.0000E+00  0.0000E+00  0.0000E+00  0.0000E+00  0.0000E+00  0.0000E+00
     -1.742  0.1685E-01  0.1687E-01  0.6265E-03  0.6278E-03  0.6265E-03  0.6278E-03  0.6265E-03  0.6278E-03  0.0000E+00  0.0000E+00  0.0000E+00  0.0000E+00  0.0000E+00  0.0000E+00  0.0000E+00  0.0000E+00  0.0000E+00  0.0000E+00
     -1.322  0.1790E-01  0.1792E-01  0.9510E-03  0.9528E-03  0.9510E-03  0.9528E-03  0.9510E-03  0.9528E-03  0.0000E+00  0.0000E+00  0.0000E+00  0.0000E+00  0.0000E+00  0.0000E+00  0.0000E+00  0.0000E+00  0.0000E+00  0.0000E+00
     -0.903  0.1966E-01  0.1968E-01  0.1270E-02  0.1272E-02  0.1270E-02  0.1272E-02  0.1270E-02  0.1272E-02  0.0000E+00  0.0000E+00  0.0000E+00  0.0000E+00  0.0000E+00  0.0000E+00  0.0000E+00  0.0000E+00  0.0000E+00  0.0000E+00
     -0.483  0.2062E-01  0.2064E-01  0.1647E-02  0.1650E-02  0.1647E-02  0.1650E-02  0.1647E-02  0.1650E-02  0.0000E+00  0.0000E+00  0.0000E+00  0.0000E+00  0.0000E+00  0.0000E+00  0.0000E+00  0.0000E+00  0.0000E+00  0.0000E+00
     -0.064  0.2134E-01  0.2136E-01  0.2046E-02  0.2048E-02  0.2046E-02  0.2048E-02  0.2046E-02  0.2048E-02  0.0000E+00  0.0000E+00  0.0000E+00  0.0000E+00  0.0000E+00  0.0000E+00  0.0000E+00  0.0000E+00  0.0000E+00  0.0000E+00
      0.356  0.2222E-01  0.2224E-01  0.2448E-02  0.2451E-02  0.2448E-02  0.2451E-02  0.2448E-02  0.2451E-02  0.0000E+00  0.0000E+00  0.0000E+00  0.0000E+00  0.0000E+00  0.0000E+00  0.0000E+00  0.0000E+00  0.0000E+00  0.0000E+00
      0.775  0.2274E-01  0.2275E-01  0.2892E-02  0.2895E-02  0.2892E-02  0.2895E-02  0.2892E-02  0.2895E-02  0.0000E+00  0.0000E+00  0.0000E+00  0.0000E+00  0.0000E+00  0.0000E+00  0.0000E+00  0.0000E+00  0.0000E+00  0.0000E+00
      1.195  0.2267E-01  0.2269E-01  0.3384E-02  0.3388E-02  0.3384E-02  0.3388E-02  0.3384E-02  0.3388E-02  0.0000E+00  0.0000E+00  0.0000E+00  0.0000E+00  0.0000E+00  0.0000E+00  0.0000E+00  0.0000E+00  0.0000E+00  0.0000E+00
      1.614  0.2280E-01  0.2282E-01  0.3883E-02  0.3886E-02  0.3883E-02  0.3886E-02  0.3883E-02  0.3886E-02  0.0000E+00  0.0000E+00  0.0000E+00  0.0000E+00  0.0000E+00  0.0000E+00  0.0000E+00  0.0000E+00  0.0000E+00  0.0000E+00
      2.033  0.2295E-01  0.2297E-01  0.4427E-02  0.4430E-02  0.4427E-02  0.4430E-02  0.4427E-02  0.4430E-02  0.0000E+00  0.0000E+00  0.0000E+00  0.0000E+00  0.0000E+00  0.0000E+00  0.0000E+00  0.0000E+00  0.0000E+00  0.0000E+00
      2.453  0.2325E-01  0.2328E-01  0.5241E-02  0.5246E-02  0.5241E-02  0.5246E-02  0.5241E-02  0.5246E-02  0.0000E+00  0.0000E+00  0.0000E+00  0.0000E+00  0.0000E+00  0.0000E+00  0.0000E+00  0.0000E+00  0.0000E+00  0.0000E+00
      2.872  0.2342E-01  0.2344E-01  0.6198E-02  0.6203E-02  0.6198E-02  0.6203E-02  0.6198E-02  0.6203E-02  0.0000E+00  0.0000E+00  0.0000E+00  0.0000E+00  0.0000E+00  0.0000E+00  0.0000E+00  0.0000E+00  0.0000E+00  0.0000E+00
      3.292  0.2262E-01  0.2263E-01  0.6961E-02  0.6960E-02  0.6961E-02  0.6960E-02  0.6961E-02  0.6960E-02  0.0000E+00  0.0000E+00  0.0000E+00  0.0000E+00  0.0000E+00  0.0000E+00  0.0000E+00  0.0000E+00  0.0000E+00  0.0000E+00
      3.711  0.1810E-01  0.1811E-01  0.6362E-02  0.6363E-02  0.6362E-02  0.6363E-02  0.6362E-02  0.6363E-02  0.0000E+00  0.0000E+00  0.0000E+00  0.0000E+00  0.0000E+00  0.0000E+00  0.0000E+00  0.0000E+00  0.0000E+00  0.0000E+00
      4.131  0.1756E-01  0.1759E-01  0.7266E-02  0.7268E-02  0.7266E-02  0.7268E-02  0.7266E-02  0.7268E-02  0.0000E+00  0.0000E+00  0.0000E+00  0.0000E+00  0.0000E+00  0.0000E+00  0.0000E+00  0.0000E+00  0.0000E+00  0.0000E+00
      4.550  0.1981E-01  0.1980E-01  0.9171E-02  0.9168E-02  0.9171E-02  0.9168E-02  0.9171E-02  0.9168E-02  0.0000E+00  0.0000E+00  0.0000E+00  0.0000E+00  0.0000E+00  0.0000E+00  0.0000E+00  0.0000E+00  0.0000E+00  0.0000E+00
      4.970  0.1934E-01  0.1937E-01  0.9262E-02  0.9267E-02  0.9262E-02  0.9267E-02  0.9262E-02  0.9267E-02  0.0000E+00  0.0000E+00  0.0000E+00  0.0000E+00  0.0000E+00  0.0000E+00  0.0000E+00  0.0000E+00  0.0000E+00  0.0000E+00
      5.389  0.1874E-01  0.1875E-01  0.8892E-02  0.8896E-02  0.8892E-02  0.8896E-02  0.8892E-02  0.8896E-02  0.0000E+00  0.0000E+00  0.0000E+00  0.0000E+00  0.0000E+00  0.0000E+00  0.0000E+00  0.0000E+00  0.0000E+00  0.0000E+00
      5.809  0.1571E-01  0.1571E-01  0.7273E-02  0.7269E-02  0.7273E-02  0.7269E-02  0.7273E-02  0.7269E-02  0.0000E+00  0.0000E+00  0.0000E+00  0.0000E+00  0.0000E+00  0.0000E+00  0.0000E+00  0.0000E+00  0.0000E+00  0.0000E+00
      6.228  0.1564E-01  0.1565E-01  0.6778E-02  0.6786E-02  0.6778E-02  0.6786E-02  0.6778E-02  0.6786E-02  0.0000E+00  0.0000E+00  0.0000E+00  0.0000E+00  0.0000E+00  0.0000E+00  0.0000E+00  0.0000E+00  0.0000E+00  0.0000E+00
      6.648  0.1943E-01  0.1946E-01  0.1082E-01  0.1084E-01  0.1082E-01  0.1084E-01  0.1082E-01  0.1084E-01  0.0000E+00  0.0000E+00  0.0000E+00  0.0000E+00  0.0000E+00  0.0000E+00  0.0000E+00  0.0000E+00  0.0000E+00  0.0000E+00
      7.067  0.1798E-01  0.1801E-01  0.1064E-01  0.1064E-01  0.1064E-01  0.1064E-01  0.1064E-01  0.1064E-01  0.0000E+00  0.0000E+00  0.0000E+00  0.0000E+00  0.0000E+00  0.0000E+00  0.0000E+00  0.0000E+00  0.0000E+00  0.0000E+00
      7.487  0.1741E-01  0.1741E-01  0.9263E-02  0.9267E-02  0.9263E-02  0.9267E-02  0.9263E-02  0.9267E-02  0.0000E+00  0.0000E+00  0.0000E+00  0.0000E+00  0.0000E+00  0.0000E+00  0.0000E+00  0.0000E+00  0.0000E+00  0.0000E+00
      7.906  0.1388E-01  0.1389E-01  0.8611E-02  0.8610E-02  0.8611E-02  0.8610E-02  0.8611E-02  0.8610E-02  0.0000E+00  0.0000E+00  0.0000E+00  0.0000E+00  0.0000E+00  0.0000E+00  0.0000E+00  0.0000E+00  0.0000E+00  0.0000E+00
      8.325  0.2009E-01  0.2014E-01  0.9196E-02  0.9214E-02  0.9196E-02  0.9214E-02  0.9196E-02  0.9214E-02  0.0000E+00  0.0000E+00  0.0000E+00  0.0000E+00  0.0000E+00  0.0000E+00  0.0000E+00  0.0000E+00  0.0000E+00  0.0000E+00
      8.745  0.2575E-01  0.2579E-01  0.1145E-01  0.1147E-01  0.1145E-01  0.1147E-01  0.1145E-01  0.1147E-01  0.0000E+00  0.0000E+00  0.0000E+00  0.0000E+00  0.0000E+00  0.0000E+00  0.0000E+00  0.0000E+00  0.0000E+00  0.0000E+00
      9.164  0.1905E-01  0.1906E-01  0.9759E-02  0.9766E-02  0.9759E-02  0.9766E-02  0.9759E-02  0.9766E-02  0.0000E+00  0.0000E+00  0.0000E+00  0.0000E+00  0.0000E+00  0.0000E+00  0.0000E+00  0.0000E+00  0.0000E+00  0.0000E+00
      9.584  0.1905E-01  0.1907E-01  0.1021E-01  0.1022E-01  0.1021E-01  0.1022E-01  0.1021E-01  0.1022E-01  0.0000E+00  0.0000E+00  0.0000E+00  0.0000E+00  0.0000E+00  0.0000E+00  0.0000E+00  0.0000E+00  0.0000E+00  0.0000E+00
     10.003  0.1761E-01  0.1763E-01  0.9734E-02  0.9742E-02  0.9734E-02  0.9742E-02  0.9734E-02  0.9742E-02  0.0000E+00  0.0000E+00  0.0000E+00  0.0000E+00  0.0000E+00  0.0000E+00  0.0000E+00  0.0000E+00  0.0000E+00  0.0000E+00
     10.423  0.2554E-01  0.2555E-01  0.1119E-01  0.1121E-01  0.1119E-01  0.1121E-01  0.1119E-01  0.1121E-01  0.0000E+00  0.0000E+00  0.0000E+00  0.0000E+00  0.0000E+00  0.0000E+00  0.0000E+00  0.0000E+00  0.0000E+00  0.0000E+00
     10.842  0.2317E-01  0.2319E-01  0.1214E-01  0.1215E-01  0.1214E-01  0.1215E-01  0.1214E-01  0.1215E-01  0.0000E+00  0.0000E+00  0.0000E+00  0.0000E+00  0.0000E+00  0.0000E+00  0.0000E+00  0.0000E+00  0.0000E+00  0.0000E+00
     11.262  0.2283E-01  0.2283E-01  0.1200E-01  0.1201E-01  0.1200E-01  0.1201E-01  0.1200E-01  0.1201E-01  0.0000E+00  0.0000E+00  0.0000E+00  0.0000E+00  0.0000E+00  0.0000E+00  0.0000E+00  0.0000E+00  0.0000E+00  0.0000E+00
     11.681  0.2215E-01  0.2216E-01  0.1201E-01  0.1202E-01  0.1201E-01  0.1202E-01  0.1201E-01  0.1202E-01  0.0000E+00  0.0000E+00  0.0000E+00  0.0000E+00  0.0000E+00  0.0000E+00  0.0000E+00  0.0000E+00  0.0000E+00  0.0000E+00
     12.101  0.2230E-01  0.2231E-01  0.1307E-01  0.1310E-01  0.1307E-01  0.1310E-01  0.1307E-01  0.1310E-01  0.0000E+00  0.0000E+00  0.0000E+00  0.0000E+00  0.0000E+00  0.0000E+00  0.0000E+00  0.0000E+00  0.0000E+00  0.0000E+00