<?xml version="1.0" encoding="ISO-8859-1"?>
<modeling>
 <generator>
  <i name="program" type="string">vasp </i>
  <i name="version" type="string">6.2.1  </i>
  <i name="subversion" type="string">16May21 (build Aug 15 2022 14:47:30) complex                          parallel </i>
  <i name="platform" type="string">LinuxGNU </i>
  <i name="date" type="string">2025 12 11 </i>
  <i name="time" type="string">13:43:20 </i>
 </generator>
 <incar>
  <i type="string" name="PREC">Accurate</i>
  <i type="string" name="ALGO">Fast</i>
  <i type="int" name="ISPIN">     2</i>
  <i type="int" name="NELM">   100</i>
  <i name="EDIFF">      0.00005000</i>
  <i type="int" name="NSW">     0</i>
  <i name="ENCUT">    450.00000000</i>
  <v name="MAGMOM">      0.60000000</v>
  <i type="logical" name="LREAL"> F  </i>
  <i type="int" name="ISMEAR">    -5</i>
  <i name="SIGMA">      0.05000000</i>
  <i type="logical" name="LWAVE"> F  </i>
  <i type="logical" name="LCHARG"> T  </i>
  <i type="int" name="LORBIT">    11</i>
  <i type="logical" name="LASPH"> T  </i>
 </incar>
 <primitive_cell>
  <structure name="primitive_cell" >
   <crystal>
    <varray name="basis" >
     <v>       0.00000000       2.02400000       2.02400000 </v>
     <v>       2.02400000       0.00000000       2.02400000 </v>
     <v>       2.02400000       2.02400000       0.00000000 </v>
    </varray>
    <i name="volume">     16.58293965 </i>
    <varray name="rec_basis" >
     <v>      -0.24703557       0.24703557       0.24703557 </v>
     <v>       0.24703557      -0.24703557       0.24703557 </v>
     <v>       0.24703557       0.24703557      -0.24703557 </v>
    </varray>
   </crystal>
   <varray name="positions" >
    <v>       0.00000000       0.00000000       0.00000000 </v>
   </varray>
  </structure>
  <varray name="primitive_index" >
   <v type="int" >        1 </v>
  </varray>
 </primitive_cell>
 <kpoints>
  <generation param="Gamma">
   <v type="int" name="divisions">      11       11       11 </v>
   <v name="usershift">      0.00000000       0.00000000       0.00000000 </v>
   <v name="genvec1">      0.09090909       0.00000000       0.00000000 </v>
   <v name="genvec2">      0.00000000       0.09090909       0.00000000 </v>
   <v name="genvec3">      0.00000000       0.00000000       0.09090909 </v>
   <v name="shift">      0.00000000       0.00000000       0.00000000 </v>
  </generation>
  <varray name="kpointlist" >
   <v>       0.00000000       0.00000000       0.00000000 </v>
   <v>       0.09090909       0.00000000       0.00000000 </v>
   <v>       0.18181818       0.00000000       0.00000000 </v>
   <v>       0.27272727       0.00000000       0.00000000 </v>
   <v>       0.36363636       0.00000000       0.00000000 </v>
   <v>       0.45454545       0.00000000       0.00000000 </v>
   <v>       0.09090909       0.09090909       0.00000000 </v>
   <v>       0.18181818       0.09090909       0.00000000 </v>
   <v>       0.27272727       0.09090909       0.00000000 </v>
   <v>       0.36363636       0.09090909       0.00000000 </v>
   <v>       0.45454545       0.09090909       0.00000000 </v>
   <v>      -0.45454545       0.09090909       0.00000000 </v>
   <v>      -0.36363636       0.09090909       0.00000000 </v>
   <v>      -0.27272727       0.09090909       0.00000000 </v>
   <v>      -0.18181818       0.09090909       0.00000000 </v>
   <v>      -0.09090909       0.09090909       0.00000000 </v>
   <v>       0.18181818       0.18181818       0.00000000 </v>
   <v>       0.27272727       0.18181818       0.00000000 </v>
   <v>       0.36363636       0.18181818       0.00000000 </v>
   <v>       0.45454545       0.18181818       0.00000000 </v>
   <v>      -0.45454545       0.18181818       0.00000000 </v>
   <v>      -0.36363636       0.18181818       0.00000000 </v>
   <v>      -0.27272727       0.18181818       0.00000000 </v>
   <v>      -0.18181818       0.18181818       0.00000000 </v>
   <v>       0.27272727       0.27272727       0.00000000 </v>
   <v>       0.36363636       0.27272727       0.00000000 </v>
   <v>       0.45454545       0.27272727       0.00000000 </v>
   <v>      -0.45454545       0.27272727       0.00000000 </v>
   <v>      -0.36363636       0.27272727       0.00000000 </v>
   <v>      -0.27272727       0.27272727       0.00000000 </v>
   <v>       0.36363636       0.36363636       0.00000000 </v>
   <v>       0.45454545       0.36363636       0.00000000 </v>
   <v>      -0.45454545       0.36363636       0.00000000 </v>
   <v>      -0.36363636       0.36363636       0.00000000 </v>
   <v>       0.45454545       0.45454545       0.00000000 </v>
   <v>      -0.45454545       0.45454545       0.00000000 </v>
   <v>       0.27272727       0.18181818       0.09090909 </v>
   <v>       0.36363636       0.18181818       0.09090909 </v>
   <v>       0.45454545       0.18181818       0.09090909 </v>
   <v>      -0.45454545       0.18181818       0.09090909 </v>
   <v>       0.36363636       0.27272727       0.09090909 </v>
   <v>       0.45454545       0.27272727       0.09090909 </v>
   <v>      -0.45454545       0.27272727       0.09090909 </v>
   <v>      -0.36363636       0.27272727       0.09090909 </v>
   <v>      -0.27272727       0.27272727       0.09090909 </v>
   <v>      -0.18181818       0.27272727       0.09090909 </v>
   <v>       0.45454545       0.36363636       0.09090909 </v>
   <v>      -0.45454545       0.36363636       0.09090909 </v>
   <v>      -0.36363636       0.36363636       0.09090909 </v>
   <v>      -0.27272727       0.36363636       0.09090909 </v>
   <v>      -0.45454545       0.45454545       0.09090909 </v>
   <v>      -0.36363636       0.45454545       0.09090909 </v>
   <v>      -0.45454545       0.36363636       0.18181818 </v>
   <v>      -0.36363636       0.36363636       0.18181818 </v>
   <v>      -0.36363636       0.45454545       0.18181818 </v>
   <v>      -0.27272727       0.45454545       0.18181818 </v>
  </varray>
  <varray name="weights" >
   <v>       0.00075131 </v>
   <v>       0.00601052 </v>
   <v>       0.00601052 </v>
   <v>       0.00601052 </v>
   <v>       0.00601052 </v>
   <v>       0.00601052 </v>
   <v>       0.00450789 </v>
   <v>       0.01803156 </v>
   <v>       0.01803156 </v>
   <v>       0.01803156 </v>
   <v>       0.01803156 </v>
   <v>       0.01803156 </v>
   <v>       0.01803156 </v>
   <v>       0.01803156 </v>
   <v>       0.01803156 </v>
   <v>       0.00901578 </v>
   <v>       0.00450789 </v>
   <v>       0.01803156 </v>
   <v>       0.01803156 </v>
   <v>       0.01803156 </v>
   <v>       0.01803156 </v>
   <v>       0.01803156 </v>
   <v>       0.01803156 </v>
   <v>       0.00901578 </v>
   <v>       0.00450789 </v>
   <v>       0.01803156 </v>
   <v>       0.01803156 </v>
   <v>       0.01803156 </v>
   <v>       0.01803156 </v>
   <v>       0.00901578 </v>
   <v>       0.00450789 </v>
   <v>       0.01803156 </v>
   <v>       0.01803156 </v>
   <v>       0.00901578 </v>
   <v>       0.00450789 </v>
   <v>       0.00901578 </v>
   <v>       0.01803156 </v>
   <v>       0.03606311 </v>
   <v>       0.03606311 </v>
   <v>       0.03606311 </v>
   <v>       0.01803156 </v>
   <v>       0.03606311 </v>
   <v>       0.03606311 </v>
   <v>       0.03606311 </v>
   <v>       0.03606311 </v>
   <v>       0.01803156 </v>
   <v>       0.01803156 </v>
   <v>       0.03606311 </v>
   <v>       0.03606311 </v>
   <v>       0.01803156 </v>
   <v>       0.01803156 </v>
   <v>       0.01803156 </v>
   <v>       0.01803156 </v>
   <v>       0.03606311 </v>
   <v>       0.01803156 </v>
   <v>       0.01803156 </v>
  </varray>
  <varray name="tetrahedronlist"  type="int" >
   <v type="int" >       24        1        2        2        7 </v>
   <v type="int" >       48        2        7        8       16 </v>
   <v type="int" >       48        2        3        8       16 </v>
   <v type="int" >       24        2        2        7       16 </v>
   <v type="int" >       48        3        8        9       15 </v>
   <v type="int" >       48        3        4        9       15 </v>
   <v type="int" >       48        3        8       15       16 </v>
   <v type="int" >       48        4        9       10       14 </v>
   <v type="int" >       48        4        5       10       14 </v>
   <v type="int" >       48        4        9       14       15 </v>
   <v type="int" >       48        5       10       11       13 </v>
   <v type="int" >       48        5        6       11       13 </v>
   <v type="int" >       48        5       10       13       14 </v>
   <v type="int" >       48        6       11       12       12 </v>
   <v type="int" >       24        6        6       12       12 </v>
   <v type="int" >       48        6       11       12       13 </v>
   <v type="int" >       24        7        8        8       17 </v>
   <v type="int" >       24        7        8        8       16 </v>
   <v type="int" >       48        8       17       18       37 </v>
   <v type="int" >       48        8        9       18       37 </v>
   <v type="int" >       48        8        9       15       37 </v>
   <v type="int" >       24        8        8       17       37 </v>
   <v type="int" >       24        8        8       16       37 </v>
   <v type="int" >       48        8       15       16       37 </v>
   <v type="int" >       48        9       18       19       38 </v>
   <v type="int" >       48        9       10       19       38 </v>
   <v type="int" >       48        9       10       14       38 </v>
   <v type="int" >       48        9       18       37       38 </v>
   <v type="int" >       48        9       15       37       38 </v>
   <v type="int" >       48        9       14       15       38 </v>
   <v type="int" >       48       10       19       20       39 </v>
   <v type="int" >       48       10       11       20       39 </v>
   <v type="int" >       48       10       11       13       39 </v>
   <v type="int" >       48       10       19       38       39 </v>
   <v type="int" >       48       10       14       38       39 </v>
   <v type="int" >       48       10       13       14       39 </v>
   <v type="int" >       48       11       20       21       40 </v>
   <v type="int" >       48       11       12       21       40 </v>
   <v type="int" >       48       11       12       12       40 </v>
   <v type="int" >       48       11       20       39       40 </v>
   <v type="int" >       48       11       13       39       40 </v>
   <v type="int" >       48       11       12       13       40 </v>
   <v type="int" >       48       12       21       22       40 </v>
   <v type="int" >       48       12       13       22       40 </v>
   <v type="int" >       48       12       21       40       40 </v>
   <v type="int" >       24       12       12       40       40 </v>
   <v type="int" >       48       13       22       23       39 </v>
   <v type="int" >       48       13       14       23       39 </v>
   <v type="int" >       48       13       22       39       40 </v>
   <v type="int" >       48       14       23       24       38 </v>
   <v type="int" >       48       14       15       24       38 </v>
   <v type="int" >       48       14       23       38       39 </v>
   <v type="int" >       24       15       15       24       37 </v>
   <v type="int" >       24       15       15       16       37 </v>
   <v type="int" >       48       15       24       37       38 </v>
   <v type="int" >       24       17       18       18       25 </v>
   <v type="int" >       24       17       18       18       37 </v>
   <v type="int" >       48       18       25       26       41 </v>
   <v type="int" >       48       18       19       26       41 </v>
   <v type="int" >       48       18       19       38       41 </v>
   <v type="int" >       24       18       18       25       41 </v>
   <v type="int" >       24       18       18       37       41 </v>
   <v type="int" >       48       18       37       38       41 </v>
   <v type="int" >       48       19       26       27       42 </v>
   <v type="int" >       48       19       20       27       42 </v>
   <v type="int" >       48       19       20       39       42 </v>
   <v type="int" >       48       19       26       41       42 </v>
   <v type="int" >       48       19       38       41       42 </v>
   <v type="int" >       48       19       38       39       42 </v>
   <v type="int" >       48       20       27       28       43 </v>
   <v type="int" >       48       20       21       28       43 </v>
   <v type="int" >       48       20       21       40       43 </v>
   <v type="int" >       48       20       27       42       43 </v>
   <v type="int" >       48       20       39       42       43 </v>
   <v type="int" >       48       20       39       40       43 </v>
   <v type="int" >       48       21       28       29       44 </v>
   <v type="int" >       48       21       22       29       44 </v>
   <v type="int" >       48       21       22       40       44 </v>
   <v type="int" >       48       21       28       43       44 </v>
   <v type="int" >       48       21       40       43       44 </v>
   <v type="int" >       48       21       40       40       44 </v>
   <v type="int" >       48       22       29       30       45 </v>
   <v type="int" >       48       22       23       30       45 </v>
   <v type="int" >       48       22       23       39       45 </v>
   <v type="int" >       48       22       29       44       45 </v>
   <v type="int" >       48       22       40       44       45 </v>
   <v type="int" >       48       22       39       40       45 </v>
   <v type="int" >       24       23       23       30       46 </v>
   <v type="int" >       24       23       23       24       46 </v>
   <v type="int" >       48       23       24       38       46 </v>
   <v type="int" >       48       23       30       45       46 </v>
   <v type="int" >       48       23       39       45       46 </v>
   <v type="int" >       48       23       38       39       46 </v>
   <v type="int" >       24       24       38       38       46 </v>
   <v type="int" >       24       24       37       38       38 </v>
   <v type="int" >       24       25       26       26       31 </v>
   <v type="int" >       24       25       26       26       41 </v>
   <v type="int" >       48       26       31       32       47 </v>
   <v type="int" >       48       26       27       32       47 </v>
   <v type="int" >       48       26       27       42       47 </v>
   <v type="int" >       24       26       26       31       47 </v>
   <v type="int" >       24       26       26       41       47 </v>
   <v type="int" >       48       26       41       42       47 </v>
   <v type="int" >       48       27       32       33       48 </v>
   <v type="int" >       48       27       28       33       48 </v>
   <v type="int" >       48       27       28       43       48 </v>
   <v type="int" >       48       27       32       47       48 </v>
   <v type="int" >       48       27       42       47       48 </v>
   <v type="int" >       48       27       42       43       48 </v>
   <v type="int" >       48       28       33       34       49 </v>
   <v type="int" >       48       28       29       34       49 </v>
   <v type="int" >       48       28       29       44       49 </v>
   <v type="int" >       48       28       33       48       49 </v>
   <v type="int" >       48       28       43       48       49 </v>
   <v type="int" >       48       28       43       44       49 </v>
   <v type="int" >       24       29       29       34       50 </v>
   <v type="int" >       24       29       29       30       50 </v>
   <v type="int" >       48       29       30       45       50 </v>
   <v type="int" >       48       29       34       49       50 </v>
   <v type="int" >       48       29       44       49       50 </v>
   <v type="int" >       48       29       44       45       50 </v>
   <v type="int" >       24       30       45       45       50 </v>
   <v type="int" >       24       30       45       45       46 </v>
   <v type="int" >       24       31       32       32       35 </v>
   <v type="int" >       24       31       32       32       47 </v>
   <v type="int" >       48       32       35       36       51 </v>
   <v type="int" >       48       32       33       36       51 </v>
   <v type="int" >       48       32       33       48       51 </v>
   <v type="int" >       24       32       32       35       51 </v>
   <v type="int" >       24       32       32       47       51 </v>
   <v type="int" >       48       32       47       48       51 </v>
   <v type="int" >       24       33       33       36       52 </v>
   <v type="int" >       24       33       33       34       52 </v>
   <v type="int" >       48       33       34       49       52 </v>
   <v type="int" >       48       33       36       51       52 </v>
   <v type="int" >       48       33       48       51       52 </v>
   <v type="int" >       48       33       48       49       52 </v>
   <v type="int" >       24       34       49       49       52 </v>
   <v type="int" >       24       34       49       49       50 </v>
   <v type="int" >       12       35       35       36       36 </v>
   <v type="int" >       24       35       36       36       51 </v>
   <v type="int" >       12       36       36       51       51 </v>
   <v type="int" >       24       36       51       51       52 </v>
   <v type="int" >       24       37       38       38       41 </v>
   <v type="int" >       48       38       41       42       46 </v>
   <v type="int" >       48       38       39       42       46 </v>
   <v type="int" >       24       38       38       41       46 </v>
   <v type="int" >       48       39       42       43       45 </v>
   <v type="int" >       48       39       40       43       45 </v>
   <v type="int" >       48       39       42       45       46 </v>
   <v type="int" >       48       40       43       44       44 </v>
   <v type="int" >       24       40       40       44       44 </v>
   <v type="int" >       48       40       43       44       45 </v>
   <v type="int" >       24       41       42       42       47 </v>
   <v type="int" >       24       41       42       42       46 </v>
   <v type="int" >       48       42       47       48       53 </v>
   <v type="int" >       48       42       43       48       53 </v>
   <v type="int" >       48       42       43       45       53 </v>
   <v type="int" >       24       42       42       47       53 </v>
   <v type="int" >       24       42       42       46       53 </v>
   <v type="int" >       48       42       45       46       53 </v>
   <v type="int" >       48       43       48       49       54 </v>
   <v type="int" >       48       43       44       49       54 </v>
   <v type="int" >       48       43       44       44       54 </v>
   <v type="int" >       48       43       48       53       54 </v>
   <v type="int" >       48       43       45       53       54 </v>
   <v type="int" >       48       43       44       45       54 </v>
   <v type="int" >       48       44       49       50       54 </v>
   <v type="int" >       48       44       45       50       54 </v>
   <v type="int" >       48       44       49       54       54 </v>
   <v type="int" >       24       44       44       54       54 </v>
   <v type="int" >       24       45       45       50       53 </v>
   <v type="int" >       24       45       45       46       53 </v>
   <v type="int" >       48       45       50       53       54 </v>
   <v type="int" >       24       47       48       48       51 </v>
   <v type="int" >       24       47       48       48       53 </v>
   <v type="int" >       48       48       51       52       55 </v>
   <v type="int" >       48       48       49       52       55 </v>
   <v type="int" >       48       48       49       54       55 </v>
   <v type="int" >       24       48       48       51       55 </v>
   <v type="int" >       24       48       48       53       55 </v>
   <v type="int" >       48       48       53       54       55 </v>
   <v type="int" >       24       49       49       52       56 </v>
   <v type="int" >       24       49       49       50       56 </v>
   <v type="int" >       48       49       50       54       56 </v>
   <v type="int" >       48       49       52       55       56 </v>
   <v type="int" >       48       49       54       55       56 </v>
   <v type="int" >       48       49       54       54       56 </v>
   <v type="int" >       24       50       54       54       56 </v>
   <v type="int" >       24       50       53       54       54 </v>
   <v type="int" >       12       51       51       52       52 </v>
   <v type="int" >       24       51       52       52       55 </v>
   <v type="int" >       12       52       52       55       55 </v>
   <v type="int" >       24       52       55       55       56 </v>
   <v type="int" >       24       53       54       54       55 </v>
   <v type="int" >       48       54       55       56       56 </v>
   <v type="int" >       24       54       54       56       56 </v>
   <v type="int" >       24       54       54       55       56 </v>
   <v type="int" >       12       55       55       56       56 </v>
   <v type="int" >       24       55       56       56       56 </v>
   <v type="int" >        6       56       56       56       56 </v>
  </varray>
  <i name="volumeweight">      0.00012522 </i>
 </kpoints>
 <parameters>
  <separator name="general" >
   <i type="string" name="SYSTEM">unknown system</i>
   <i type="logical" name="LCOMPAT"> F  </i>
  </separator>
  <separator name="electronic" >
   <i type="string" name="PREC">accura</i>
   <i name="ENMAX">    450.00000000</i>
   <i name="ENAUG">    291.05200000</i>
   <i name="EDIFF">      0.00005000</i>
   <i type="int" name="IALGO">    68</i>
   <i type="int" name="IWAVPR">    10</i>
   <i type="int" name="NBANDS">    48</i>
   <i type="int" name="NBANDSLOW">    -1</i>
   <i type="int" name="NBANDSHIGH">    -1</i>
   <i name="NELECT">      3.00000000</i>
   <i type="int" name="TURBO">     0</i>
   <i type="int" name="IRESTART">     0</i>
   <i type="int" name="NREBOOT">     0</i>
   <i type="int" name="NMIN">     0</i>
   <i name="EREF">      0.00000000</i>
   <separator name="electronic smearing" >
    <i type="int" name="ISMEAR">    -5</i>
    <i name="SIGMA">      0.05000000</i>
    <i name="KSPACING">      0.50000000</i>
    <i type="logical" name="KGAMMA"> T  </i>
    <i type="logical" name="KBLOWUP"> T  </i>
   </separator>
   <separator name="electronic projectors" >
    <i type="logical" name="LREAL"> F  </i>
    <v name="ROPT">      0.00000000</v>
    <i type="int" name="LMAXPAW">  -100</i>
    <i type="int" name="LMAXMIX">     2</i>
    <i type="logical" name="NLSPLINE"> F  </i>
   </separator>
   <separator name="electronic startup" >
    <i type="int" name="ISTART">     0</i>
    <i type="int" name="ICHARG">     2</i>
    <i type="int" name="INIWAV">     1</i>
   </separator>
   <separator name="electronic spin" >
    <i type="int" name="ISPIN">     2</i>
    <i type="logical" name="LNONCOLLINEAR"> F  </i>
    <v name="MAGMOM">      0.60000000</v>
    <i name="NUPDOWN">     -1.00000000</i>
    <i type="logical" name="LSORBIT"> F  </i>
    <v name="SAXIS">      0.00000000      0.00000000      1.00000000</v>
    <i type="logical" name="LSPIRAL"> F  </i>
    <v name="QSPIRAL">      0.00000000      0.00000000      0.00000000</v>
    <i type="logical" name="LZEROZ"> F  </i>
   </separator>
   <separator name="electronic exchange-correlation" >
    <i type="logical" name="LASPH"> T  </i>
    <i type="logical" name="LMETAGGA"> F  </i>
   </separator>
   <separator name="electronic convergence" >
    <i type="int" name="NELM">   100</i>
    <i type="int" name="NELMDL">    -5</i>
    <i type="int" name="NELMIN">     2</i>
    <i name="ENINI">    450.00000000</i>
    <separator name="electronic convergence detail" >
     <i type="logical" name="LDIAG"> T  </i>
     <i type="logical" name="LSUBROT"> F  </i>
     <i name="WEIMIN">      0.00000000</i>
     <i name="EBREAK">      0.00000026</i>
     <i name="DEPER">      0.30000000</i>
     <i type="int" name="NRMM">     4</i>
     <i name="TIME">      0.40000000</i>
    </separator>
   </separator>
   <separator name="electronic mixer" >
    <i name="AMIX">      0.40000000</i>
    <i name="BMIX">      1.00000000</i>
    <i name="AMIN">      0.10000000</i>
    <i name="AMIX_MAG">      1.60000000</i>
    <i name="BMIX_MAG">      1.00000000</i>
    <separator name="electronic mixer details" >
     <i type="int" name="IMIX">     4</i>
     <i type="logical" name="MIXFIRST"> F  </i>
     <i type="int" name="MAXMIX">   -45</i>
     <i name="WC">    100.00000000</i>
     <i type="int" name="INIMIX">     1</i>
     <i type="int" name="MIXPRE">     1</i>
     <i type="int" name="MREMOVE">     5</i>
    </separator>
   </separator>
   <separator name="electronic dipolcorrection" >
    <i type="logical" name="LDIPOL"> F  </i>
    <i type="logical" name="LMONO"> F  </i>
    <i type="int" name="IDIPOL">     0</i>
    <i name="EPSILON">      1.00000000</i>
    <v name="DIPOL">   -100.00000000   -100.00000000   -100.00000000</v>
    <i name="EFIELD">      0.00000000</i>
   </separator>
  </separator>
  <separator name="grids" >
   <i type="int" name="NGX">    20</i>
   <i type="int" name="NGY">    20</i>
   <i type="int" name="NGZ">    20</i>
   <i type="int" name="NGXF">    40</i>
   <i type="int" name="NGYF">    40</i>
   <i type="int" name="NGZF">    40</i>
   <i type="logical" name="ADDGRID"> F  </i>
  </separator>
  <separator name="ionic" >
   <i type="int" name="NSW">     0</i>
   <i type="int" name="IBRION">    -1</i>
   <i type="int" name="MDALGO">     0</i>
   <i type="int" name="ISIF">     2</i>
   <i name="PSTRESS">      0.00000000</i>
   <i name="EDIFFG">      0.00050000</i>
   <i type="int" name="NFREE">     0</i>
   <i name="POTIM">      0.50000000</i>
   <i name="SMASS">     -3.00000000</i>
   <i name="SCALEE">      1.00000000</i>
  </separator>
  <separator name="ionic md" >
   <i name="TEBEG">      0.00010000</i>
   <i name="TEEND">      0.00010000</i>
   <i type="int" name="NBLOCK">     1</i>
   <i type="int" name="KBLOCK">     1</i>
   <i type="int" name="NPACO">   256</i>
   <i name="APACO">     16.00000000</i>
  </separator>
  <separator name="symmetry" >
   <i type="int" name="ISYM">     2</i>
   <i name="SYMPREC">      0.00001000</i>
  </separator>
  <separator name="dos" >
   <i type="int" name="LORBIT">    11</i>
   <v name="RWIGS">     -1.00000000</v>
   <i type="int" name="NEDOS">   301</i>
   <i name="EMIN">     10.00000000</i>
   <i name="EMAX">    -10.00000000</i>
   <i name="EFERMI">      0.00000000</i>
  </separator>
  <separator name="writing" >
   <i type="int" name="NWRITE">     2</i>
   <i type="logical" name="LWAVE"> F  </i>
   <i type="logical" name="LDOWNSAMPLE"> F  </i>
   <i type="logical" name="LCHARG"> T  </i>
   <i type="logical" name="LPARD"> F  </i>
   <i type="logical" name="LVTOT"> F  </i>
   <i type="logical" name="LVHAR"> F  </i>
   <i type="logical" name="LELF"> F  </i>
   <i type="logical" name="LOPTICS"> F  </i>
   <v name="STM">      0.00000000      0.00000000      0.00000000      0.00000000      0.00000000      0.00000000      0.00000000</v>
  </separator>
  <separator name="performance" >
   <i type="int" name="NPAR">    48</i>
   <i type="int" name="NSIM">     4</i>
   <i type="int" name="NBLK">    -1</i>
   <i type="logical" name="LPLANE"> T  </i>
   <i type="logical" name="LSCALAPACK"> T  </i>
   <i type="logical" name="LSCAAWARE"> T  </i>
   <i type="logical" name="LSCALU"> F  </i>
   <i type="logical" name="LASYNC"> F  </i>
   <i type="logical" name="LORBITALREAL"> F  </i>
  </separator>
  <separator name="miscellaneous" >
   <i type="int" name="IDIOT">     3</i>
   <i type="int" name="PHON_NSTRUCT">    -1</i>
   <i type="logical" name="LMUSIC"> F  </i>
   <v name="POMASS">     26.98100000</v>
   <v name="DARWINR">      0.00000000</v>
   <v name="DARWINV">      1.00000000</v>
   <i type="logical" name="LCORR"> T  </i>
  </separator>
  <i type="logical" name="GGA_COMPAT"> T  </i>
  <i type="logical" name="LBERRY"> F  </i>
  <i type="int" name="ICORELEVEL">     0</i>
  <i type="logical" name="LDAU"> F  </i>
  <i type="int" name="I_CONSTRAINED_M">     0</i>
  <separator name="electronic exchange-correlation" >
   <i type="string" name="GGA">--</i>
   <i type="int" name="VOSKOWN">     0</i>
   <i type="logical" name="LHFCALC"> F  </i>
   <i type="string" name="PRECFOCK"></i>
   <i type="logical" name="LSYMGRAD"> F  </i>
   <i type="logical" name="LHFONE"> F  </i>
   <i type="logical" name="LRHFCALC"> F  </i>
   <i type="logical" name="LTHOMAS"> F  </i>
   <i type="logical" name="LMODELHF"> F  </i>
   <i type="logical" name="LFOCKACE"> F  </i>
   <i name="ENCUT4O">     -1.00000000</i>
   <i type="int" name="EXXOEP">     0</i>
   <i type="int" name="FOURORBIT">     0</i>
   <i name="AEXX">      0.00000000</i>
   <i name="HFALPHA">      0.00000000</i>
   <i name="MCALPHA">      0.00000000</i>
   <i name="ALDAX">      1.00000000</i>
   <i name="AGGAX">      1.00000000</i>
   <i name="ALDAC">      1.00000000</i>
   <i name="AGGAC">      1.00000000</i>
   <i type="int" name="NKREDX">     1</i>
   <i type="int" name="NKREDY">     1</i>
   <i type="int" name="NKREDZ">     1</i>
   <i type="logical" name="SHIFTRED"> F  </i>
   <i type="logical" name="ODDONLY"> F  </i>
   <i type="logical" name="EVENONLY"> F  </i>
   <i type="int" name="LMAXFOCK">     0</i>
   <i type="int" name="NMAXFOCKAE">     0</i>
   <i type="logical" name="LFOCKAEDFT"> F  </i>
   <i name="HFSCREEN">      0.00000000</i>
   <i name="HFSCREENC">      0.00000000</i>
   <i type="int" name="NBANDSGWLOW">     0</i>
  </separator>
  <separator name="vdW DFT" >
   <i type="logical" name="LUSE_VDW"> F  </i>
   <i name="Zab_VDW">     -0.84910000</i>
   <i name="PARAM1">      0.12340000</i>
   <i name="PARAM2">      1.00000000</i>
   <i name="PARAM3">      0.00000000</i>
  </separator>
  <separator name="model GW" >
   <i type="int" name="MODEL_GW">     0</i>
   <i name="MODEL_EPS0">      9.94976379</i>
   <i name="MODEL_ALPHA">      1.00000000</i>
  </separator>
  <separator name="linear response parameters" >
   <i type="logical" name="LEPSILON"> F  </i>
   <i type="logical" name="LRPA"> F  </i>
   <i type="logical" name="LNABLA"> F  </i>
   <i type="logical" name="LVEL"> F  </i>
   <i type="int" name="KINTER">     0</i>
   <i name="CSHIFT">      0.10000000</i>
   <i name="OMEGAMAX">     -1.00000000</i>
   <i name="DEG_THRESHOLD">      0.00200000</i>
   <i name="RTIME">     -0.10000000</i>
   <i name="WPLASMAI">      0.00000000</i>
   <v name="DFIELD">      0.00000000      0.00000000      0.00000000</v>
   <v name="WPLASMA">      0.00000000      0.00000000      0.00000000      0.00000000      0.00000000      0.00000000      0.00000000      0.00000000      0.00000000</v>
  </separator>
  <separator name="orbital magnetization" >
   <i type="logical" name="NUCIND"> F  </i>
   <v name="MAGPOS">      0.00000000      0.00000000      0.00000000</v>
   <i type="logical" name="LNICSALL"> T  </i>
   <i type="logical" name="ORBITALMAG"> F  </i>
   <i type="logical" name="LMAGBLOCH"> F  </i>
   <i type="logical" name="LCHIMAG"> F  </i>
   <i type="logical" name="LGAUGE"> T  </i>
   <i type="int" name="MAGATOM">     0</i>
   <v name="MAGDIPOL">      0.00000000      0.00000000      0.00000000</v>
   <v name="AVECCONST">      0.00000000      0.00000000      0.00000000</v>
  </separator>
  <separator name="response functions" >
   <i type="logical" name="LFINITE_TEMPERATURE"> F  </i>
   <i type="logical" name="LADDER"> F  </i>
   <i type="logical" name="LRPAFORCE"> F  </i>
   <i type="logical" name="LFXC"> F  </i>
   <i type="logical" name="LHARTREE"> T  </i>
   <i type="int" name="IBSE">     0</i>
   <v type="int" name="KPOINT">    -1     0     0     0</v>
   <i type="logical" name="LTCTC"> F  </i>
   <i type="logical" name="LTCTE"> F  </i>
   <i type="logical" name="LTETE"> F  </i>
   <i type="logical" name="LTRIPLET"> F  </i>
   <i type="logical" name="LFXCEPS"> F  </i>
   <i type="logical" name="LFXHEG"> F  </i>
   <i type="int" name="NATURALO">     2</i>
   <i type="logical" name="LHOLEGF"> F  </i>
   <i type="logical" name="L2ORDER"> F  </i>
   <i type="logical" name="LDMP1"> F  </i>
   <i type="logical" name="LMP2LT"> F  </i>
   <i type="logical" name="LSMP2LT"> F  </i>
   <i type="logical" name="LGWLF"> F  </i>
   <i name="ENCUTGW">     -2.00000000</i>
   <i name="ENCUTGWSOFT">     -2.00000000</i>
   <i name="ENCUTLF">     -1.00000000</i>
   <i type="logical" name="LESF_SPLINES"> F  </i>
   <i type="int" name="LMAXMP2">    -1</i>
   <i name="SCISSOR">      0.00000000</i>
   <i type="int" name="NOMEGA">     0</i>
   <i type="int" name="NOMEGAR">     0</i>
   <i type="int" name="NBANDSGW">    -1</i>
   <i type="int" name="NBANDSO">    -1</i>
   <i type="int" name="NBANDSV">    -1</i>
   <i type="int" name="NELM">   100</i>
   <i type="int" name="NELMHF">     1</i>
   <i type="int" name="DIM">     3</i>
   <i type="int" name="IESPILON">     4</i>
   <i type="int" name="ANTIRES">     0</i>
   <i name="OMEGAMAX">    -30.00000000</i>
   <i name="OMEGAMIN">    -30.00000000</i>
   <i name="OMEGATL">   -200.00000000</i>
   <i type="int" name="OMEGAGRID">     0</i>
   <i name="CSHIFT">     -0.10000000</i>
   <i type="logical" name="LSELFENERGY"> F  </i>
   <i type="logical" name="LSPECTRAL"> F  </i>
   <i type="logical" name="LSPECTRALGW"> F  </i>
   <i type="logical" name="LSINGLES"> F  </i>
   <i type="logical" name="LFERMIGW"> F  </i>
   <i type="logical" name="ODDONLYGW"> F  </i>
   <i type="logical" name="EVENONLYGW"> F  </i>
   <i type="int" name="NKREDLFX">     1</i>
   <i type="int" name="NKREDLFY">     1</i>
   <i type="int" name="NKREDLFZ">     1</i>
   <i type="int" name="MAXMEM">  2800</i>
   <i type="int" name="TELESCOPE">     0</i>
   <i type="int" name="NTAUPAR">    -1</i>
   <i type="int" name="NOMEGAPAR">    -1</i>
   <i name="DAMP_NEWTON">      0.80000001</i>
   <i name="LAMBDA">      1.00000000</i>
  </separator>
  <separator name="External order field" >
   <i name="OFIELD_KAPPA">      0.00000000</i>
   <v name="OFIELD_K">      0.00000000      0.00000000      0.00000000</v>
   <i name="OFIELD_Q6_NEAR">      0.00000000</i>
   <i name="OFIELD_Q6_FAR">      0.00000000</i>
   <i name="OFIELD_A">      0.00000000</i>
  </separator>
 </parameters>
 <atominfo>
  <atoms>       1 </atoms>
  <types>       1 </types>
  <array name="atoms" >
   <dimension dim="1">ion</dimension>
   <field type="string">element</field>
   <field type="int">atomtype</field>
   <set>
    <rc><c>Al</c><c>   1</c></rc>
   </set>
  </array>
  <array name="atomtypes" >
   <dimension dim="1">type</dimension>
   <field type="int">atomspertype</field>
   <field type="string">element</field>
   <field>mass</field>
   <field>valence</field>
   <field type="string">pseudopotential</field>
   <set>
    <rc><c>   1</c><c>Al</c><c>     26.98100000</c><c>      3.00000000</c><c>  PAW_PBE Al 04Jan2001                  </c></rc>
   </set>
  </array>
 </atominfo>
 <structure name="initialpos" >
  <crystal>
   <varray name="basis" >
    <v>       0.00000000       2.02400000       2.02400000 </v>
    <v>       2.02400000       0.00000000       2.02400000 </v>
    <v>       2.02400000       2.02400000       0.00000000 </v>
   </varray>
   <i name="volume">     16.58293965 </i>
   <varray name="rec_basis" >
    <v>      -0.24703557       0.24703557       0.24703557 </v>
    <v>       0.24703557      -0.24703557       0.24703557 </v>
    <v>       0.24703557       0.24703557      -0.24703557 </v>
   </varray>
  </crystal>
  <varray name="positions" >
   <v>       0.00000000       0.00000000       0.00000000 </v>
  </varray>
 </structure>
 <calculation>
  <scstep>
   <time name="dav">    8.68    8.69</time>
   <time name="total">    8.89    8.89</time>
   <energy>
    <i name="alphaZ">     -0.20254611 </i>
    <i name="ewald">    -73.39295237 </i>
    <i name="hartreedc">     -0.10329695 </i>
    <i name="XCdc">    -26.19545329 </i>
    <i name="pawpsdc">     66.16230985 </i>
    <i name="pawaedc">    -34.20858819 </i>
    <i name="eentropy">      0.00000000 </i>
    <i name="bandstr">     10.73911930 </i>
    <i name="atom">     53.53826395 </i>
    <i name="e_fr_energy">     -3.66314382 </i>
    <i name="e_wo_entrp">     -3.66314382 </i>
    <i name="e_0_energy">     -3.66314382 </i>
   </energy>
  </scstep>
  <scstep>
   <time name="dav">    4.52    4.52</time>
   <time name="total">    4.56    4.56</time>
   <energy>
    <i name="e_fr_energy">     -3.68266073 </i>
    <i name="e_wo_entrp">     -3.68266073 </i>
    <i name="e_0_energy">     -3.68266073 </i>
   </energy>
  </scstep>
  <scstep>
   <time name="dav">   16.32   16.32</time>
   <time name="total">   16.37   16.37</time>
   <energy>
    <i name="e_fr_energy">     -3.68266133 </i>
    <i name="e_wo_entrp">     -3.68266133 </i>
    <i name="e_0_energy">     -3.68266133 </i>
   </energy>
  </scstep>
  <scstep>
   <time name="dav">    5.78    5.78</time>
   <time name="total">    5.83    5.83</time>
   <energy>
    <i name="e_fr_energy">     -3.68266133 </i>
    <i name="e_wo_entrp">     -3.68266133 </i>
    <i name="e_0_energy">     -3.68266133 </i>
   </energy>
  </scstep>
  <scstep>
   <time name="dav">   13.10   13.10</time>
   <time name="total">   13.16   13.16</time>
   <energy>
    <i name="e_fr_energy">     -3.68266133 </i>
    <i name="e_wo_entrp">     -3.68266133 </i>
    <i name="e_0_energy">     -3.68266133 </i>
   </energy>
  </scstep>
  <scstep>
   <time name="diag">    0.30    0.30</time>
   <time name="diis">    0.07    0.07</time>
   <time name="orth">    0.05    0.05</time>
   <time name="total">    0.64    0.64</time>
   <energy>
    <i name="e_fr_energy">     -3.75429089 </i>
    <i name="e_wo_entrp">     -3.75429089 </i>
    <i name="e_0_energy">     -3.75429089 </i>
   </energy>
  </scstep>
  <scstep>
   <time name="diag">    0.29    0.29</time>
   <time name="diis">    0.08    0.08</time>
   <time name="orth">    0.04    0.04</time>
   <time name="total">    0.63    0.63</time>
   <energy>
    <i name="e_fr_energy">     -3.74586818 </i>
    <i name="e_wo_entrp">     -3.74586818 </i>
    <i name="e_0_energy">     -3.74586818 </i>
   </energy>
  </scstep>
  <scstep>
   <time name="diag">    0.29    0.29</time>
   <time name="diis">    0.08    0.08</time>
   <time name="orth">    0.04    0.04</time>
   <time name="total">    0.64    0.64</time>
   <energy>
    <i name="e_fr_energy">     -3.74581141 </i>
    <i name="e_wo_entrp">     -3.74581141 </i>
    <i name="e_0_energy">     -3.74581141 </i>
   </energy>
  </scstep>
  <scstep>
   <time name="diag">    0.29    0.29</time>
   <time name="diis">    0.10    0.10</time>
   <time name="orth">    0.04    0.04</time>
   <time name="total">    0.64    0.64</time>
   <energy>
    <i name="alphaZ">     -0.20254611 </i>
    <i name="ewald">    -73.39295237 </i>
    <i name="hartreedc">     -0.10529408 </i>
    <i name="XCdc">    -26.14070325 </i>
    <i name="pawpsdc">    145.44428174 </i>
    <i name="pawaedc">   -113.49950089 </i>
    <i name="eentropy">      0.00000000 </i>
    <i name="bandstr">     10.61263697 </i>
    <i name="atom">     53.53826395 </i>
    <i name="e_fr_energy">     -3.74581406 </i>
    <i name="e_wo_entrp">     -3.74581406 </i>
    <i name="e_0_energy">     -3.74581406 </i>
   </energy>
  </scstep>
  <structure>
   <crystal>
    <varray name="basis" >
     <v>       0.00000000       2.02400000       2.02400000 </v>
     <v>       2.02400000       0.00000000       2.02400000 </v>
     <v>       2.02400000       2.02400000       0.00000000 </v>
    </varray>
    <i name="volume">     16.58293965 </i>
    <varray name="rec_basis" >
     <v>      -0.24703557       0.24703557       0.24703557 </v>
     <v>       0.24703557      -0.24703557       0.24703557 </v>
     <v>       0.24703557       0.24703557      -0.24703557 </v>
    </varray>
   </crystal>
   <varray name="positions" >
    <v>       0.00000000       0.00000000       0.00000000 </v>
   </varray>
  </structure>
  <varray name="forces" >
   <v>      -0.00000000      -0.00000000      -0.00000000 </v>
  </varray>
  <varray name="stress" >
   <v>      -9.08603537       0.00000000       0.00000000 </v>
   <v>       0.00000000      -9.08603537      -0.00000000 </v>
   <v>       0.00000000       0.00000000      -9.08603537 </v>
  </varray>
  <energy>
   <i name="e_fr_energy">     -3.74581406 </i>
   <i name="e_wo_entrp">     -3.74581406 </i>
   <i name="e_0_energy">     -3.74581406 </i>
  </energy>
  <time name="totalsc">   51.87   51.88</time>
  <eigenvalues>
   <array>
    <dimension dim="1">band</dimension>
    <dimension dim="2">kpoint</dimension>
    <dimension dim="3">spin</dimension>
    <field>eigene</field>
    <field>occ</field>
    <set>
     <set comment="spin 1">
      <set comment="kpoint 1">
       <r>   -3.1509    1.0000 </r>
       <r>   20.5414    0.0000 </r>
       <r>   20.5414    0.0000 </r>
       <r>   20.5414    0.0000 </r>
       <r>   21.9956    0.0000 </r>
       <r>   21.9956    0.0000 </r>
       <r>   21.9956    0.0000 </r>
       <r>   24.3780    0.0000 </r>
       <r>   27.3180    0.0000 </r>
       <r>   27.3180    0.0000 </r>
       <r>   30.1608    0.0000 </r>
       <r>   32.5119    0.0000 </r>
       <r>   32.5119    0.0000 </r>
       <r>   32.5119    0.0000 </r>
       <r>   41.0643    0.0000 </r>
       <r>   56.1534    0.0000 </r>
       <r>   56.3463    0.0000 </r>
       <r>   56.3463    0.0000 </r>
       <r>   56.3463    0.0000 </r>
       <r>   59.2314    0.0000 </r>
       <r>   59.2314    0.0000 </r>
       <r>   59.2314    0.0000 </r>
       <r>   62.8503    0.0000 </r>
       <r>   62.8503    0.0000 </r>
       <r>   65.0886    0.0000 </r>
       <r>   65.0886    0.0000 </r>
       <r>   65.0886    0.0000 </r>
       <r>   73.2290    0.0000 </r>
       <r>   73.2290    0.0000 </r>
       <r>   73.2290    0.0000 </r>
       <r>   80.8299    0.0000 </r>
       <r>   83.1096    0.0000 </r>
       <r>   83.1096    0.0000 </r>
       <r>   87.2253    0.0000 </r>
       <r>   87.2253    0.0000 </r>
       <r>   87.2253    0.0000 </r>
       <r>   90.1083    0.0000 </r>
       <r>   90.1083    0.0000 </r>
       <r>   90.1083    0.0000 </r>
       <r>   90.9108    0.0000 </r>
       <r>   93.4716    0.0000 </r>
       <r>   93.4716    0.0000 </r>
       <r>   93.4716    0.0000 </r>
       <r>   93.9412    0.0000 </r>
       <r>   93.9412    0.0000 </r>
       <r>   93.9412    0.0000 </r>
       <r>   96.3777    0.0000 </r>
       <r>   96.3777    0.0000 </r>
      </set>
      <set comment="kpoint 2">
       <r>   -2.9270    1.0000 </r>
       <r>   17.6199    0.0000 </r>
       <r>   19.8946    0.0000 </r>
       <r>   19.8946    0.0000 </r>
       <r>   22.6704    0.0000 </r>
       <r>   22.9811    0.0000 </r>
       <r>   22.9811    0.0000 </r>
       <r>   26.2048    0.0000 </r>
       <r>   26.2048    0.0000 </r>
       <r>   26.4713    0.0000 </r>
       <r>   29.4092    0.0000 </r>
       <r>   33.6045    0.0000 </r>
       <r>   34.0825    0.0000 </r>
       <r>   34.0825    0.0000 </r>
       <r>   41.9396    0.0000 </r>
       <r>   55.5481    0.0000 </r>
       <r>   55.8077    0.0000 </r>
       <r>   55.8077    0.0000 </r>
       <r>   56.4959    0.0000 </r>
       <r>   57.2967    0.0000 </r>
       <r>   57.2967    0.0000 </r>
       <r>   59.2912    0.0000 </r>
       <r>   61.5966    0.0000 </r>
       <r>   61.5967    0.0000 </r>
       <r>   65.2890    0.0000 </r>
       <r>   68.9502    0.0000 </r>
       <r>   68.9502    0.0000 </r>
       <r>   71.5782    0.0000 </r>
       <r>   73.0293    0.0000 </r>
       <r>   73.0293    0.0000 </r>
       <r>   81.8543    0.0000 </r>
       <r>   81.8543    0.0000 </r>
       <r>   82.3180    0.0000 </r>
       <r>   84.1107    0.0000 </r>
       <r>   85.8104    0.0000 </r>
       <r>   85.8105    0.0000 </r>
       <r>   87.9993    0.0000 </r>
       <r>   87.9994    0.0000 </r>
       <r>   89.0146    0.0000 </r>
       <r>   90.1047    0.0000 </r>
       <r>   91.3118    0.0000 </r>
       <r>   91.3118    0.0000 </r>
       <r>   92.8998    0.0000 </r>
       <r>   94.8090    0.0000 </r>
       <r>   95.6542    0.0000 </r>
       <r>   95.6542    0.0000 </r>
       <r>   97.1109    0.0000 </r>
       <r>   97.1109    0.0000 </r>
      </set>
      <set comment="kpoint 3">
       <r>   -2.2577    1.0000 </r>
       <r>   13.9747    0.0000 </r>
       <r>   19.1614    0.0000 </r>
       <r>   19.1614    0.0000 </r>
       <r>   22.4377    0.0000 </r>
       <r>   23.8039    0.0000 </r>
       <r>   23.8039    0.0000 </r>
       <r>   25.3170    0.0000 </r>
       <r>   25.3170    0.0000 </r>
       <r>   27.8932    0.0000 </r>
       <r>   29.9805    0.0000 </r>
       <r>   36.4317    0.0000 </r>
       <r>   37.2366    0.0000 </r>
       <r>   37.2366    0.0000 </r>
       <r>   44.1471    0.0000 </r>
       <r>   51.7259    0.0000 </r>
       <r>   51.7259    0.0000 </r>
       <r>   53.9607    0.0000 </r>
       <r>   56.6441    0.0000 </r>
       <r>   56.6717    0.0000 </r>
       <r>   56.6717    0.0000 </r>
       <r>   58.9919    0.0000 </r>
       <r>   61.7371    0.0000 </r>
       <r>   61.7371    0.0000 </r>
       <r>   65.8793    0.0000 </r>
       <r>   68.9102    0.0000 </r>
       <r>   71.0872    0.0000 </r>
       <r>   71.0872    0.0000 </r>
       <r>   73.9661    0.0000 </r>
       <r>   73.9661    0.0000 </r>
       <r>   78.8594    0.0000 </r>
       <r>   78.9989    0.0000 </r>
       <r>   78.9989    0.0000 </r>
       <r>   82.8255    0.0000 </r>
       <r>   82.8255    0.0000 </r>
       <r>   84.8283    0.0000 </r>
       <r>   85.6582    0.0000 </r>
       <r>   86.6025    0.0000 </r>
       <r>   86.6025    0.0000 </r>
       <r>   87.5123    0.0000 </r>
       <r>   89.4649    0.0000 </r>
       <r>   90.0272    0.0000 </r>
       <r>   90.0272    0.0000 </r>
       <r>   93.9262    0.0000 </r>
       <r>   97.2961    0.0000 </r>
       <r>   97.2961    0.0000 </r>
       <r>   99.5038    0.0000 </r>
       <r>   99.5038    0.0000 </r>
      </set>
      <set comment="kpoint 4">
       <r>   -1.1490    1.0000 </r>
       <r>   10.5500   -0.0162 </r>
       <r>   18.7525    0.0000 </r>
       <r>   18.7525    0.0000 </r>
       <r>   22.2260    0.0000 </r>
       <r>   22.2586    0.0000 </r>
       <r>   22.2586    0.0000 </r>
       <r>   26.2477    0.0000 </r>
       <r>   27.3623    0.0000 </r>
       <r>   27.3623    0.0000 </r>
       <r>   33.3157    0.0000 </r>
       <r>   40.5193    0.0000 </r>
       <r>   40.8518    0.0000 </r>
       <r>   40.8518    0.0000 </r>
       <r>   47.0386    0.0000 </r>
       <r>   47.3761    0.0000 </r>
       <r>   47.3761    0.0000 </r>
       <r>   51.9600    0.0000 </r>
       <r>   56.6182    0.0000 </r>
       <r>   56.6182    0.0000 </r>
       <r>   56.8728    0.0000 </r>
       <r>   58.1997    0.0000 </r>
       <r>   62.1864    0.0000 </r>
       <r>   62.1864    0.0000 </r>
       <r>   66.3687    0.0000 </r>
       <r>   66.8187    0.0000 </r>
       <r>   67.8479    0.0000 </r>
       <r>   67.8479    0.0000 </r>
       <r>   74.4101    0.0000 </r>
       <r>   74.4101    0.0000 </r>
       <r>   75.7558    0.0000 </r>
       <r>   78.3844    0.0000 </r>
       <r>   79.1343    0.0000 </r>
       <r>   79.1343    0.0000 </r>
       <r>   79.9807    0.0000 </r>
       <r>   79.9807    0.0000 </r>
       <r>   81.1894    0.0000 </r>
       <r>   88.1804    0.0000 </r>
       <r>   88.1804    0.0000 </r>
       <r>   88.7548    0.0000 </r>
       <r>   89.4967    0.0000 </r>
       <r>   89.4967    0.0000 </r>
       <r>   91.1371    0.0000 </r>
       <r>   93.0738    0.0000 </r>
       <r>   97.5224    0.0000 </r>
       <r>   97.5224    0.0000 </r>
       <r>  101.5244    0.0000 </r>
       <r>  102.4669    0.0000 </r>
      </set>
      <set comment="kpoint 5">
       <r>    0.3891    1.0000 </r>
       <r>    7.4474    0.7111 </r>
       <r>   18.7086    0.0000 </r>
       <r>   18.7086    0.0000 </r>
       <r>   20.8293    0.0000 </r>
       <r>   20.8293    0.0000 </r>
       <r>   22.2968    0.0000 </r>
       <r>   24.7599    0.0000 </r>
       <r>   29.8910    0.0000 </r>
       <r>   29.8910    0.0000 </r>
       <r>   36.4457    0.0000 </r>
       <r>   41.9067    0.0000 </r>
       <r>   41.9067    0.0000 </r>
       <r>   45.0439    0.0000 </r>
       <r>   46.4412    0.0000 </r>
       <r>   46.4412    0.0000 </r>
       <r>   48.3418    0.0000 </r>
       <r>   51.7562    0.0000 </r>
       <r>   56.5385    0.0000 </r>
       <r>   56.5385    0.0000 </r>
       <r>   56.5820    0.0000 </r>
       <r>   57.1283    0.0000 </r>
       <r>   61.3661    0.0000 </r>
       <r>   61.3661    0.0000 </r>
       <r>   63.8251    0.0000 </r>
       <r>   64.4193    0.0000 </r>
       <r>   64.4193    0.0000 </r>
       <r>   67.9815    0.0000 </r>
       <r>   69.6772    0.0000 </r>
       <r>   73.8494    0.0000 </r>
       <r>   73.8494    0.0000 </r>
       <r>   76.5663    0.0000 </r>
       <r>   76.9740    0.0000 </r>
       <r>   76.9740    0.0000 </r>
       <r>   78.2252    0.0000 </r>
       <r>   80.4660    0.0000 </r>
       <r>   80.4660    0.0000 </r>
       <r>   88.5526    0.0000 </r>
       <r>   89.1343    0.0000 </r>
       <r>   89.1343    0.0000 </r>
       <r>   90.4802    0.0000 </r>
       <r>   92.0237    0.0000 </r>
       <r>   92.0237    0.0000 </r>
       <r>   94.2787    0.0000 </r>
       <r>   98.9829    0.0000 </r>
       <r>   98.9829    0.0000 </r>
       <r>  102.3536    0.0000 </r>
       <r>  104.1324    0.0000 </r>
      </set>
      <set comment="kpoint 6">
       <r>    2.3420    1.0000 </r>
       <r>    4.7083    1.0000 </r>
       <r>   19.0378    0.0000 </r>
       <r>   19.0378    0.0000 </r>
       <r>   19.7501    0.0000 </r>
       <r>   19.7501    0.0000 </r>
       <r>   22.7341    0.0000 </r>
       <r>   23.5712    0.0000 </r>
       <r>   32.2162    0.0000 </r>
       <r>   32.2162    0.0000 </r>
       <r>   39.0098    0.0000 </r>
       <r>   39.2288    0.0000 </r>
       <r>   39.2288    0.0000 </r>
       <r>   45.8153    0.0000 </r>
       <r>   49.6383    0.0000 </r>
       <r>   50.3287    0.0000 </r>
       <r>   50.3287    0.0000 </r>
       <r>   54.3219    0.0000 </r>
       <r>   55.4956    0.0000 </r>
       <r>   55.6445    0.0000 </r>
       <r>   55.6445    0.0000 </r>
       <r>   57.6966    0.0000 </r>
       <r>   58.0875    0.0000 </r>
       <r>   58.0875    0.0000 </r>
       <r>   61.7652    0.0000 </r>
       <r>   63.6850    0.0000 </r>
       <r>   64.2514    0.0000 </r>
       <r>   64.2514    0.0000 </r>
       <r>   68.9742    0.0000 </r>
       <r>   73.6118    0.0000 </r>
       <r>   73.6118    0.0000 </r>
       <r>   75.5348    0.0000 </r>
       <r>   75.5349    0.0000 </r>
       <r>   76.3330    0.0000 </r>
       <r>   76.8784    0.0000 </r>
       <r>   80.5872    0.0000 </r>
       <r>   80.5872    0.0000 </r>
       <r>   88.6031    0.0000 </r>
       <r>   88.8907    0.0000 </r>
       <r>   88.8907    0.0000 </r>
       <r>   89.2194    0.0000 </r>
       <r>   94.2369    0.0000 </r>
       <r>   95.1157    0.0000 </r>
       <r>   95.1157    0.0000 </r>
       <r>  101.2341    0.0000 </r>
       <r>  101.2341    0.0000 </r>
       <r>  105.1475    0.0000 </r>
       <r>  105.1475    0.0000 </r>
      </set>
      <set comment="kpoint 7">
       <r>   -2.8525    1.0000 </r>
       <r>   18.6325    0.0000 </r>
       <r>   18.6325    0.0000 </r>
       <r>   18.9325    0.0000 </r>
       <r>   21.3286    0.0000 </r>
       <r>   24.2929    0.0000 </r>
       <r>   24.3371    0.0000 </r>
       <r>   24.3371    0.0000 </r>
       <r>   26.5836    0.0000 </r>
       <r>   27.5941    0.0000 </r>
       <r>   30.5950    0.0000 </r>
       <r>   32.8576    0.0000 </r>
       <r>   32.8576    0.0000 </r>
       <r>   35.5679    0.0000 </r>
       <r>   42.3750    0.0000 </r>
       <r>   55.4003    0.0000 </r>
       <r>   55.4003    0.0000 </r>
       <r>   55.6243    0.0000 </r>
       <r>   56.7207    0.0000 </r>
       <r>   57.6298    0.0000 </r>
       <r>   57.6298    0.0000 </r>
       <r>   57.8690    0.0000 </r>
       <r>   59.4275    0.0000 </r>
       <r>   62.7877    0.0000 </r>
       <r>   67.4890    0.0000 </r>
       <r>   67.4891    0.0000 </r>
       <r>   70.4203    0.0000 </r>
       <r>   70.4489    0.0000 </r>
       <r>   73.4834    0.0000 </r>
       <r>   73.4834    0.0000 </r>
       <r>   80.6437    0.0000 </r>
       <r>   82.6050    0.0000 </r>
       <r>   82.7027    0.0000 </r>
       <r>   82.7027    0.0000 </r>
       <r>   83.4231    0.0000 </r>
       <r>   84.1531    0.0000 </r>
       <r>   88.7487    0.0000 </r>
       <r>   90.0971    0.0000 </r>
       <r>   90.0971    0.0000 </r>
       <r>   90.1287    0.0000 </r>
       <r>   90.1287    0.0000 </r>
       <r>   92.1348    0.0000 </r>
       <r>   93.1578    0.0000 </r>
       <r>   94.4254    0.0000 </r>
       <r>   94.8082    0.0000 </r>
       <r>   97.7834    0.0000 </r>
       <r>   97.8117    0.0000 </r>
       <r>   97.8118    0.0000 </r>
      </set>
      <set comment="kpoint 8">
       <r>   -2.3319    1.0000 </r>
       <r>   15.2967    0.0000 </r>
       <r>   17.7063    0.0000 </r>
       <r>   19.0477    0.0000 </r>
       <r>   21.6660    0.0000 </r>
       <r>   22.2814    0.0000 </r>
       <r>   24.7160    0.0000 </r>
       <r>   25.7373    0.0000 </r>
       <r>   27.0779    0.0000 </r>
       <r>   29.5015    0.0000 </r>
       <r>   29.9525    0.0000 </r>
       <r>   34.7309    0.0000 </r>
       <r>   35.0382    0.0000 </r>
       <r>   37.8766    0.0000 </r>
       <r>   44.4229    0.0000 </r>
       <r>   51.7403    0.0000 </r>
       <r>   52.8432    0.0000 </r>
       <r>   55.6281    0.0000 </r>
       <r>   55.8251    0.0000 </r>
       <r>   56.4423    0.0000 </r>
       <r>   57.1622    0.0000 </r>
       <r>   58.0520    0.0000 </r>
       <r>   59.4653    0.0000 </r>
       <r>   62.3480    0.0000 </r>
       <r>   67.4789    0.0000 </r>
       <r>   68.4341    0.0000 </r>
       <r>   71.3376    0.0000 </r>
       <r>   72.5672    0.0000 </r>
       <r>   72.6031    0.0000 </r>
       <r>   74.9321    0.0000 </r>
       <r>   77.3116    0.0000 </r>
       <r>   78.4457    0.0000 </r>
       <r>   80.6817    0.0000 </r>
       <r>   81.7213    0.0000 </r>
       <r>   82.5051    0.0000 </r>
       <r>   84.0989    0.0000 </r>
       <r>   86.2273    0.0000 </r>
       <r>   86.2873    0.0000 </r>
       <r>   89.1490    0.0000 </r>
       <r>   89.2766    0.0000 </r>
       <r>   89.8002    0.0000 </r>
       <r>   91.3663    0.0000 </r>
       <r>   93.7503    0.0000 </r>
       <r>   94.4367    0.0000 </r>
       <r>   94.5309    0.0000 </r>
       <r>   96.1828    0.0000 </r>
       <r>   97.0371    0.0000 </r>
       <r>   97.6354    0.0000 </r>
      </set>
      <set comment="kpoint 9">
       <r>   -1.3700    1.0000 </r>
       <r>   11.8220    0.0000 </r>
       <r>   17.1500    0.0000 </r>
       <r>   18.7075    0.0000 </r>
       <r>   20.0165    0.0000 </r>
       <r>   23.7963    0.0000 </r>
       <r>   24.6503    0.0000 </r>
       <r>   24.7586    0.0000 </r>
       <r>   28.2551    0.0000 </r>
       <r>   28.5409    0.0000 </r>
       <r>   33.0565    0.0000 </r>
       <r>   38.0862    0.0000 </r>
       <r>   39.0275    0.0000 </r>
       <r>   40.8817    0.0000 </r>
       <r>   47.1400    0.0000 </r>
       <r>   47.3317    0.0000 </r>
       <r>   49.0922    0.0000 </r>
       <r>   53.7471    0.0000 </r>
       <r>   55.7186    0.0000 </r>
       <r>   56.4351    0.0000 </r>
       <r>   57.2932    0.0000 </r>
       <r>   58.5897    0.0000 </r>
       <r>   58.7688    0.0000 </r>
       <r>   62.5613    0.0000 </r>
       <r>   65.0282    0.0000 </r>
       <r>   68.7982    0.0000 </r>
       <r>   68.8629    0.0000 </r>
       <r>   71.5464    0.0000 </r>
       <r>   72.0298    0.0000 </r>
       <r>   73.7394    0.0000 </r>
       <r>   77.0174    0.0000 </r>
       <r>   77.1438    0.0000 </r>
       <r>   78.6205    0.0000 </r>
       <r>   80.6954    0.0000 </r>
       <r>   81.0280    0.0000 </r>
       <r>   81.4898    0.0000 </r>
       <r>   82.6357    0.0000 </r>
       <r>   86.7637    0.0000 </r>
       <r>   86.8087    0.0000 </r>
       <r>   87.0599    0.0000 </r>
       <r>   91.0372    0.0000 </r>
       <r>   92.3999    0.0000 </r>
       <r>   92.6165    0.0000 </r>
       <r>   94.1607    0.0000 </r>
       <r>   94.4954    0.0000 </r>
       <r>   97.2844    0.0000 </r>
       <r>   99.7522    0.0000 </r>
       <r>  100.8102    0.0000 </r>
      </set>
      <set comment="kpoint 10">
       <r>    0.0243    1.0000 </r>
       <r>    8.6213    0.1967 </r>
       <r>   16.9708    0.0000 </r>
       <r>   18.3671    0.0000 </r>
       <r>   18.6188    0.0000 </r>
       <r>   23.2993    0.0000 </r>
       <r>   24.3950    0.0000 </r>
       <r>   26.0466    0.0000 </r>
       <r>   27.2174    0.0000 </r>
       <r>   30.8526    0.0000 </r>
       <r>   36.2814    0.0000 </r>
       <r>   40.8750    0.0000 </r>
       <r>   43.2369    0.0000 </r>
       <r>   43.7196    0.0000 </r>
       <r>   44.2218    0.0000 </r>
       <r>   46.3890    0.0000 </r>
       <r>   49.8034    0.0000 </r>
       <r>   52.2933    0.0000 </r>
       <r>   55.8542    0.0000 </r>
       <r>   56.5165    0.0000 </r>
       <r>   56.8847    0.0000 </r>
       <r>   57.7193    0.0000 </r>
       <r>   59.1800    0.0000 </r>
       <r>   61.7922    0.0000 </r>
       <r>   63.2570    0.0000 </r>
       <r>   64.9550    0.0000 </r>
       <r>   66.4655    0.0000 </r>
       <r>   70.4427    0.0000 </r>
       <r>   70.4936    0.0000 </r>
       <r>   71.3757    0.0000 </r>
       <r>   72.6073    0.0000 </r>
       <r>   76.1421    0.0000 </r>
       <r>   77.1683    0.0000 </r>
       <r>   78.1988    0.0000 </r>
       <r>   80.6084    0.0000 </r>
       <r>   81.5508    0.0000 </r>
       <r>   83.3510    0.0000 </r>
       <r>   84.6245    0.0000 </r>
       <r>   87.2948    0.0000 </r>
       <r>   88.6312    0.0000 </r>
       <r>   92.5453    0.0000 </r>
       <r>   93.6075    0.0000 </r>
       <r>   93.7395    0.0000 </r>
       <r>   94.5063    0.0000 </r>
       <r>   96.1967    0.0000 </r>
       <r>   98.3439    0.0000 </r>
       <r>  101.1556    0.0000 </r>
       <r>  103.2949    0.0000 </r>
      </set>
      <set comment="kpoint 11">
       <r>    1.8383    1.0000 </r>
       <r>    5.7648    1.0451 </r>
       <r>   17.1436    0.0000 </r>
       <r>   17.1711    0.0000 </r>
       <r>   18.8346    0.0000 </r>
       <r>   22.1221    0.0000 </r>
       <r>   24.6455    0.0000 </r>
       <r>   25.3365    0.0000 </r>
       <r>   29.4692    0.0000 </r>
       <r>   32.7334    0.0000 </r>
       <r>   39.1084    0.0000 </r>
       <r>   39.1551    0.0000 </r>
       <r>   40.6691    0.0000 </r>
       <r>   47.1295    0.0000 </r>
       <r>   47.4477    0.0000 </r>
       <r>   48.7493    0.0000 </r>
       <r>   49.8202    0.0000 </r>
       <r>   54.2551    0.0000 </r>
       <r>   55.1208    0.0000 </r>
       <r>   55.8417    0.0000 </r>
       <r>   56.4866    0.0000 </r>
       <r>   56.8746    0.0000 </r>
       <r>   58.7485    0.0000 </r>
       <r>   59.1558    0.0000 </r>
       <r>   62.1773    0.0000 </r>
       <r>   62.8485    0.0000 </r>
       <r>   64.0118    0.0000 </r>
       <r>   66.0898    0.0000 </r>
       <r>   69.1289    0.0000 </r>
       <r>   69.7810    0.0000 </r>
       <r>   71.9628    0.0000 </r>
       <r>   74.9723    0.0000 </r>
       <r>   76.1298    0.0000 </r>
       <r>   78.1403    0.0000 </r>
       <r>   80.4472    0.0000 </r>
       <r>   81.2981    0.0000 </r>
       <r>   82.7966    0.0000 </r>
       <r>   83.6293    0.0000 </r>
       <r>   88.4802    0.0000 </r>
       <r>   88.7144    0.0000 </r>
       <r>   92.4057    0.0000 </r>
       <r>   94.6516    0.0000 </r>
       <r>   95.6828    0.0000 </r>
       <r>   96.9682    0.0000 </r>
       <r>   99.6995    0.0000 </r>
       <r>  101.4022    0.0000 </r>
       <r>  101.4774    0.0000 </r>
       <r>  102.1871    0.0000 </r>
      </set>
      <set comment="kpoint 12">
       <r>    3.2645    1.0000 </r>
       <r>    4.0768    1.0000 </r>
       <r>   16.2852    0.0000 </r>
       <r>   17.7521    0.0000 </r>
       <r>   19.4601    0.0000 </r>
       <r>   21.2989    0.0000 </r>
       <r>   24.2603    0.0000 </r>
       <r>   25.4728    0.0000 </r>
       <r>   31.7404    0.0000 </r>
       <r>   31.8971    0.0000 </r>
       <r>   38.0396    0.0000 </r>
       <r>   39.7874    0.0000 </r>
       <r>   40.5306    0.0000 </r>
       <r>   46.3982    0.0000 </r>
       <r>   49.4101    0.0000 </r>
       <r>   50.6330    0.0000 </r>
       <r>   51.4191    0.0000 </r>
       <r>   53.7244    0.0000 </r>
       <r>   55.0676    0.0000 </r>
       <r>   55.4495    0.0000 </r>
       <r>   56.4706    0.0000 </r>
       <r>   57.0968    0.0000 </r>
       <r>   57.3613    0.0000 </r>
       <r>   58.9142    0.0000 </r>
       <r>   61.7303    0.0000 </r>
       <r>   61.8881    0.0000 </r>
       <r>   62.8310    0.0000 </r>
       <r>   64.7829    0.0000 </r>
       <r>   68.8656    0.0000 </r>
       <r>   69.3410    0.0000 </r>
       <r>   72.1836    0.0000 </r>
       <r>   74.6737    0.0000 </r>
       <r>   76.1338    0.0000 </r>
       <r>   78.2245    0.0000 </r>
       <r>   80.1839    0.0000 </r>
       <r>   81.3931    0.0000 </r>
       <r>   82.1719    0.0000 </r>
       <r>   83.5042    0.0000 </r>
       <r>   88.5170    0.0000 </r>
       <r>   88.6503    0.0000 </r>
       <r>   92.1518    0.0000 </r>
       <r>   94.9058    0.0000 </r>
       <r>   96.6095    0.0000 </r>
       <r>   98.1890    0.0000 </r>
       <r>   99.9563    0.0000 </r>
       <r>  100.6367    0.0000 </r>
       <r>  103.7379    0.0000 </r>
       <r>  104.5961    0.0000 </r>
      </set>
      <set comment="kpoint 13">
       <r>    1.1881    1.0000 </r>
       <r>    6.6746    1.0095 </r>
       <r>   15.8203    0.0000 </r>
       <r>   18.7112    0.0000 </r>
       <r>   20.4704    0.0000 </r>
       <r>   20.8470    0.0000 </r>
       <r>   23.7280    0.0000 </r>
       <r>   26.4153    0.0000 </r>
       <r>   29.2343    0.0000 </r>
       <r>   31.3154    0.0000 </r>
       <r>   38.1094    0.0000 </r>
       <r>   39.3534    0.0000 </r>
       <r>   42.8076    0.0000 </r>
       <r>   45.2765    0.0000 </r>
       <r>   46.5819    0.0000 </r>
       <r>   48.6988    0.0000 </r>
       <r>   49.4313    0.0000 </r>
       <r>   53.6416    0.0000 </r>
       <r>   55.6977    0.0000 </r>
       <r>   55.9629    0.0000 </r>
       <r>   56.0101    0.0000 </r>
       <r>   57.8796    0.0000 </r>
       <r>   59.2105    0.0000 </r>
       <r>   60.5671    0.0000 </r>
       <r>   60.9723    0.0000 </r>
       <r>   62.8456    0.0000 </r>
       <r>   64.9304    0.0000 </r>
       <r>   68.6740    0.0000 </r>
       <r>   69.3886    0.0000 </r>
       <r>   70.1736    0.0000 </r>
       <r>   71.3753    0.0000 </r>
       <r>   75.3409    0.0000 </r>
       <r>   76.4659    0.0000 </r>
       <r>   78.7811    0.0000 </r>
       <r>   79.8542    0.0000 </r>
       <r>   81.7550    0.0000 </r>
       <r>   82.9839    0.0000 </r>
       <r>   83.6877    0.0000 </r>
       <r>   87.9143    0.0000 </r>
       <r>   88.1090    0.0000 </r>
       <r>   92.9482    0.0000 </r>
       <r>   93.6733    0.0000 </r>
       <r>   94.8367    0.0000 </r>
       <r>   95.9119    0.0000 </r>
       <r>   98.8207    0.0000 </r>
       <r>  100.2069    0.0000 </r>
       <r>  102.4304    0.0000 </r>
       <r>  106.0695    0.0000 </r>
      </set>
      <set comment="kpoint 14">
       <r>   -0.4878    1.0000 </r>
       <r>    9.6460   -0.0577 </r>
       <r>   15.7548    0.0000 </r>
       <r>   20.0186    0.0000 </r>
       <r>   20.7857    0.0000 </r>
       <r>   21.8416    0.0000 </r>
       <r>   23.5157    0.0000 </r>
       <r>   26.5220    0.0000 </r>
       <r>   27.4034    0.0000 </r>
       <r>   29.3535    0.0000 </r>
       <r>   35.3850    0.0000 </r>
       <r>   39.7916    0.0000 </r>
       <r>   42.2434    0.0000 </r>
       <r>   43.8514    0.0000 </r>
       <r>   43.9697    0.0000 </r>
       <r>   48.0402    0.0000 </r>
       <r>   48.8682    0.0000 </r>
       <r>   52.0072    0.0000 </r>
       <r>   55.9007    0.0000 </r>
       <r>   56.1772    0.0000 </r>
       <r>   57.4490    0.0000 </r>
       <r>   58.0436    0.0000 </r>
       <r>   60.0455    0.0000 </r>
       <r>   61.4338    0.0000 </r>
       <r>   64.0439    0.0000 </r>
       <r>   65.0076    0.0000 </r>
       <r>   68.3982    0.0000 </r>
       <r>   70.3555    0.0000 </r>
       <r>   70.6089    0.0000 </r>
       <r>   72.6908    0.0000 </r>
       <r>   75.2186    0.0000 </r>
       <r>   75.9263    0.0000 </r>
       <r>   77.6370    0.0000 </r>
       <r>   78.8831    0.0000 </r>
       <r>   79.4152    0.0000 </r>
       <r>   82.9965    0.0000 </r>
       <r>   84.3427    0.0000 </r>
       <r>   84.6884    0.0000 </r>
       <r>   86.1510    0.0000 </r>
       <r>   86.7855    0.0000 </r>
       <r>   90.8436    0.0000 </r>
       <r>   91.1414    0.0000 </r>
       <r>   94.5648    0.0000 </r>
       <r>   95.2845    0.0000 </r>
       <r>   96.3241    0.0000 </r>
       <r>   99.7530    0.0000 </r>
       <r>  100.6639    0.0000 </r>
       <r>  104.0648    0.0000 </r>
      </set>
      <set comment="kpoint 15">
       <r>   -1.7392    1.0000 </r>
       <r>   12.9267    0.0000 </r>
       <r>   16.1034    0.0000 </r>
       <r>   20.9374    0.0000 </r>
       <r>   21.7516    0.0000 </r>
       <r>   23.4409    0.0000 </r>
       <r>   23.6131    0.0000 </r>
       <r>   24.2063    0.0000 </r>
       <r>   26.3105    0.0000 </r>
       <r>   29.6167    0.0000 </r>
       <r>   32.1562    0.0000 </r>
       <r>   36.0544    0.0000 </r>
       <r>   38.4273    0.0000 </r>
       <r>   40.4593    0.0000 </r>
       <r>   45.9063    0.0000 </r>
       <r>   47.7004    0.0000 </r>
       <r>   51.8872    0.0000 </r>
       <r>   53.8811    0.0000 </r>
       <r>   55.7495    0.0000 </r>
       <r>   56.0383    0.0000 </r>
       <r>   57.3510    0.0000 </r>
       <r>   59.1117    0.0000 </r>
       <r>   59.4791    0.0000 </r>
       <r>   61.1139    0.0000 </r>
       <r>   67.0137    0.0000 </r>
       <r>   68.5688    0.0000 </r>
       <r>   69.4872    0.0000 </r>
       <r>   71.0290    0.0000 </r>
       <r>   73.8523    0.0000 </r>
       <r>   74.8537    0.0000 </r>
       <r>   76.9793    0.0000 </r>
       <r>   77.8935    0.0000 </r>
       <r>   78.8772    0.0000 </r>
       <r>   79.2120    0.0000 </r>
       <r>   82.7641    0.0000 </r>
       <r>   83.2075    0.0000 </r>
       <r>   84.6734    0.0000 </r>
       <r>   85.3467    0.0000 </r>
       <r>   86.7015    0.0000 </r>
       <r>   87.0213    0.0000 </r>
       <r>   89.1750    0.0000 </r>
       <r>   90.7854    0.0000 </r>
       <r>   91.6836    0.0000 </r>
       <r>   94.4738    0.0000 </r>
       <r>   96.4475    0.0000 </r>
       <r>   97.1971    0.0000 </r>
       <r>   99.3968    0.0000 </r>
       <r>  101.4857    0.0000 </r>
      </set>
      <set comment="kpoint 16">
       <r>   -2.5548    1.0000 </r>
       <r>   16.1364    0.0000 </r>
       <r>   17.1427    0.0000 </r>
       <r>   21.1216    0.0000 </r>
       <r>   22.3034    0.0000 </r>
       <r>   23.3739    0.0000 </r>
       <r>   24.1101    0.0000 </r>
       <r>   24.4767    0.0000 </r>
       <r>   25.4833    0.0000 </r>
       <r>   28.8076    0.0000 </r>
       <r>   30.2765    0.0000 </r>
       <r>   33.2776    0.0000 </r>
       <r>   35.6241    0.0000 </r>
       <r>   36.9565    0.0000 </r>
       <r>   43.3426    0.0000 </r>
       <r>   52.1888    0.0000 </r>
       <r>   55.4176    0.0000 </r>
       <r>   55.6973    0.0000 </r>
       <r>   55.7564    0.0000 </r>
       <r>   55.9430    0.0000 </r>
       <r>   57.1710    0.0000 </r>
       <r>   59.4265    0.0000 </r>
       <r>   59.9005    0.0000 </r>
       <r>   60.9850    0.0000 </r>
       <r>   68.6385    0.0000 </r>
       <r>   68.9994    0.0000 </r>
       <r>   69.5520    0.0000 </r>
       <r>   71.6355    0.0000 </r>
       <r>   73.0985    0.0000 </r>
       <r>   73.7365    0.0000 </r>
       <r>   80.0965    0.0000 </r>
       <r>   80.4266    0.0000 </r>
       <r>   80.8146    0.0000 </r>
       <r>   81.9637    0.0000 </r>
       <r>   82.4582    0.0000 </r>
       <r>   86.1240    0.0000 </r>
       <r>   86.2578    0.0000 </r>
       <r>   86.8365    0.0000 </r>
       <r>   87.4678    0.0000 </r>
       <r>   89.9052    0.0000 </r>
       <r>   90.7994    0.0000 </r>
       <r>   92.2709    0.0000 </r>
       <r>   92.3974    0.0000 </r>
       <r>   92.9638    0.0000 </r>
       <r>   93.3506    0.0000 </r>
       <r>   95.7717    0.0000 </r>
       <r>   97.7356    0.0000 </r>
       <r>   98.7572    0.0000 </r>
      </set>
      <set comment="kpoint 17">
       <r>   -1.9611    1.0000 </r>
       <r>   16.6295    0.0000 </r>
       <r>   16.6295    0.0000 </r>
       <r>   16.7624    0.0000 </r>
       <r>   19.5898    0.0000 </r>
       <r>   19.9626    0.0000 </r>
       <r>   27.5162    0.0000 </r>
       <r>   27.5162    0.0000 </r>
       <r>   28.4125    0.0000 </r>
       <r>   30.5409    0.0000 </r>
       <r>   32.5184    0.0000 </r>
       <r>   33.9987    0.0000 </r>
       <r>   33.9987    0.0000 </r>
       <r>   38.7755    0.0000 </r>
       <r>   46.5409    0.0000 </r>
       <r>   51.7877    0.0000 </r>
       <r>   51.7877    0.0000 </r>
       <r>   52.4562    0.0000 </r>
       <r>   54.7178    0.0000 </r>
       <r>   57.0706    0.0000 </r>
       <r>   57.1469    0.0000 </r>
       <r>   57.1469    0.0000 </r>
       <r>   59.9615    0.0000 </r>
       <r>   61.7356    0.0000 </r>
       <r>   66.8840    0.0000 </r>
       <r>   70.0907    0.0000 </r>
       <r>   70.0907    0.0000 </r>
       <r>   72.4891    0.0000 </r>
       <r>   72.4891    0.0000 </r>
       <r>   76.2289    0.0000 </r>
       <r>   76.2665    0.0000 </r>
       <r>   78.0754    0.0000 </r>
       <r>   78.2306    0.0000 </r>
       <r>   78.2306    0.0000 </r>
       <r>   82.5127    0.0000 </r>
       <r>   84.1515    0.0000 </r>
       <r>   87.3760    0.0000 </r>
       <r>   87.3760    0.0000 </r>
       <r>   88.2268    0.0000 </r>
       <r>   89.8770    0.0000 </r>
       <r>   91.7977    0.0000 </r>
       <r>   91.7977    0.0000 </r>
       <r>   93.5284    0.0000 </r>
       <r>   93.6366    0.0000 </r>
       <r>   93.6366    0.0000 </r>
       <r>   93.7548    0.0000 </r>
       <r>   98.1633    0.0000 </r>
       <r>   98.2810    0.0000 </r>
      </set>
      <set comment="kpoint 18">
       <r>   -1.1490    1.0000 </r>
       <r>   13.4112    0.0000 </r>
       <r>   15.9352    0.0000 </r>
       <r>   17.2249    0.0000 </r>
       <r>   17.5075    0.0000 </r>
       <r>   20.4898    0.0000 </r>
       <r>   27.4388    0.0000 </r>
       <r>   28.1404    0.0000 </r>
       <r>   29.8088    0.0000 </r>
       <r>   31.3805    0.0000 </r>
       <r>   33.6742    0.0000 </r>
       <r>   36.1730    0.0000 </r>
       <r>   37.4472    0.0000 </r>
       <r>   40.5710    0.0000 </r>
       <r>   47.3012    0.0000 </r>
       <r>   49.0874    0.0000 </r>
       <r>   49.5131    0.0000 </r>
       <r>   52.7289    0.0000 </r>
       <r>   54.5593    0.0000 </r>
       <r>   56.0543    0.0000 </r>
       <r>   57.1548    0.0000 </r>
       <r>   57.4037    0.0000 </r>
       <r>   59.8941    0.0000 </r>
       <r>   61.0679    0.0000 </r>
       <r>   64.8050    0.0000 </r>
       <r>   68.4499    0.0000 </r>
       <r>   68.8582    0.0000 </r>
       <r>   71.0368    0.0000 </r>
       <r>   71.3330    0.0000 </r>
       <r>   73.8747    0.0000 </r>
       <r>   76.9560    0.0000 </r>
       <r>   77.3070    0.0000 </r>
       <r>   77.8621    0.0000 </r>
       <r>   79.3831    0.0000 </r>
       <r>   82.0194    0.0000 </r>
       <r>   82.7934    0.0000 </r>
       <r>   84.8936    0.0000 </r>
       <r>   86.0309    0.0000 </r>
       <r>   87.7032    0.0000 </r>
       <r>   89.9823    0.0000 </r>
       <r>   90.2213    0.0000 </r>
       <r>   91.9305    0.0000 </r>
       <r>   92.7761    0.0000 </r>
       <r>   93.6642    0.0000 </r>
       <r>   94.5572    0.0000 </r>
       <r>   98.0355    0.0000 </r>
       <r>   98.3053    0.0000 </r>
       <r>   98.9484    0.0000 </r>
      </set>
      <set comment="kpoint 19">
       <r>    0.0969    1.0000 </r>
       <r>   10.1739   -0.0476 </r>
       <r>   15.6217    0.0000 </r>
       <r>   15.6231    0.0000 </r>
       <r>   17.2767    0.0000 </r>
       <r>   22.6125    0.0000 </r>
       <r>   26.0861    0.0000 </r>
       <r>   28.1635    0.0000 </r>
       <r>   29.9234    0.0000 </r>
       <r>   31.9567    0.0000 </r>
       <r>   36.9958    0.0000 </r>
       <r>   39.4959    0.0000 </r>
       <r>   42.2232    0.0000 </r>
       <r>   42.8769    0.0000 </r>
       <r>   43.3787    0.0000 </r>
       <r>   45.9941    0.0000 </r>
       <r>   52.4779    0.0000 </r>
       <r>   53.5727    0.0000 </r>
       <r>   54.4978    0.0000 </r>
       <r>   54.7367    0.0000 </r>
       <r>   56.4751    0.0000 </r>
       <r>   57.2071    0.0000 </r>
       <r>   59.0688    0.0000 </r>
       <r>   60.9307    0.0000 </r>
       <r>   62.5837    0.0000 </r>
       <r>   65.4877    0.0000 </r>
       <r>   66.1910    0.0000 </r>
       <r>   68.3959    0.0000 </r>
       <r>   69.7030    0.0000 </r>
       <r>   72.8834    0.0000 </r>
       <r>   74.9510    0.0000 </r>
       <r>   75.5054    0.0000 </r>
       <r>   77.7092    0.0000 </r>
       <r>   78.3322    0.0000 </r>
       <r>   81.1941    0.0000 </r>
       <r>   81.4957    0.0000 </r>
       <r>   83.3651    0.0000 </r>
       <r>   87.2630    0.0000 </r>
       <r>   87.6653    0.0000 </r>
       <r>   90.3009    0.0000 </r>
       <r>   91.9090    0.0000 </r>
       <r>   93.1194    0.0000 </r>
       <r>   93.3456    0.0000 </r>
       <r>   94.6826    0.0000 </r>
       <r>   97.4731    0.0000 </r>
       <r>   98.2774    0.0000 </r>
       <r>   99.6521    0.0000 </r>
       <r>  101.7563    0.0000 </r>
      </set>
      <set comment="kpoint 20">
       <r>    1.7647    1.0000 </r>
       <r>    7.2261    0.8247 </r>
       <r>   14.2170    0.0000 </r>
       <r>   15.6931    0.0000 </r>
       <r>   17.4284    0.0000 </r>
       <r>   24.8548    0.0000 </r>
       <r>   25.1547    0.0000 </r>
       <r>   28.0083    0.0000 </r>
       <r>   29.1371    0.0000 </r>
       <r>   33.3428    0.0000 </r>
       <r>   39.6343    0.0000 </r>
       <r>   39.8746    0.0000 </r>
       <r>   41.4585    0.0000 </r>
       <r>   44.8158    0.0000 </r>
       <r>   46.4977    0.0000 </r>
       <r>   48.0647    0.0000 </r>
       <r>   51.2975    0.0000 </r>
       <r>   53.3493    0.0000 </r>
       <r>   54.4460    0.0000 </r>
       <r>   54.9224    0.0000 </r>
       <r>   56.4621    0.0000 </r>
       <r>   57.2186    0.0000 </r>
       <r>   57.9852    0.0000 </r>
       <r>   60.4329    0.0000 </r>
       <r>   61.2316    0.0000 </r>
       <r>   63.5493    0.0000 </r>
       <r>   63.9322    0.0000 </r>
       <r>   65.5764    0.0000 </r>
       <r>   67.0519    0.0000 </r>
       <r>   69.7385    0.0000 </r>
       <r>   72.5803    0.0000 </r>
       <r>   74.8049    0.0000 </r>
       <r>   76.5406    0.0000 </r>
       <r>   76.9554    0.0000 </r>
       <r>   80.3330    0.0000 </r>
       <r>   81.6259    0.0000 </r>
       <r>   84.9861    0.0000 </r>
       <r>   87.6009    0.0000 </r>
       <r>   87.8372    0.0000 </r>
       <r>   90.4798    0.0000 </r>
       <r>   93.0278    0.0000 </r>
       <r>   93.6308    0.0000 </r>
       <r>   96.4241    0.0000 </r>
       <r>   96.9063    0.0000 </r>
       <r>   98.8224    0.0000 </r>
       <r>  100.3925    0.0000 </r>
       <r>  100.6728    0.0000 </r>
       <r>  102.7562    0.0000 </r>
      </set>
      <set comment="kpoint 21">
       <r>    3.8259    1.0000 </r>
       <r>    4.6458    1.0000 </r>
       <r>   13.2093    0.0000 </r>
       <r>   16.1455    0.0000 </r>
       <r>   17.9547    0.0000 </r>
       <r>   23.9323    0.0000 </r>
       <r>   26.4088    0.0000 </r>
       <r>   28.7908    0.0000 </r>
       <r>   29.3999    0.0000 </r>
       <r>   31.8373    0.0000 </r>
       <r>   37.9411    0.0000 </r>
       <r>   40.7320    0.0000 </r>
       <r>   42.5958    0.0000 </r>
       <r>   47.2129    0.0000 </r>
       <r>   49.1930    0.0000 </r>
       <r>   49.7743    0.0000 </r>
       <r>   50.1450    0.0000 </r>
       <r>   54.3282    0.0000 </r>
       <r>   54.6777    0.0000 </r>
       <r>   54.9667    0.0000 </r>
       <r>   55.6000    0.0000 </r>
       <r>   56.5924    0.0000 </r>
       <r>   57.7008    0.0000 </r>
       <r>   59.3361    0.0000 </r>
       <r>   61.4896    0.0000 </r>
       <r>   61.6602    0.0000 </r>
       <r>   62.9194    0.0000 </r>
       <r>   63.5633    0.0000 </r>
       <r>   65.5258    0.0000 </r>
       <r>   67.1729    0.0000 </r>
       <r>   72.5755    0.0000 </r>
       <r>   75.1177    0.0000 </r>
       <r>   76.4712    0.0000 </r>
       <r>   76.5833    0.0000 </r>
       <r>   79.6561    0.0000 </r>
       <r>   80.7567    0.0000 </r>
       <r>   85.1768    0.0000 </r>
       <r>   87.6375    0.0000 </r>
       <r>   88.4279    0.0000 </r>
       <r>   89.3412    0.0000 </r>
       <r>   93.1304    0.0000 </r>
       <r>   94.8683    0.0000 </r>
       <r>   97.8037    0.0000 </r>
       <r>   98.7185    0.0000 </r>
       <r>   99.6493    0.0000 </r>
       <r>  100.0635    0.0000 </r>
       <r>  102.9098    0.0000 </r>
       <r>  106.2196    0.0000 </r>
      </set>
      <set comment="kpoint 22">
       <r>    2.4132    1.0000 </r>
       <r>    6.3069    1.0782 </r>
       <r>   12.6166    0.0000 </r>
       <r>   16.9805    0.0000 </r>
       <r>   18.8758    0.0000 </r>
       <r>   23.3621    0.0000 </r>
       <r>   25.9767    0.0000 </r>
       <r>   28.9272    0.0000 </r>
       <r>   29.8014    0.0000 </r>
       <r>   30.6561    0.0000 </r>
       <r>   36.4172    0.0000 </r>
       <r>   41.2873    0.0000 </r>
       <r>   43.8148    0.0000 </r>
       <r>   44.9513    0.0000 </r>
       <r>   48.4063    0.0000 </r>
       <r>   49.9088    0.0000 </r>
       <r>   51.5315    0.0000 </r>
       <r>   54.3201    0.0000 </r>
       <r>   55.1465    0.0000 </r>
       <r>   55.2582    0.0000 </r>
       <r>   56.0058    0.0000 </r>
       <r>   56.0372    0.0000 </r>
       <r>   58.7567    0.0000 </r>
       <r>   59.3845    0.0000 </r>
       <r>   60.4604    0.0000 </r>
       <r>   60.5601    0.0000 </r>
       <r>   63.9079    0.0000 </r>
       <r>   64.1029    0.0000 </r>
       <r>   65.8077    0.0000 </r>
       <r>   70.0555    0.0000 </r>
       <r>   73.4915    0.0000 </r>
       <r>   74.4336    0.0000 </r>
       <r>   76.6453    0.0000 </r>
       <r>   77.2836    0.0000 </r>
       <r>   79.1498    0.0000 </r>
       <r>   80.9355    0.0000 </r>
       <r>   84.6505    0.0000 </r>
       <r>   87.1725    0.0000 </r>
       <r>   87.9242    0.0000 </r>
       <r>   89.7371    0.0000 </r>
       <r>   90.2885    0.0000 </r>
       <r>   95.4244    0.0000 </r>
[...]
       <set comment="band 2">
        <r>  0.0791  0.0240  0.0004  0.1389  0.0000  0.0000  0.0000  0.0000  0.0000 </r>
       </set>
       <set comment="band 3">
        <r>  0.0575  0.0774  0.0035  0.0633  0.0000  0.0000  0.0000  0.0000  0.0000 </r>
       </set>
       <set comment="band 4">
        <r>  0.2139  0.0064  0.1193  0.0134  0.0000  0.0000  0.0000  0.0000  0.0000 </r>
       </set>
       <set comment="band 5">
        <r>  0.0127  0.1191  0.0101  0.0650  0.0000  0.0000  0.0000  0.0000  0.0000 </r>
       </set>
       <set comment="band 6">
        <r>  0.0341  0.0895  0.0329  0.0044  0.0000  0.0000  0.0000  0.0000  0.0000 </r>
       </set>
       <set comment="band 7">
        <r>  0.0400  0.1195  0.0002  0.0387  0.0000  0.0000  0.0000  0.0000  0.0000 </r>
       </set>
       <set comment="band 8">
        <r>  0.0195  0.0408  0.0774  0.0079  0.0000  0.0000  0.0000  0.0000  0.0000 </r>
       </set>
       <set comment="band 9">
        <r>  0.0099  0.0004  0.0106  0.0552  0.0000  0.0000  0.0000  0.0000  0.0000 </r>
       </set>
       <set comment="band 10">
        <r>  0.0004  0.0032  0.0105  0.0087  0.0000  0.0000  0.0000  0.0000  0.0000 </r>
       </set>
       <set comment="band 11">
        <r>  0.0705  0.0048  0.0473  0.0000  0.0000  0.0000  0.0000  0.0000  0.0000 </r>
       </set>
       <set comment="band 12">
        <r>  0.0459  0.0029  0.0013  0.0121  0.0000  0.0000  0.0000  0.0000  0.0000 </r>
       </set>
       <set comment="band 13">
        <r>  0.0002  0.0014  0.0455  0.1083  0.0000  0.0000  0.0000  0.0000  0.0000 </r>
       </set>
       <set comment="band 14">
        <r>  0.0102  0.0100  0.0144  0.0292  0.0000  0.0000  0.0000  0.0000  0.0000 </r>
       </set>
       <set comment="band 15">
        <r>  0.0976  0.0000  0.0963  0.0402  0.0000  0.0000  0.0000  0.0000  0.0000 </r>
       </set>
       <set comment="band 16">
        <r>  0.0321  0.0626  0.1291  0.0643  0.0000  0.0000  0.0000  0.0000  0.0000 </r>
       </set>
       <set comment="band 17">
        <r>  0.2709  0.0447  0.2482  0.0272  0.0000  0.0000  0.0000  0.0000  0.0000 </r>
       </set>
       <set comment="band 18">
        <r>  0.3986  0.0012  0.0750  0.0737  0.0000  0.0000  0.0000  0.0000  0.0000 </r>
       </set>
       <set comment="band 19">
        <r>  0.2648  0.4806  0.0020  0.8524  0.0000  0.0000  0.0000  0.0000  0.0000 </r>
       </set>
       <set comment="band 20">
        <r>  6.1217  0.1548  0.2878  0.0130  0.0000  0.0000  0.0000  0.0000  0.0000 </r>
       </set>
       <set comment="band 21">
        <r>  0.3279  2.2007  0.1043  0.4480  0.0000  0.0000  0.0000  0.0000  0.0000 </r>
       </set>
       <set comment="band 22">
        <r>  2.1692  0.0091  0.0141  0.1895  0.0000  0.0000  0.0000  0.0000  0.0000 </r>
       </set>
       <set comment="band 23">
        <r>  0.0000  0.2217  1.8812  0.2091  0.0000  0.0000  0.0000  0.0000  0.0000 </r>
       </set>
       <set comment="band 24">
        <r>  0.3838  0.0033  1.2547  1.9908  0.0000  0.0000  0.0000  0.0000  0.0000 </r>
       </set>
       <set comment="band 25">
        <r>  0.0257  0.1004  0.5746  0.4898  0.0000  0.0000  0.0000  0.0000  0.0000 </r>
       </set>
       <set comment="band 26">
        <r>  0.0600  0.2704  0.1678  0.4835  0.0000  0.0000  0.0000  0.0000  0.0000 </r>
       </set>
       <set comment="band 27">
        <r>  0.0036  0.2647  0.0019  0.0527  0.0000  0.0000  0.0000  0.0000  0.0000 </r>
       </set>
       <set comment="band 28">
        <r>  0.0229  0.5846  0.0047  0.0143  0.0000  0.0000  0.0000  0.0000  0.0000 </r>
       </set>
       <set comment="band 29">
        <r>  0.2158  0.8255  0.0172  0.0506  0.0000  0.0000  0.0000  0.0000  0.0000 </r>
       </set>
       <set comment="band 30">
        <r>  0.0231  0.0033  0.0127  0.0739  0.0000  0.0000  0.0000  0.0000  0.0000 </r>
       </set>
       <set comment="band 31">
        <r>  0.0829  0.0763  0.0578  0.0812  0.0000  0.0000  0.0000  0.0000  0.0000 </r>
       </set>
       <set comment="band 32">
        <r>  0.0469  0.0091  0.4520  0.0070  0.0000  0.0000  0.0000  0.0000  0.0000 </r>
       </set>
       <set comment="band 33">
        <r>  0.0882  0.0153  0.0306  0.1544  0.0000  0.0000  0.0000  0.0000  0.0000 </r>
       </set>
       <set comment="band 34">
        <r>  0.6359  0.0076  0.1141  0.0050  0.0000  0.0000  0.0000  0.0000  0.0000 </r>
       </set>
       <set comment="band 35">
        <r>  0.0155  0.0713  0.0122  0.0043  0.0000  0.0000  0.0000  0.0000  0.0000 </r>
       </set>
       <set comment="band 36">
        <r>  0.0164  0.0290  0.0157  0.1043  0.0000  0.0000  0.0000  0.0000  0.0000 </r>
       </set>
       <set comment="band 37">
        <r>  0.0698  0.0285  0.0050  0.0410  0.0000  0.0000  0.0000  0.0000  0.0000 </r>
       </set>
       <set comment="band 38">
        <r>  0.0397  0.0679  0.0674  0.0455  0.0000  0.0000  0.0000  0.0000  0.0000 </r>
       </set>
       <set comment="band 39">
        <r>  0.0294  0.0155  0.0142  0.0000  0.0000  0.0000  0.0000  0.0000  0.0000 </r>
       </set>
       <set comment="band 40">
        <r>  0.0012  0.0043  0.0277  0.0097  0.0000  0.0000  0.0000  0.0000  0.0000 </r>
       </set>
       <set comment="band 41">
        <r>  0.0381  0.0029  0.0046  0.0291  0.0000  0.0000  0.0000  0.0000  0.0000 </r>
       </set>
       <set comment="band 42">
        <r>  0.0071  0.0022  0.0317  0.0259  0.0000  0.0000  0.0000  0.0000  0.0000 </r>
       </set>
       <set comment="band 43">
        <r>  0.0184  0.0015  0.0049  0.0925  0.0000  0.0000  0.0000  0.0000  0.0000 </r>
       </set>
       <set comment="band 44">
        <r>  0.0167  0.1520  0.0001  0.0021  0.0000  0.0000  0.0000  0.0000  0.0000 </r>
       </set>
       <set comment="band 45">
        <r>  0.0315  0.0077  0.0009  0.0709  0.0000  0.0000  0.0000  0.0000  0.0000 </r>
       </set>
       <set comment="band 46">
        <r>  0.0001  0.0482  0.0455  0.0025  0.0000  0.0000  0.0000  0.0000  0.0000 </r>
       </set>
       <set comment="band 47">
        <r>  0.0182  0.0002  0.0718  0.0073  0.0000  0.0000  0.0000  0.0000  0.0000 </r>
       </set>
       <set comment="band 48">
        <r>  0.0000  0.0290  0.0123  0.0001  0.0000  0.0000  0.0000  0.0000  0.0000 </r>
       </set>
      </set>
      <set comment="kpoint 55">
       <set comment="band 1">
        <r>  0.0824  0.0144  0.1490  0.0000  0.0000  0.0000  0.0000  0.0000  0.0000 </r>
       </set>
       <set comment="band 2">
        <r>  0.0000  0.0000  0.0000  0.2075  0.0000  0.0000  0.0000  0.0000  0.0000 </r>
       </set>
       <set comment="band 3">
        <r>  0.0780  0.0530  0.0743  0.0000  0.0000  0.0000  0.0000  0.0000  0.0000 </r>
       </set>
       <set comment="band 4">
        <r>  0.2988  0.0807  0.0097  0.0000  0.0000  0.0000  0.0000  0.0000  0.0000 </r>
       </set>
       <set comment="band 5">
        <r>  0.0000  0.0000  0.0000  0.1256  0.0000  0.0000  0.0000  0.0000  0.0000 </r>
       </set>
       <set comment="band 6">
        <r>  0.0841  0.2421  0.0040  0.0000  0.0000  0.0000  0.0000  0.0000  0.0000 </r>
       </set>
       <set comment="band 7">
        <r>  0.0246  0.0391  0.0459  0.0000  0.0000  0.0000  0.0000  0.0000  0.0000 </r>
       </set>
       <set comment="band 8">
        <r>  0.0222  0.0710  0.0380  0.0000  0.0000  0.0000  0.0000  0.0000  0.0000 </r>
       </set>
       <set comment="band 9">
        <r>  0.0000  0.0000  0.0000  0.0231  0.0000  0.0000  0.0000  0.0000  0.0000 </r>
       </set>
       <set comment="band 10">
        <r>  0.0033  0.0000  0.0029  0.0000  0.0000  0.0000  0.0000  0.0000  0.0000 </r>
       </set>
       <set comment="band 11">
        <r>  0.0640  0.0197  0.0935  0.0000  0.0000  0.0000  0.0000  0.0000  0.0000 </r>
       </set>
       <set comment="band 12">
        <r>  0.0000  0.0000  0.0000  0.0735  0.0000  0.0000  0.0000  0.0000  0.0000 </r>
       </set>
       <set comment="band 13">
        <r>  0.0000  0.0000  0.0000  0.1779  0.0000  0.0000  0.0000  0.0000  0.0000 </r>
       </set>
       <set comment="band 14">
        <r>  0.0184  0.0101  0.0498  0.0000  0.0000  0.0000  0.0000  0.0000  0.0000 </r>
       </set>
       <set comment="band 15">
        <r>  0.1193  0.0120  0.0220  0.0000  0.0000  0.0000  0.0000  0.0000  0.0000 </r>
       </set>
       <set comment="band 16">
        <r>  0.0000  0.0000  0.0000  0.0207  0.0000  0.0000  0.0000  0.0000  0.0000 </r>
       </set>
       <set comment="band 17">
        <r>  0.1223  0.0292  0.5680  0.0000  0.0000  0.0000  0.0000  0.0000  0.0000 </r>
       </set>
       <set comment="band 18">
        <r>  0.0000  0.0000  0.0000  0.0254  0.0000  0.0000  0.0000  0.0000  0.0000 </r>
       </set>
       <set comment="band 19">
        <r>  2.1913  0.0893  0.1141  0.0000  0.0000  0.0000  0.0000  0.0000  0.0000 </r>
       </set>
       <set comment="band 20">
        <r>  1.7445  1.3330  0.0250  0.0000  0.0000  0.0000  0.0000  0.0000  0.0000 </r>
       </set>
       <set comment="band 21">
        <r>  0.0000  0.0000  0.0000  2.2706  0.0000  0.0000  0.0000  0.0000  0.0000 </r>
       </set>
       <set comment="band 22">
        <r>  5.4674  1.4215  0.0226  0.0000  0.0000  0.0000  0.0000  0.0000  0.0000 </r>
       </set>
       <set comment="band 23">
        <r>  0.0031  0.0720  3.0219  0.0000  0.0000  0.0000  0.0000  0.0000  0.0000 </r>
       </set>
       <set comment="band 24">
        <r>  0.0000  0.0000  0.0000  1.4687  0.0000  0.0000  0.0000  0.0000  0.0000 </r>
       </set>
       <set comment="band 25">
        <r>  0.1767  0.0634  0.9290  0.0000  0.0000  0.0000  0.0000  0.0000  0.0000 </r>
       </set>
       <set comment="band 26">
        <r>  0.3281  1.4717  0.1592  0.0000  0.0000  0.0000  0.0000  0.0000  0.0000 </r>
       </set>
       <set comment="band 27">
        <r>  0.0000  0.0000  0.0000  1.1136  0.0000  0.0000  0.0000  0.0000  0.0000 </r>
       </set>
       <set comment="band 28">
        <r>  0.0000  0.0000  0.0000  0.1924  0.0000  0.0000  0.0000  0.0000  0.0000 </r>
       </set>
       <set comment="band 29">
        <r>  0.3298  0.3188  0.2632  0.0000  0.0000  0.0000  0.0000  0.0000  0.0000 </r>
       </set>
       <set comment="band 30">
        <r>  0.0010  0.3816  0.0521  0.0000  0.0000  0.0000  0.0000  0.0000  0.0000 </r>
       </set>
       <set comment="band 31">
        <r>  0.0000  0.0000  0.0000  0.0454  0.0000  0.0000  0.0000  0.0000  0.0000 </r>
       </set>
       <set comment="band 32">
        <r>  0.1618  0.0010  0.3431  0.0000  0.0000  0.0000  0.0000  0.0000  0.0000 </r>
       </set>
       <set comment="band 33">
        <r>  0.3916  0.1503  0.0000  0.0000  0.0000  0.0000  0.0000  0.0000  0.0000 </r>
       </set>
       <set comment="band 34">
        <r>  0.0000  0.0000  0.0000  0.0028  0.0000  0.0000  0.0000  0.0000  0.0000 </r>
       </set>
       <set comment="band 35">
        <r>  0.2598  0.0101  0.0300  0.0000  0.0000  0.0000  0.0000  0.0000  0.0000 </r>
       </set>
       <set comment="band 36">
        <r>  0.0963  0.1094  0.1033  0.0000  0.0000  0.0000  0.0000  0.0000  0.0000 </r>
       </set>
       <set comment="band 37">
        <r>  0.0000  0.0000  0.0000  0.4491  0.0000  0.0000  0.0000  0.0000  0.0000 </r>
       </set>
       <set comment="band 38">
        <r>  0.0010  0.0393  0.0149  0.0000  0.0000  0.0000  0.0000  0.0000  0.0000 </r>
       </set>
       <set comment="band 39">
        <r>  0.0000  0.0000  0.0000  0.0082  0.0000  0.0000  0.0000  0.0000  0.0000 </r>
       </set>
       <set comment="band 40">
        <r>  0.0019  0.0193  0.0113  0.0000  0.0000  0.0000  0.0000  0.0000  0.0000 </r>
       </set>
       <set comment="band 41">
        <r>  0.0000  0.0000  0.0000  0.0206  0.0000  0.0000  0.0000  0.0000  0.0000 </r>
       </set>
       <set comment="band 42">
        <r>  0.1146  0.0071  0.0675  0.0000  0.0000  0.0000  0.0000  0.0000  0.0000 </r>
       </set>
       <set comment="band 43">
        <r>  0.0102  0.1094  0.0455  0.0000  0.0000  0.0000  0.0000  0.0000  0.0000 </r>
       </set>
       <set comment="band 44">
        <r>  0.0477  0.0526  0.0006  0.0000  0.0000  0.0000  0.0000  0.0000  0.0000 </r>
       </set>
       <set comment="band 45">
        <r>  0.0000  0.0000  0.0000  0.0709  0.0000  0.0000  0.0000  0.0000  0.0000 </r>
       </set>
       <set comment="band 46">
        <r>  0.0000  0.0000  0.0000  0.0071  0.0000  0.0000  0.0000  0.0000  0.0000 </r>
       </set>
       <set comment="band 47">
        <r>  0.0786  0.0133  0.0547  0.0000  0.0000  0.0000  0.0000  0.0000  0.0000 </r>
       </set>
       <set comment="band 48">
        <r>  0.0412  0.0469  0.0173  0.0000  0.0000  0.0000  0.0000  0.0000  0.0000 </r>
       </set>
      </set>
      <set comment="kpoint 56">
       <set comment="band 1">
        <r>  0.0481  0.0362  0.0000  0.1403  0.0000  0.0000  0.0000  0.0000  0.0000 </r>
       </set>
       <set comment="band 2">
        <r>  0.0000  0.0000  0.2244  0.0000  0.0000  0.0000  0.0000  0.0000  0.0000 </r>
       </set>
       <set comment="band 3">
        <r>  0.1924  0.0653  0.0000  0.0036  0.0000  0.0000  0.0000  0.0000  0.0000 </r>
       </set>
       <set comment="band 4">
        <r>  0.2292  0.0359  0.0000  0.0758  0.0000  0.0000  0.0000  0.0000  0.0000 </r>
       </set>
       <set comment="band 5">
        <r>  0.0233  0.0848  0.0000  0.0714  0.0000  0.0000  0.0000  0.0000  0.0000 </r>
       </set>
       <set comment="band 6">
        <r>  0.0056  0.2583  0.0000  0.0286  0.0000  0.0000  0.0000  0.0000  0.0000 </r>
       </set>
       <set comment="band 7">
        <r>  0.0000  0.0000  0.0969  0.0000  0.0000  0.0000  0.0000  0.0000  0.0000 </r>
       </set>
       <set comment="band 8">
        <r>  0.0903  0.0357  0.0000  0.0175  0.0000  0.0000  0.0000  0.0000  0.0000 </r>
       </set>
       <set comment="band 9">
        <r>  0.0000  0.0000  0.0235  0.0000  0.0000  0.0000  0.0000  0.0000  0.0000 </r>
       </set>
       <set comment="band 10">
        <r>  0.0092  0.0004  0.0000  0.0313  0.0000  0.0000  0.0000  0.0000  0.0000 </r>
       </set>
       <set comment="band 11">
        <r>  0.0000  0.0000  0.0006  0.0000  0.0000  0.0000  0.0000  0.0000  0.0000 </r>
       </set>
       <set comment="band 12">
        <r>  0.0740  0.0003  0.0000  0.1171  0.0000  0.0000  0.0000  0.0000  0.0000 </r>
       </set>
       <set comment="band 13">
        <r>  0.0000  0.0000  0.1881  0.0000  0.0000  0.0000  0.0000  0.0000  0.0000 </r>
       </set>
       <set comment="band 14">
        <r>  0.0010  0.0009  0.0000  0.0061  0.0000  0.0000  0.0000  0.0000  0.0000 </r>
       </set>
       <set comment="band 15">
        <r>  0.1404  0.0052  0.0000  0.1049  0.0000  0.0000  0.0000  0.0000  0.0000 </r>
       </set>
       <set comment="band 16">
        <r>  0.0000  0.0000  0.0138  0.0000  0.0000  0.0000  0.0000  0.0000  0.0000 </r>
       </set>
       <set comment="band 17">
        <r>  0.0000  0.0000  0.6890  0.0000  0.0000  0.0000  0.0000  0.0000  0.0000 </r>
       </set>
       <set comment="band 18">
        <r>  0.0969  0.3170  0.0000  0.5694  0.0000  0.0000  0.0000  0.0000  0.0000 </r>
       </set>
       <set comment="band 19">
        <r>  4.0182  1.4091  0.0000  0.0738  0.0000  0.0000  0.0000  0.0000  0.0000 </r>
       </set>
       <set comment="band 20">
        <r>  5.3445  1.0097  0.0000  0.2719  0.0000  0.0000  0.0000  0.0000  0.0000 </r>
       </set>
       <set comment="band 21">
        <r>  0.1858  0.2055  0.0000  1.5366  0.0000  0.0000  0.0000  0.0000  0.0000 </r>
       </set>
       <set comment="band 22">
        <r>  0.0000  0.0000  2.2073  0.0000  0.0000  0.0000  0.0000  0.0000  0.0000 </r>
       </set>
       <set comment="band 23">
        <r>  0.0438  0.1068  0.0000  1.2681  0.0000  0.0000  0.0000  0.0000  0.0000 </r>
       </set>
       <set comment="band 24">
        <r>  0.0000  0.0000  0.0869  0.0000  0.0000  0.0000  0.0000  0.0000  0.0000 </r>
       </set>
       <set comment="band 25">
        <r>  0.2112  0.2944  0.0000  0.0480  0.0000  0.0000  0.0000  0.0000  0.0000 </r>
       </set>
       <set comment="band 26">
        <r>  0.0000  0.0000  1.3659  0.0000  0.0000  0.0000  0.0000  0.0000  0.0000 </r>
       </set>
       <set comment="band 27">
        <r>  0.0000  0.0000  0.4648  0.0000  0.0000  0.0000  0.0000  0.0000  0.0000 </r>
       </set>
       <set comment="band 28">
        <r>  0.1312  0.0218  0.0000  1.2130  0.0000  0.0000  0.0000  0.0000  0.0000 </r>
       </set>
       <set comment="band 29">
        <r>  0.0909  1.6825  0.0000  0.0033  0.0000  0.0000  0.0000  0.0000  0.0000 </r>
       </set>
       <set comment="band 30">
        <r>  0.0000  0.0000  0.4784  0.0000  0.0000  0.0000  0.0000  0.0000  0.0000 </r>
       </set>
       <set comment="band 31">
        <r>  0.0275  0.2967  0.0000  0.1083  0.0000  0.0000  0.0000  0.0000  0.0000 </r>
       </set>
       <set comment="band 32">
        <r>  0.3825  0.0095  0.0000  0.1787  0.0000  0.0000  0.0000  0.0000  0.0000 </r>
       </set>
       <set comment="band 33">
        <r>  0.2584  0.0209  0.0000  0.0107  0.0000  0.0000  0.0000  0.0000  0.0000 </r>
       </set>
       <set comment="band 34">
        <r>  0.3796  0.0732  0.0000  0.0012  0.0000  0.0000  0.0000  0.0000  0.0000 </r>
       </set>
       <set comment="band 35">
        <r>  0.0000  0.0000  0.1656  0.0000  0.0000  0.0000  0.0000  0.0000  0.0000 </r>
       </set>
       <set comment="band 36">
        <r>  0.1187  0.0020  0.0000  0.0205  0.0000  0.0000  0.0000  0.0000  0.0000 </r>
       </set>
       <set comment="band 37">
        <r>  0.0000  0.0000  0.0894  0.0000  0.0000  0.0000  0.0000  0.0000  0.0000 </r>
       </set>
       <set comment="band 38">
        <r>  0.0409  0.0184  0.0000  0.3185  0.0000  0.0000  0.0000  0.0000  0.0000 </r>
       </set>
       <set comment="band 39">
        <r>  0.0017  0.0223  0.0000  0.0087  0.0000  0.0000  0.0000  0.0000  0.0000 </r>
       </set>
       <set comment="band 40">
        <r>  0.0000  0.0000  0.1419  0.0000  0.0000  0.0000  0.0000  0.0000  0.0000 </r>
       </set>
       <set comment="band 41">
        <r>  0.0097  0.1119  0.0000  0.0009  0.0000  0.0000  0.0000  0.0000  0.0000 </r>
       </set>
       <set comment="band 42">
        <r>  0.0000  0.0000  0.0053  0.0000  0.0000  0.0000  0.0000  0.0000  0.0000 </r>
       </set>
       <set comment="band 43">
        <r>  0.0000  0.0000  0.0078  0.0000  0.0000  0.0000  0.0000  0.0000  0.0000 </r>
       </set>
       <set comment="band 44">
        <r>  0.0296  0.0642  0.0000  0.0027  0.0000  0.0000  0.0000  0.0000  0.0000 </r>
       </set>
       <set comment="band 45">
        <r>  0.0062  0.0004  0.0000  0.0166  0.0000  0.0000  0.0000  0.0000  0.0000 </r>
       </set>
       <set comment="band 46">
        <r>  0.0000  0.0000  0.0138  0.0000  0.0000  0.0000  0.0000  0.0000  0.0000 </r>
       </set>
       <set comment="band 47">
        <r>  0.0767  0.1200  0.0000  0.0109  0.0000  0.0000  0.0000  0.0000  0.0000 </r>
       </set>
       <set comment="band 48">
        <r>  0.0000  0.0000  0.0651  0.0000  0.0000  0.0000  0.0000  0.0000  0.0000 </r>
       </set>
      </set>
     </set>
    </set>
   </array>
  </projected>
 </calculation>
 <structure name="finalpos" >
  <crystal>
   <varray name="basis" >
    <v>       0.00000000       2.02400000       2.02400000 </v>
    <v>       2.02400000       0.00000000       2.02400000 </v>
    <v>       2.02400000       2.02400000       0.00000000 </v>
   </varray>
   <i name="volume">     16.58293965 </i>
   <varray name="rec_basis" >
    <v>      -0.24703557       0.24703557       0.24703557 </v>
    <v>       0.24703557      -0.24703557       0.24703557 </v>
    <v>       0.24703557       0.24703557      -0.24703557 </v>
   </varray>
  </crystal>
  <varray name="positions" >
   <v>       0.00000000       0.00000000       0.00000000 </v>
  </varray>
 </structure>
</modeling>
