   57   57  200    2
  0.1326576E+02  0.7779113E-09  0.7778912E-09  0.1249563E-08  0.0000000E+00
   1.0000000000000000E-004
  CAR 
 unknown system                          
    502     10    324

  0.1262379E-14  0.1262379E-14  0.1262379E-14  0.5555556E-01
    1      -57.421681    -55.347712   1.000000   1.000000
    2      -57.274688    -55.314598   1.000000   1.000000
    3      -57.269016    -55.296388   1.000000   1.000000
    4      -57.179315    -55.119658   1.000000   1.000000
    5      -57.143624    -55.109295   1.000000   1.000000
    6      -57.118739    -55.096660   1.000000   1.000000
    7      -57.116639    -55.086818   1.000000   1.000000
    8      -57.112448    -55.085283   1.000000   1.000000
    9      -57.108095    -55.079560   1.000000   1.000000
   10      -57.107211    -55.079053   1.000000   1.000000
   11      -57.106782    -55.077729   1.000000   1.000000
   12      -57.093363    -55.069233   1.000000   1.000000
   13      -57.092837    -55.068797   1.000000   1.000000
   14      -57.087905    -55.060529   1.000000   1.000000
   15      -57.086873    -55.060050   1.000000   1.000000
   16      -57.079842    -55.054187   1.000000   1.000000
   17      -57.067765    -55.049097   1.000000   1.000000
   18      -57.067205    -55.048359   1.000000   1.000000
   19      -57.064575    -55.028529   1.000000   1.000000
   20      -57.064363    -55.015313   1.000000   1.000000
   21      -57.054139    -55.000817   1.000000   1.000000
   22      -57.053832    -55.000420   1.000000   1.000000
   23      -57.037691    -54.983488   1.000000   1.000000
   24      -57.037160    -54.983061   1.000000   1.000000
   25      -23.554269    -23.550875   1.000000   1.000000
   26      -23.427503    -23.424270   1.000000   1.000000
   27      -23.333965    -23.330842   1.000000   1.000000
   28      -23.312549    -23.309712   1.000000   1.000000
   29      -23.309582    -23.306926   1.000000   1.000000
   30      -23.293640    -23.290580   1.000000   1.000000
   31      -23.254964    -23.251832   1.000000   1.000000
   32      -23.248466    -23.245704   1.000000   1.000000
   33      -23.165731    -23.162879   1.000000   1.000000
   34      -23.134830    -23.131996   1.000000   1.000000
   35      -23.054378    -23.052054   1.000000   1.000000
   36      -23.013642    -23.011461   1.000000   1.000000
   37      -22.961160    -22.958811   1.000000   1.000000
   38      -22.890596    -22.888288   1.000000   1.000000
   39      -22.869968    -22.867080   1.000000   1.000000
   40      -22.793285    -22.792925   1.000000   1.000000
   41      -11.277690    -11.228353   1.000000   1.000000
   42      -11.164320    -11.121495   1.000000   1.000000
   43      -11.092714    -11.043184   1.000000   1.000000
   44      -11.043332    -10.989300   1.000000   1.000000
   45      -11.009309    -10.954913   1.000000   1.000000
   46      -10.976133    -10.917575   1.000000   1.000000
   47      -10.576402    -10.572213   1.000000   1.000000
   48      -10.544825    -10.518134   1.000000   1.000000
   49      -10.482777    -10.468082   1.000000   1.000000
   50      -10.470311    -10.445365   1.000000   1.000000
   51      -10.403029    -10.390498   1.000000   1.000000
   52      -10.390929    -10.372690   1.000000   1.000000
   53      -10.359615    -10.330764   1.000000   1.000000
   54      -10.314272    -10.290572   1.000000   1.000000
   55      -10.311416    -10.285850   1.000000   1.000000
   56      -10.204198    -10.165101   1.000000   1.000000
   57      -10.067167    -10.013003   1.000000   1.000000
   58      -10.061914    -10.008566   1.000000   1.000000
   59       -9.926503     -9.852605   1.000000   1.000000
   60       -9.871387     -9.805955   1.000000   1.000000
   61       -9.818640     -9.763642   1.000000   1.000000
   62       -9.775858     -9.754738   1.000000   1.000000
   63       -9.770448     -9.706837   1.000000   1.000000
   64       -9.751086     -9.652287   1.000000   1.000000
   65       -9.672807     -9.587747   1.000000   1.000000
   66       -9.604839     -9.514262   1.000000   1.000000
   67       -9.584938     -9.457150   1.000000   1.000000
   68       -9.552693     -9.426810   1.000000   1.000000
   69       -9.514339     -9.425074   1.000000   1.000000
   70       -9.510192     -9.411015   1.000000   1.000000
   71       -9.505912     -9.384552   1.000000   1.000000
   72       -9.458886     -9.356917   1.000000   1.000000
   73       -9.368931     -9.283341   1.000000   1.000000
   74       -7.345013     -7.336837   1.000000   1.000000
   75       -7.307200     -7.295170   1.000000   1.000000
   76       -7.250836     -7.236402   1.000000   1.000000
   77       -7.232331     -7.219994   1.000000   1.000000
   78       -7.130999     -7.113087   1.000000   1.000000
   79       -7.088825     -7.084313   1.000000   1.000000
   80       -7.039432     -7.024026   1.000000   1.000000
   81       -7.005090     -6.990989   1.000000   1.000000
   82       -6.982704     -6.977282   1.000000   1.000000
   83       -6.961836     -6.950442   1.000000   1.000000
   84       -6.926291     -6.922222   1.000000   1.000000
   85       -6.916750     -6.909031   1.000000   1.000000
   86       -6.903587     -6.898444   1.000000   1.000000
   87       -6.891986     -6.887037   1.000000   1.000000
   88       -6.883384     -6.874254   1.000000   1.000000
   89       -6.872425     -6.868628   1.000000   1.000000
   90       -6.823510     -6.813380   1.000000   1.000000
   91       -6.816606     -6.804150   1.000000   1.000000
   92       -6.805129     -6.797282   1.000000   1.000000
   93       -6.760901     -6.751590   1.000000   1.000000
   94       -6.692278     -6.680619   1.000000   1.000000
   95       -6.660197     -6.654182   1.000000   1.000000
   96       -6.656113     -6.639718   1.000000   1.000000
   97       -6.644290     -6.636249   1.000000   1.000000
   98       -6.621557     -6.612381   1.000000   1.000000
   99       -6.588683     -6.573031   1.000000   1.000000
  100       -6.569132     -6.562640   1.000000   1.000000
  101       -6.562447     -6.542990   1.000000   1.000000
  102       -6.497953     -6.478127   1.000000   1.000000
  103       -6.460161     -6.450961   1.000000   1.000000
  104       -6.423209     -6.404900   1.000000   1.000000
  105       -6.415237     -6.404842   1.000000   1.000000
  106       -6.354246     -6.345759   1.000000   1.000000
  107       -6.143571     -6.122756   1.000000   1.000000
  108       -6.101726     -6.086646   1.000000   1.000000
  109       -6.023155     -6.003447   1.000000   1.000000
  110       -5.990735     -5.968383   1.000000   1.000000
  111       -5.866536     -5.832679   1.000000   1.000000
  112       -5.827469     -5.798980   1.000000   1.000000
  113       -5.826458     -5.798242   1.000000   1.000000
  114       -5.815134     -5.791831   1.000000   1.000000
  115       -5.765205     -5.733913   1.000000   1.000000
  116       -5.732904     -5.703602   1.000000   1.000000
  117       -5.685399     -5.650716   1.000000   1.000000
  118       -5.636559     -5.559503   1.000000   1.000000
  119       -5.511690     -5.474471   1.000000   1.000000
  120       -4.812427     -4.801474   1.000000   1.000000
  121       -4.516463     -4.502695   1.000000   1.000000
  122        0.194057      1.157215   1.000000   1.000000
  123        0.265314      1.198222   1.000000   1.000000
  124        0.289590      2.316169   1.000000   1.000000
  125        0.328653      2.364794   1.000000   1.000000
  126        0.359503      2.396296   1.000000   1.000000
  127        0.364951      2.429059   1.000000   1.000000
  128        0.406283      2.439512   1.000000   1.000000
  129        0.449118      2.457838   1.000000   1.000000
  130        1.581278      2.526254   1.000000   1.000000
  131        1.685482      2.543580   1.000000   1.000000
  132        1.686590      2.544909   1.000000   1.000000
  133        1.705899      2.571098   1.000000   1.000000
  134        1.737339      2.712177   1.000000   1.000000
  135        1.761916      2.809154   1.000000   1.000000
  136        1.778750      2.846207   1.000000   1.000000
  137        1.806146      2.884739   1.000000   1.000000
  138        1.949248      2.910306   1.000000   1.000000
  139        1.961165      3.002331   1.000000   1.000000
  140        1.991347      3.076123   1.000000   1.000000
  141        2.051372      3.093272   1.000000   1.000000
  142        2.106188      3.130418   1.000000   1.000000
  143        2.204420      3.132448   1.000000   1.000000
  144        2.218656      3.180031   1.000000   1.000000
  145        2.257543      3.184290   1.000000   1.000000
  146        2.277933      3.248809   1.000000   1.000000
  147        2.324374      3.362869   1.000000   1.000000
  148        2.331322      3.422243   1.000000   1.000000
  149        2.350829      3.455950   1.000000   1.000000
  150        2.408441      3.546608   1.000000   1.000000
  151        2.419343      3.566654   1.000000   1.000000
  152        2.616127      3.631337   1.000000   1.000000
  153        2.626121      3.703457   1.000000   1.000000
  154        2.736513      3.722772   1.000000   1.000000
  155        2.743533      3.729865   1.000000   1.000000
  156        2.753245      3.759579   1.000000   1.000000
  157        2.799576      3.798675   1.000000   1.000000
  158        2.807662      3.822410   1.000000   1.000000
  159        2.846472      3.843614   1.000000   1.000000
  160        2.860643      3.866606   1.000000   1.000000
  161        2.884387      3.941975   1.000000   1.000000
  162        2.890907      3.955982   1.000000   1.000000
  163        3.002469      4.075847   1.000000   1.000000
  164        3.136713      4.096740   1.000000   1.000000
  165        3.198426      4.097400   1.000000   1.000000
  166        3.240287      4.139815   1.000000   1.000000
  167        3.243868      4.217605   1.000000   1.000000
  168        3.521409      4.237844   1.000000   1.000000
  169        3.522883      4.278142   1.000000   1.000000
  170        3.550757      4.360805   1.000000   1.000000
  171        3.601524      4.419921   1.000000   1.000000
  172        3.630052      4.450582   1.000000   1.000000
  173        3.878832      4.452526   1.000000   1.000000
  174        3.990928      4.466908   1.000000   1.000000
  175        4.035676      4.525131   1.000000   1.000000
  176        4.104122      4.597249   1.000000   1.000000
  177        4.110898      4.627666   1.000000   1.000000
  178        4.193754      4.771455   1.000000   1.000000
  179        4.259260      4.810923   1.000000   1.000000
  180        4.291526      4.830302   1.000000   1.000000
  181        4.335364      4.835310   1.000000   1.000000
  182        4.390452      4.862719   1.000000   1.000000
  183        4.446318      4.903599   1.000000   1.000000
  184        4.502323      4.954544   1.000000   1.000000
  185        4.519913      4.979322   1.000000   1.000000
  186        4.618207      4.986411   1.000000   1.000000
  187        4.637655      5.040250   1.000000   1.000000
  188        4.660079      5.077401   1.000000   1.000000
  189        4.672945      5.087075   1.000000   1.000000
  190        4.731026      5.131503   1.000000   1.000000
  191        4.734925      5.132265   1.000000   1.000000
  192        4.752107      5.157649   1.000000   1.000000
  193        4.784595      5.168794   1.000000   1.000000
  194        4.840345      5.185880   1.000000   1.000000
  195        4.900186      5.205380   1.000000   1.000000
  196        4.905927      5.255456   1.000000   1.000000
  197        4.918255      5.293429   1.000000   1.000000
  198        4.946053      5.309736   1.000000   1.000000
  199        4.981733      5.337821   1.000000   1.000000
  200        5.000049      5.371378   1.000000   1.000000
  201        5.030150      5.380792   1.000000   1.000000
  202        5.043034      5.403720   1.000000   1.000000
  203        5.087496      5.419140   1.000000   1.000000
  204        5.104062      5.498664   1.000000   1.000000
  205        5.146617      5.539436   1.000000   1.000000
  206        5.193939      5.558349   1.000000   1.000000
  207        5.201206      5.586801   1.000000   1.000000
  208        5.241374      5.623459   1.000000   1.000000
  209        5.262111      5.669097   1.000000   1.000000
  210        5.292868      5.714459   1.000000   1.000000
  211        5.320840      5.741832   1.000000   1.000000
  212        5.342547      5.768836   1.000000   1.000000
  213        5.353709      5.779145   1.000000   1.000000
  214        5.375342      5.829968   1.000000   1.000000
  215        5.410139      5.894127   1.000000   1.000000
  216        5.518185      5.930860   1.000000   1.000000
  217        5.529593      5.963098   1.000000   1.000000
  218        5.559680      5.965722   1.000000   1.000000
  219        5.575533      5.973779   1.000000   1.000000
  220        5.619746      6.005291   1.000000   1.000000
  221        5.655778      6.006091   1.000000   1.000000
  222        5.680026      6.038606   1.000000   1.000000
  223        5.708155      6.071579   1.000000   1.000000
  224        5.733452      6.153153   1.000000   1.000000
  225        5.774862      6.154470   1.000000   1.000000
  226        5.781282      6.176956   1.000000   1.000000
  227        5.813222      6.197069   1.000000   1.000000
  228        5.833974      6.200138   1.000000   1.000000
  229        5.868104      6.217232   1.000000   1.000000
  230        5.899003      6.254946   1.000000   1.000000
  231        5.905787      6.256222   1.000000   1.000000
  232        5.948361      6.284453   1.000000   1.000000
  233        5.952896      6.322642   1.000000   1.000000
  234        6.004526      6.346346   1.000000   1.000000
  235        6.054817      6.358223   1.000000   1.000000
  236        6.086886      6.365989   1.000000   1.000000
  237        6.091195      6.383262   1.000000   1.000000
  238        6.107386      6.394641   1.000000   1.000000
  239        6.139186      6.453184   1.000000   1.000000
  240        6.182202      6.496347   1.000000   1.000000
  241        6.201804      6.557130   1.000000   1.000000
  242        6.224392      6.600025   1.000000   1.000000
  243        6.234843      6.679353   1.000000   1.000000
  244        6.267303      7.298435   1.000000   0.976174
  245        6.310544     10.050626   1.000000   0.000000
  246        6.343308     10.132627   1.000000   0.000000
  247        6.348992     10.206203   1.000000   0.000000
  248        6.372593     10.311189   1.000000   0.000000
  249        6.507935     10.521820   1.000000   0.000000
  250        6.530640     10.601099   1.000000   0.000000
  251        6.593872     10.605513   1.000000   0.000000
  252        6.689950     10.619291   1.000000   0.000000
  253        6.973663     10.642804   0.999991   0.000000
  254        7.014271     10.679541   0.999967   0.000000
  255        7.105700     10.735470   0.999586   0.000000
  256        7.128687     10.819054   0.999266   0.000000
  257        7.170942     11.003221   0.998024   0.000000
  258        7.272654     11.033916   0.984720   0.000000
  259        8.620071     11.047480   0.000000   0.000000
  260        8.652587     11.092924   0.000000   0.000000
  261       10.067649     11.099843   0.000000   0.000000
  262       10.654208     11.143879   0.000000   0.000000
  263       10.689296     11.155070   0.000000   0.000000
  264       11.017334     11.158893   0.000000   0.000000
  265       11.028992     11.180282   0.000000   0.000000
  266       11.050132     11.202748   0.000000   0.000000
  267       11.142770     11.260581   0.000000   0.000000
  268       11.150394     11.289292   0.000000   0.000000
  269       11.214429     11.301215   0.000000   0.000000
  270       11.229000     11.301760   0.000000   0.000000
  271       11.274754     11.320786   0.000000   0.000000
  272       11.280533     11.327897   0.000000   0.000000
  273       11.291465     11.370076   0.000000   0.000000
  274       11.317097     11.390549   0.000000   0.000000
  275       11.332398     11.433989   0.000000   0.000000
  276       11.347422     11.437193   0.000000   0.000000
  277       11.361650     11.452012   0.000000   0.000000
  278       11.383698     11.470870   0.000000   0.000000
  279       11.428153     11.477825   0.000000   0.000000
  280       11.430538     11.478115   0.000000   0.000000
  281       11.437312     11.503128   0.000000   0.000000
  282       11.456732     11.511475   0.000000   0.000000
  283       11.476365     11.518579   0.000000   0.000000
  284       11.477047     11.530170   0.000000   0.000000
  285       11.500522     11.536088   0.000000   0.000000
  286       11.518532     11.569066   0.000000   0.000000
  287       11.522194     11.587780   0.000000   0.000000
  288       11.548798     11.593598   0.000000   0.000000
  289       11.579827     11.601182   0.000000   0.000000
  290       11.581636     11.606160   0.000000   0.000000
  291       11.585524     11.622686   0.000000   0.000000
  292       11.593806     11.634076   0.000000   0.000000
  293       11.602759     11.660845   0.000000   0.000000
  294       11.614162     11.673899   0.000000   0.000000
  295       11.631040     11.682292   0.000000   0.000000
  296       11.660407     11.683083   0.000000   0.000000
  297       11.668286     11.683983   0.000000   0.000000
  298       11.676384     11.702746   0.000000   0.000000
  299       11.680757     11.715583   0.000000   0.000000
  300       11.694658     11.725186   0.000000   0.000000
  301       11.707838     11.731044   0.000000   0.000000
  302       11.710855     11.748578   0.000000   0.000000
  303       11.726747     11.754445   0.000000   0.000000
  304       11.736488     11.759670   0.000000   0.000000
  305       11.739702     11.763432   0.000000   0.000000
  306       11.741262     11.774161   0.000000   0.000000
  307       11.756957     11.774968   0.000000   0.000000
  308       11.762922     11.779956   0.000000   0.000000
  309       11.766972     11.793381   0.000000   0.000000
  310       11.769643     11.811811   0.000000   0.000000
  311       11.788083     11.811857   0.000000   0.000000
  312       11.804234     11.822628   0.000000   0.000000
  313       11.804380     11.832588   0.000000   0.000000
  314       11.811351     11.840899   0.000000   0.000000
  315       11.829090     11.851385   0.000000   0.000000
  316       11.838309     11.855213   0.000000   0.000000
  317       11.847218     11.861859   0.000000   0.000000
  318       11.850344     11.866995   0.000000   0.000000
  319       11.852630     11.873493   0.000000   0.000000
  320       11.857996     11.876946   0.000000   0.000000
  321       11.868426     11.894671   0.000000   0.000000
  322       11.871899     11.903057   0.000000   0.000000
  323       11.883528     11.907387   0.000000   0.000000
  324       11.889496     11.913167   0.000000   0.000000

  0.3333333E+00  0.1262399E-14  0.1262310E-14  0.1111111E+00
    1      -57.421742    -55.347796   1.000000   1.000000
    2      -57.274612    -55.314539   1.000000   1.000000
    3      -57.269117    -55.296513   1.000000   1.000000
    4      -57.179389    -55.119602   1.000000   1.000000
    5      -57.143707    -55.109426   1.000000   1.000000
    6      -57.118665    -55.096790   1.000000   1.000000
    7      -57.116728    -55.086748   1.000000   1.000000
    8      -57.112518    -55.085407   1.000000   1.000000
    9      -57.108022    -55.079481   1.000000   1.000000
   10      -57.107211    -55.079193   1.000000   1.000000
   11      -57.106853    -55.077682   1.000000   1.000000
   12      -57.093292    -55.069189   1.000000   1.000000
   13      -57.092921    -55.068940   1.000000   1.000000
   14      -57.087999    -55.060571   1.000000   1.000000
   15      -57.086948    -55.060137   1.000000   1.000000
   16      -57.079772    -55.054266   1.000000   1.000000
   17      -57.067626    -55.049004   1.000000   1.000000
   18      -57.067308    -55.048453   1.000000   1.000000
   19      -57.064636    -55.028607   1.000000   1.000000
   20      -57.064441    -55.015394   1.000000   1.000000
   21      -57.054253    -55.000871   1.000000   1.000000
   22      -57.053906    -55.000520   1.000000   1.000000
   23      -57.037569    -54.983544   1.000000   1.000000
   24      -57.037257    -54.983156   1.000000   1.000000
   25      -23.552779    -23.549382   1.000000   1.000000
   26      -23.407585    -23.404342   1.000000   1.000000
   27      -23.354191    -23.351223   1.000000   1.000000
   28      -23.313988    -23.311043   1.000000   1.000000
   29      -23.296375    -23.293592   1.000000   1.000000
   30      -23.283628    -23.280588   1.000000   1.000000
   31      -23.266948    -23.264114   1.000000   1.000000
   32      -23.256113    -23.253099   1.000000   1.000000
   33      -23.168897    -23.166068   1.000000   1.000000
   34      -23.125939    -23.123097   1.000000   1.000000
   35      -23.051840    -23.049531   1.000000   1.000000
   36      -23.025801    -23.023596   1.000000   1.000000
   37      -22.948410    -22.946048   1.000000   1.000000
   38      -22.907171    -22.904906   1.000000   1.000000
   39      -22.869036    -22.866145   1.000000   1.000000
   40      -22.792262    -22.791890   1.000000   1.000000
   41      -11.188095    -11.147817   1.000000   1.000000
   42      -11.142556    -11.100078   1.000000   1.000000
   43      -11.085339    -11.042243   1.000000   1.000000
   44      -10.978916    -10.937877   1.000000   1.000000
   45      -10.905388    -10.859808   1.000000   1.000000
   46      -10.830317    -10.782151   1.000000   1.000000
   47      -10.721754    -10.698123   1.000000   1.000000
   48      -10.631903    -10.605172   1.000000   1.000000
   49      -10.571292    -10.523695   1.000000   1.000000
   50      -10.462040    -10.443214   1.000000   1.000000
   51      -10.415869    -10.406610   1.000000   1.000000
   52      -10.396206    -10.366885   1.000000   1.000000
   53      -10.333441    -10.315009   1.000000   1.000000
   54      -10.287365    -10.264414   1.000000   1.000000
   55      -10.197935    -10.163220   1.000000   1.000000
   56      -10.115335    -10.061396   1.000000   1.000000
   57      -10.088955    -10.019626   1.000000   1.000000
   58      -10.045800     -9.987329   1.000000   1.000000
   59       -9.977216     -9.914924   1.000000   1.000000
   60       -9.948187     -9.891461   1.000000   1.000000
   61       -9.918809     -9.854716   1.000000   1.000000
   62       -9.837047     -9.777036   1.000000   1.000000
   63       -9.805951     -9.722794   1.000000   1.000000
   64       -9.774164     -9.684306   1.000000   1.000000
   65       -9.737889     -9.660597   1.000000   1.000000
   66       -9.639694     -9.523107   1.000000   1.000000
   67       -9.602583     -9.515965   1.000000   1.000000
   68       -9.584542     -9.510427   1.000000   1.000000
   69       -9.539059     -9.446052   1.000000   1.000000
   70       -9.525786     -9.418780   1.000000   1.000000
   71       -9.512210     -9.401987   1.000000   1.000000
   72       -9.497785     -9.394484   1.000000   1.000000
   73       -9.279781     -9.216976   1.000000   1.000000
   74       -7.304436     -7.292713   1.000000   1.000000
   75       -7.261282     -7.248059   1.000000   1.000000
   76       -7.216556     -7.205266   1.000000   1.000000
   77       -7.179395     -7.168154   1.000000   1.000000
   78       -7.136250     -7.126969   1.000000   1.000000
   79       -7.122250     -7.107245   1.000000   1.000000
   80       -7.099292     -7.083545   1.000000   1.000000
   81       -7.034221     -7.023377   1.000000   1.000000
   82       -7.014601     -7.007010   1.000000   1.000000
   83       -6.982765     -6.972942   1.000000   1.000000
   84       -6.967778     -6.959887   1.000000   1.000000
   85       -6.952349     -6.939404   1.000000   1.000000
   86       -6.919098     -6.907700   1.000000   1.000000
   87       -6.889310     -6.880160   1.000000   1.000000
   88       -6.884180     -6.871594   1.000000   1.000000
   89       -6.873798     -6.867153   1.000000   1.000000
   90       -6.856544     -6.839656   1.000000   1.000000
   91       -6.826741     -6.816161   1.000000   1.000000
   92       -6.814695     -6.807398   1.000000   1.000000
   93       -6.800024     -6.790946   1.000000   1.000000
   94       -6.735873     -6.722447   1.000000   1.000000
   95       -6.681580     -6.672339   1.000000   1.000000
   96       -6.672692     -6.663643   1.000000   1.000000
   97       -6.641122     -6.633461   1.000000   1.000000
   98       -6.628363     -6.614527   1.000000   1.000000
   99       -6.581310     -6.573950   1.000000   1.000000
  100       -6.539648     -6.528332   1.000000   1.000000
  101       -6.496254     -6.480327   1.000000   1.000000
  102       -6.464851     -6.455181   1.000000   1.000000
  103       -6.404188     -6.396266   1.000000   1.000000
  104       -6.362960     -6.330893   1.000000   1.000000
  105       -6.218403     -6.199434   1.000000   1.000000
  106       -6.140041     -6.119537   1.000000   1.000000
  107       -6.125619     -6.104371   1.000000   1.000000
  108       -6.057480     -6.037262   1.000000   1.000000
  109       -6.013305     -5.988315   1.000000   1.000000
  110       -5.953176     -5.928056   1.000000   1.000000
  111       -5.941203     -5.912465   1.000000   1.000000
  112       -5.911390     -5.885294   1.000000   1.000000
  113       -5.894157     -5.866789   1.000000   1.000000
  114       -5.812945     -5.782280   1.000000   1.000000
  115       -5.806696     -5.768508   1.000000   1.000000
  116       -5.760504     -5.723286   1.000000   1.000000
  117       -5.702358     -5.663579   1.000000   1.000000
  118       -5.674063     -5.627475   1.000000   1.000000
  119       -5.580812     -5.545760   1.000000   1.000000
  120       -4.753536     -4.742611   1.000000   1.000000
  121       -4.598165     -4.586162   1.000000   1.000000
  122        0.303586      1.421733   1.000000   1.000000
  123        0.319468      1.451913   1.000000   1.000000
  124        0.333603      2.044096   1.000000   1.000000
  125        0.356007      2.048545   1.000000   1.000000
  126        0.636278      2.376863   1.000000   1.000000
  127        0.710077      2.438076   1.000000   1.000000
  128        0.767071      2.528289   1.000000   1.000000
  129        0.805407      2.570371   1.000000   1.000000
  130        1.436737      2.618707   1.000000   1.000000
  131        1.505938      2.646261   1.000000   1.000000
  132        1.545863      2.667753   1.000000   1.000000
  133        1.558748      2.669593   1.000000   1.000000
  134        1.725194      2.728773   1.000000   1.000000
  135        1.748524      2.774923   1.000000   1.000000
  136        1.805913      2.830887   1.000000   1.000000
  137        1.822710      2.862334   1.000000   1.000000
  138        1.950939      2.910886   1.000000   1.000000
  139        1.989354      2.936542   1.000000   1.000000
  140        2.012373      2.988519   1.000000   1.000000
  141        2.071122      3.026126   1.000000   1.000000
  142        2.080723      3.052923   1.000000   1.000000
  143        2.121466      3.074044   1.000000   1.000000
  144        2.160146      3.099821   1.000000   1.000000
  145        2.217739      3.178804   1.000000   1.000000
  146        2.250580      3.188857   1.000000   1.000000
  147        2.274446      3.274005   1.000000   1.000000
  148        2.322587      3.334357   1.000000   1.000000
  149        2.337637      3.395676   1.000000   1.000000
  150        2.358653      3.445858   1.000000   1.000000
  151        2.379080      3.465329   1.000000   1.000000
  152        2.411563      3.578952   1.000000   1.000000
  153        2.493078      3.618420   1.000000   1.000000
  154        2.516983      3.649421   1.000000   1.000000
  155        2.530516      3.794658   1.000000   1.000000
  156        2.559565      3.822469   1.000000   1.000000
  157        2.582096      3.832994   1.000000   1.000000
  158        2.631752      3.838794   1.000000   1.000000
  159        2.638083      3.859945   1.000000   1.000000
  160        2.665960      3.916025   1.000000   1.000000
  161        2.765648      3.946894   1.000000   1.000000
  162        2.778425      4.020300   1.000000   1.000000
  163        2.792615      4.056571   1.000000   1.000000
  164        2.830183      4.100735   1.000000   1.000000
  165        2.849597      4.170319   1.000000   1.000000
  166        3.346454      4.271901   1.000000   1.000000
  167        3.449675      4.297646   1.000000   1.000000
  168        3.538977      4.372771   1.000000   1.000000
  169        3.562735      4.454368   1.000000   1.000000
  170        3.627306      4.516403   1.000000   1.000000
  171        3.754900      4.534484   1.000000   1.000000
  172        3.793971      4.600900   1.000000   1.000000
  173        3.874728      4.643963   1.000000   1.000000
  174        3.958560      4.660771   1.000000   1.000000
  175        4.084730      4.668848   1.000000   1.000000
  176        4.163955      4.693277   1.000000   1.000000
  177        4.193690      4.706899   1.000000   1.000000
  178        4.247319      4.751863   1.000000   1.000000
  179        4.366147      4.789320   1.000000   1.000000
  180        4.396435      4.838639   1.000000   1.000000
  181        4.426152      4.881797   1.000000   1.000000
  182        4.462769      4.892712   1.000000   1.000000
  183        4.549416      4.909929   1.000000   1.000000
  184        4.573391      4.929547   1.000000   1.000000
  185        4.627709      4.946652   1.000000   1.000000
  186        4.669895      4.975679   1.000000   1.000000
  187        4.690151      5.015936   1.000000   1.000000