 vasp.6.2.1 16May21 (build Aug 15 2022 14:47:30) complex                         
 POSCAR found type information on POSCAR LaNiO 
 03/POSCAR found :  3 types and      57 ions
 scaLAPACK will be used
 -----------------------------------------------------------------------------
|                                                                             |
|           W    W    AA    RRRRR   N    N  II  N    N   GGGG   !!!           |
|           W    W   A  A   R    R  NN   N  II  NN   N  G    G  !!!           |
|           W    W  A    A  R    R  N N  N  II  N N  N  G       !!!           |
|           W WW W  AAAAAA  RRRRR   N  N N  II  N  N N  G  GGG   !            |
|           WW  WW  A    A  R   R   N   NN  II  N   NN  G    G                |
|           W    W  A    A  R    R  N    N  II  N    N   GGGG   !!!           |
|                                                                             |
|     For optimal performance we recommend to set                             |
|       NCORE = 2 up to number-of-cores-per-socket                            |
|     NCORE specifies how many cores store one orbital (NPAR=cpu/NCORE).      |
|     This setting can greatly improve the performance of VASP for DFT.       |
|     The default, NCORE=1 might be grossly inefficient on modern             |
|     multi-core architectures or massively parallel machines. Do your        |
|     own testing! More info at https://www.vasp.at/wiki/index.php/NCORE      |
|     Unfortunately you need to use the default for GW and RPA                |
|     calculations (for HF NCORE is supported but not extensively tested      |
|     yet).                                                                   |
|                                                                             |
 -----------------------------------------------------------------------------

 LDA part: xc-table for Pade appr. of Perdew
 POSCAR found type information on POSCAR LaNiO 
 00/POSCAR found :  3 types and      57 ions
 POSCAR found type information on POSCAR LaNiO 
 06/POSCAR found :  3 types and      57 ions
 Jacobian:    17.872343188025180     
 POSCAR found type information on POSCAR LaNiO 
 00/POSCAR found :  3 types and      57 ions
 POSCAR found type information on POSCAR LaNiO 
 06/POSCAR found :  3 types and      57 ions
 POSCAR, INCAR and KPOINTS ok, starting setup
 FFT: planning ...
 WAVECAR not read
 WARNING: random wavefunctions but no delay for mixing, default for NELMDL
 entering main loop
       N       E                     dE             d eps       ncg     rms          rms(c)
DAV:   1     0.833412097657E+04    0.83341E+04   -0.15461E+05 14276   0.209E+03
DAV:   2     0.290897064946E+04   -0.54252E+04   -0.49734E+04 14480   0.647E+02
DAV:   3     0.720829522714E+03   -0.21881E+04   -0.19475E+04 14680   0.312E+02
DAV:   4    -0.221463675228E+03   -0.94229E+03   -0.88696E+03 20152   0.178E+02
DAV:   5    -0.433019276518E+03   -0.21156E+03   -0.20496E+03 25300   0.107E+02    0.796E+01
DAV:   6    -0.408966742372E+03    0.24053E+02   -0.10497E+03 22400   0.104E+02    0.143E+02
DAV:   7    -0.411684529668E+03   -0.27178E+01   -0.27853E+02 23168   0.640E+01    0.473E+01
DAV:   8    -0.408118616114E+03    0.35659E+01   -0.36220E+01 21408   0.300E+01    0.242E+01
DAV:   9    -0.412072980568E+03   -0.39544E+01   -0.21375E+01 22856   0.178E+01    0.210E+01
DAV:  10    -0.413543847312E+03   -0.14709E+01   -0.63064E+00 23656   0.906E+00    0.155E+01
DAV:  11    -0.414370096600E+03   -0.82625E+00   -0.31696E+00 25672   0.517E+00    0.112E+01
DAV:  12    -0.414583654754E+03   -0.21356E+00   -0.86628E-01 24280   0.358E+00    0.895E+00
DAV:  13    -0.414643055028E+03   -0.59400E-01   -0.33852E-01 23848   0.199E+00    0.562E+00
DAV:  14    -0.414657064957E+03   -0.14010E-01   -0.10152E-01 22832   0.114E+00    0.384E+00
DAV:  15    -0.414662025461E+03   -0.49605E-02   -0.40484E-02 23744   0.700E-01    0.288E+00
DAV:  16    -0.414664430116E+03   -0.24047E-02   -0.19138E-02 23352   0.517E-01    0.196E+00
DAV:  17    -0.414665371257E+03   -0.94114E-03   -0.11471E-02 21912   0.384E-01    0.995E-01
DAV:  18    -0.414666173600E+03   -0.80234E-03   -0.82940E-03 24344   0.253E-01    0.524E-01
DAV:  19    -0.414666508777E+03   -0.33518E-03   -0.20469E-03 23856   0.150E-01    0.389E-01
DAV:  20    -0.414666578727E+03   -0.69950E-04   -0.66908E-04 24768   0.938E-02    0.277E-01
DAV:  21    -0.414666682394E+03   -0.10367E-03   -0.29376E-04 23616   0.682E-02    0.153E-01
DAV:  22    -0.414666762466E+03   -0.80072E-04   -0.23247E-04 24072   0.474E-02    0.941E-02
DAV:  23    -0.414666816218E+03   -0.53752E-04   -0.12705E-04 24200   0.344E-02    0.510E-02
DAV:  24    -0.414666852803E+03   -0.36586E-04   -0.61922E-05 24328   0.247E-02    0.279E-02
DAV:  25    -0.414666887011E+03   -0.34208E-04   -0.42948E-05 24464   0.199E-02    0.197E-02
DAV:  26    -0.414666925619E+03   -0.38608E-04   -0.44038E-05 21568   0.215E-02    0.253E-02
DAV:  27    -0.414666953944E+03   -0.28325E-04   -0.52960E-05 20936   0.171E-02    0.228E-02
DAV:  28    -0.414666977536E+03   -0.23593E-04   -0.35662E-05 21160   0.173E-02    0.173E-02
DAV:  29    -0.414666997818E+03   -0.20282E-04   -0.61796E-05 18888   0.240E-02    0.143E-02
DAV:  30    -0.414667014041E+03   -0.16223E-04   -0.68263E-05 19480   0.176E-02    0.115E-02
DAV:  31    -0.414667023493E+03   -0.94515E-05   -0.26300E-05 19648   0.105E-02    0.792E-03
DAV:  32    -0.414667027571E+03   -0.40787E-05   -0.80021E-06 16072   0.708E-03    0.561E-03
DAV:  33    -0.414667030077E+03   -0.25057E-05   -0.73713E-06 17440   0.773E-03    0.538E-03
DAV:  34    -0.414667032165E+03   -0.20879E-05   -0.80081E-06 16896   0.721E-03    0.539E-03
DAV:  35    -0.414667033858E+03   -0.16928E-05   -0.48917E-06 14864   0.503E-03    0.427E-03
DAV:  36    -0.414667034798E+03   -0.94056E-06   -0.22707E-06 14120   0.401E-03    0.334E-03
DAV:  37    -0.414667035413E+03   -0.61496E-06   -0.19638E-06 14664   0.389E-03    0.246E-03
DAV:  38    -0.414667035889E+03   -0.47538E-06   -0.17872E-06 13664   0.343E-03    0.206E-03
DAV:  39    -0.414667036241E+03   -0.35274E-06   -0.81631E-07 12632   0.266E-03    0.145E-03
DAV:  40    -0.414667036394E+03   -0.15297E-06   -0.32073E-07 11728   0.206E-03    0.104E-03
DAV:  41    -0.414667036483E+03   -0.88694E-07   -0.27311E-07 10864   0.216E-03
   1 F= -.41466704E+03 E0= -.41465550E+03  d E =-.414667E+03  mag=    14.0049
quench:  g(F)=  0.000E+00 g(S)=  0.000E+00 dE (1.order)= 0.000E+00
 bond charge predicted
       N       E                     dE             d eps       ncg     rms          rms(c)
DAV:   1    -0.414677314440E+03   -0.10278E-01   -0.34751E-02 17720   0.647E-01    0.793E-02
DAV:   2    -0.414677781822E+03   -0.46738E-03   -0.50169E-03 22352   0.199E-01    0.466E-02
DAV:   3    -0.414677810613E+03   -0.28791E-04   -0.37290E-04 23768   0.570E-02    0.367E-02
DAV:   4    -0.414677809846E+03    0.76702E-06   -0.63964E-05 23848   0.239E-02    0.239E-02
DAV:   5    -0.414677807401E+03    0.24450E-05   -0.29919E-05 22432   0.170E-02    0.142E-02
DAV:   6    -0.414677808259E+03   -0.85794E-06   -0.10176E-05 22264   0.103E-02    0.700E-03
DAV:   7    -0.414677808555E+03   -0.29610E-06   -0.49459E-06 23456   0.585E-03    0.432E-03
DAV:   8    -0.414677808603E+03   -0.47577E-07   -0.80000E-07 19368   0.394E-03
   2 F= -.41467781E+03 E0= -.41466616E+03  d E =-.107721E-01  mag=    14.0054
quench:  g(F)=  0.000E+00 g(S)=  0.000E+00 dE (1.order)= 0.000E+00
 bond charge predicted
       N       E                     dE             d eps       ncg     rms          rms(c)
DAV:   1    -0.414500828886E+03    0.17698E+00   -0.27944E+01 17120   0.184E+01    0.226E+00
DAV:   2    -0.414883880766E+03   -0.38305E+00   -0.40579E+00 22472   0.572E+00    0.146E+00
DAV:   3    -0.414903182816E+03   -0.19302E-01   -0.25420E-01 24000   0.156E+00    0.931E-01
DAV:   4    -0.414902203174E+03    0.97964E-03   -0.44169E-02 23808   0.696E-01    0.739E-01
DAV:   5    -0.414901256875E+03    0.94630E-03   -0.18088E-02 23896   0.444E-01    0.405E-01
DAV:   6    -0.414901467590E+03   -0.21071E-03   -0.59171E-03 23928   0.245E-01    0.224E-01
DAV:   7    -0.414901713663E+03   -0.24607E-03   -0.29033E-03 24704   0.163E-01    0.119E-01
DAV:   8    -0.414901770103E+03   -0.56439E-04   -0.77347E-04 24096   0.103E-01    0.581E-02
DAV:   9    -0.414901778257E+03   -0.81542E-05   -0.28493E-04 24992   0.561E-02    0.400E-02
DAV:  10    -0.414901777406E+03    0.85063E-06   -0.72164E-05 24816   0.320E-02    0.225E-02
DAV:  11    -0.414901780431E+03   -0.30245E-05   -0.40167E-05 25112   0.201E-02    0.137E-02
DAV:  12    -0.414901781646E+03   -0.12149E-05   -0.10428E-05 24168   0.109E-02    0.703E-03
DAV:  13    -0.414901782735E+03   -0.10892E-05   -0.34607E-06 23608   0.694E-03    0.543E-03
DAV:  14    -0.414901783454E+03   -0.71908E-06   -0.11375E-06 19616   0.440E-03    0.354E-03
DAV:  15    -0.414901783994E+03   -0.53990E-06   -0.67943E-07 14880   0.305E-03    0.263E-03
DAV:  16    -0.414901784544E+03   -0.55017E-06   -0.46321E-07 12416   0.311E-03    0.229E-03
DAV:  17    -0.414901784985E+03   -0.44062E-06   -0.62112E-07 12536   0.291E-03    0.201E-03
DAV:  18    -0.414901785432E+03   -0.44749E-06   -0.53266E-07 12168   0.327E-03    0.177E-03
DAV:  19    -0.414901785833E+03   -0.40046E-06   -0.11112E-06 13448   0.379E-03    0.177E-03
DAV:  20    -0.414901786117E+03   -0.28498E-06   -0.99711E-07 12352   0.304E-03    0.140E-03
DAV:  21    -0.414901786268E+03   -0.15068E-06   -0.40271E-07 12328   0.252E-03    0.112E-03
DAV:  22    -0.414901786358E+03   -0.89931E-07   -0.32194E-07 11472   0.205E-03
   3 F= -.41490179E+03 E0= -.41488474E+03  d E =-.223978E+00  mag=    14.0435
quench:  g(F)=  0.000E+00 g(S)=  0.000E+00 dE (1.order)= 0.000E+00
 bond charge predicted
       N       E                     dE             d eps       ncg     rms          rms(c)
DAV:   1    -0.413665481835E+03    0.12363E+01   -0.68785E+01 16128   0.332E+01    0.403E+00
DAV:   2    -0.414962480867E+03   -0.12970E+01   -0.13527E+01 21616   0.102E+01    0.292E+00
DAV:   3    -0.415046948470E+03   -0.84468E-01   -0.88520E-01 24192   0.294E+00    0.158E+00
DAV:   4    -0.415045148913E+03    0.17996E-02   -0.11636E-01 23400   0.120E+00    0.123E+00
DAV:   5    -0.415040362319E+03    0.47866E-02   -0.50695E-02 23784   0.673E-01    0.730E-01
DAV:   6    -0.415040381478E+03   -0.19159E-04   -0.14959E-02 23480   0.405E-01    0.428E-01
DAV:   7    -0.415040907323E+03   -0.52585E-03   -0.61536E-03 24240   0.256E-01    0.257E-01
DAV:   8    -0.415041182199E+03   -0.27488E-03   -0.17759E-03 23032   0.171E-01    0.111E-01
DAV:   9    -0.415041238124E+03   -0.55925E-04   -0.10093E-03 24984   0.101E-01    0.768E-02
DAV:  10    -0.415041224585E+03    0.13538E-04   -0.23976E-04 24968   0.601E-02    0.476E-02
DAV:  11    -0.415041225116E+03   -0.53085E-06   -0.14136E-04 25592   0.354E-02    0.261E-02
DAV:  12    -0.415041230772E+03   -0.56557E-05   -0.31106E-05 23384   0.204E-02    0.134E-02
DAV:  13    -0.415041235219E+03   -0.44474E-05   -0.11895E-05 23560   0.118E-02    0.114E-02
DAV:  14    -0.415041238321E+03   -0.31013E-05   -0.47682E-06 22248   0.771E-03    0.747E-03
DAV:  15    -0.415041241215E+03   -0.28941E-05   -0.33207E-06 21008   0.585E-03    0.623E-03
DAV:  16    -0.415041244142E+03   -0.29268E-05   -0.27679E-06 18288   0.588E-03    0.540E-03
DAV:  17    -0.415041246677E+03   -0.25352E-05   -0.31887E-06 16408   0.545E-03    0.476E-03
DAV:  18    -0.415041248807E+03   -0.21301E-05   -0.23688E-06 14696   0.526E-03    0.411E-03
DAV:  19    -0.415041250891E+03   -0.20838E-05   -0.42609E-06 17152   0.731E-03    0.422E-03
DAV:  20    -0.415041252413E+03   -0.15228E-05   -0.61758E-06 14288   0.601E-03    0.365E-03
DAV:  21    -0.415041253299E+03   -0.88526E-06   -0.30554E-06 13736   0.478E-03    0.285E-03
DAV:  22    -0.415041253782E+03   -0.48321E-06   -0.12572E-06 12680   0.325E-03    0.173E-03
DAV:  23    -0.415041253978E+03   -0.19566E-06   -0.55778E-07 12672   0.269E-03    0.131E-03
DAV:  24    -0.415041254090E+03   -0.11209E-06   -0.38383E-07 11760   0.227E-03    0.101E-03
DAV:  25    -0.415041254171E+03   -0.80989E-07   -0.26840E-07 11312   0.187E-03
   4 F= -.41504125E+03 E0= -.41501951E+03  d E =-.139468E+00  mag=    14.0842
quench:  g(F)=  0.000E+00 g(S)=  0.000E+00 dE (1.order)= 0.000E+00
 bond charge predicted
       N       E                     dE             d eps       ncg     rms          rms(c)
DAV:   1    -0.414209835269E+03    0.83142E+00   -0.32295E+01 14352   0.264E+01    0.294E+00
DAV:   2    -0.415032550290E+03   -0.82272E+00   -0.85326E+00 21660   0.792E+00    0.192E+00
DAV:   3    -0.415091092302E+03   -0.58542E-01   -0.57689E-01 23856   0.210E+00    0.101E+00
DAV:   4    -0.415094101285E+03   -0.30090E-02   -0.82336E-02 23360   0.852E-01    0.839E-01
DAV:   5    -0.415093224017E+03    0.87727E-03   -0.20020E-02 24640   0.400E-01    0.597E-01
DAV:   6    -0.415092406552E+03    0.81746E-03   -0.62096E-03 22336   0.268E-01    0.359E-01
DAV:   7    -0.415092495964E+03   -0.89412E-04   -0.36461E-03 21680   0.208E-01    0.178E-01
DAV:   8    -0.415092699534E+03   -0.20357E-03   -0.18785E-03 24288   0.135E-01    0.883E-02
DAV:   9    -0.415092722628E+03   -0.23094E-04   -0.53493E-04 24640   0.838E-02    0.610E-02
DAV:  10    -0.415092718682E+03    0.39458E-05   -0.13542E-04 24808   0.473E-02    0.399E-02
DAV:  11    -0.415092725795E+03   -0.71127E-05   -0.73624E-05 25088   0.283E-02    0.206E-02
DAV:  12    -0.415092730896E+03   -0.51007E-05   -0.20802E-05 23384   0.175E-02    0.144E-02
DAV:  13    -0.415092734667E+03   -0.37715E-05   -0.96465E-06 23176   0.101E-02    0.989E-03
DAV:  14    -0.415092737761E+03   -0.30937E-05   -0.39446E-06 20536   0.660E-03    0.758E-03
DAV:  15    -0.415092741610E+03   -0.38496E-05   -0.29144E-06 18000   0.621E-03    0.639E-03
DAV:  16    -0.415092745845E+03   -0.42344E-05   -0.43431E-06 16016   0.713E-03    0.572E-03
DAV:  17    -0.415092749622E+03   -0.37768E-05   -0.72627E-06 15528   0.731E-03    0.515E-03
DAV:  18    -0.415092752678E+03   -0.30565E-05   -0.81723E-06 16944   0.952E-03    0.518E-03
DAV:  19    -0.415092754797E+03   -0.21186E-05   -0.83757E-06 15144   0.711E-03    0.440E-03
DAV:  20    -0.415092755968E+03   -0.11710E-05   -0.37125E-06 13632   0.439E-03    0.279E-03
DAV:  21    -0.415092756386E+03   -0.41795E-06   -0.93086E-07 12376   0.310E-03    0.195E-03
DAV:  22    -0.415092756578E+03   -0.19265E-06   -0.90006E-07 12664   0.363E-03    0.170E-03
DAV:  23    -0.415092756769E+03   -0.19023E-06   -0.79859E-07 11904   0.261E-03    0.115E-03
DAV:  24    -0.415092756860E+03   -0.91408E-07   -0.23149E-07 11112   0.187E-03
   5 F= -.41509276E+03 E0= -.41507174E+03  d E =-.515027E-01  mag=    14.0765
quench:  g(F)=  0.000E+00 g(S)=  0.000E+00 dE (1.order)= 0.000E+00
 bond charge predicted
       N       E                     dE             d eps       ncg     rms          rms(c)
DAV:   1    -0.412751364852E+03    0.23414E+01   -0.99429E+01 14120   0.437E+01    0.514E+00
DAV:   2    -0.414989680346E+03   -0.22383E+01   -0.23171E+01 21800   0.134E+01    0.371E+00
DAV:   3    -0.415147246444E+03   -0.15757E+00   -0.15694E+00 23816   0.352E+00    0.184E+00
DAV:   4    -0.415155517074E+03   -0.82706E-02   -0.22162E-01 23184   0.144E+00    0.145E+00
DAV:   5    -0.415153988758E+03    0.15283E-02   -0.55898E-02 24472   0.634E-01    0.105E+00
DAV:   6    -0.415151976898E+03    0.20119E-02   -0.14606E-02 22000   0.425E-01    0.639E-01
DAV:   7    -0.415152116801E+03   -0.13990E-03   -0.95082E-03 21024   0.339E-01    0.288E-01
DAV:   8    -0.415152602267E+03   -0.48547E-03   -0.50045E-03 24520   0.215E-01    0.164E-01
DAV:   9    -0.415152711631E+03   -0.10936E-03   -0.13470E-03 25216   0.133E-01    0.107E-01
DAV:  10    -0.415152731626E+03   -0.19995E-04   -0.31373E-04 24952   0.748E-02    0.785E-02
DAV:  11    -0.415152760252E+03   -0.28626E-04   -0.17815E-04 24800   0.461E-02    0.382E-02
DAV:  12    -0.415152785783E+03   -0.25532E-04   -0.59219E-05 23632   0.268E-02    0.246E-02
DAV:  13    -0.415152801746E+03   -0.15962E-04   -0.27639E-05 23800   0.168E-02    0.194E-02
DAV:  14    -0.415152814392E+03   -0.12646E-04   -0.13205E-05 23176   0.119E-02    0.156E-02
DAV:  15    -0.415152831116E+03   -0.16724E-04   -0.13603E-05 22128   0.125E-02    0.129E-02
DAV:  16    -0.415152850686E+03   -0.19570E-04   -0.22151E-05 19240   0.161E-02    0.116E-02
DAV:  17    -0.415152866401E+03   -0.15715E-04   -0.39800E-05 19920   0.160E-02    0.109E-02
DAV:  18    -0.415152876812E+03   -0.10411E-04   -0.30400E-05 18824   0.158E-02    0.991E-03
DAV:  19    -0.415152883433E+03   -0.66217E-05   -0.24481E-05 18016   0.111E-02    0.780E-03
DAV:  20    -0.415152886522E+03   -0.30883E-05   -0.87625E-06 16792   0.749E-03    0.534E-03
DAV:  21    -0.415152887880E+03   -0.13584E-05   -0.40726E-06 14384   0.545E-03    0.365E-03
DAV:  22    -0.415152888472E+03   -0.59149E-06   -0.18861E-06 13240   0.407E-03    0.243E-03
DAV:  23    -0.415152888776E+03   -0.30422E-06   -0.97910E-07 12872   0.319E-03    0.167E-03
DAV:  24    -0.415152888948E+03   -0.17189E-06   -0.36727E-07 11896   0.239E-03    0.103E-03
DAV:  25    -0.415152889024E+03   -0.76499E-07   -0.10407E-07  9800   0.183E-03
   6 F= -.41515289E+03 E0= -.41513551E+03  d E =-.601322E-01  mag=    14.0422
quench:  g(F)=  0.000E+00 g(S)=  0.000E+00 dE (1.order)= 0.000E+00
 bond charge predicted
       N       E                     dE             d eps       ncg     rms          rms(c)
DAV:   1    -0.413232727488E+03    0.19202E+01   -0.80447E+01 13968   0.461E+01    0.411E+00
DAV:   2    -0.415069417900E+03   -0.18367E+01   -0.18990E+01 22068   0.133E+01    0.229E+00
DAV:   3    -0.415174862478E+03   -0.10544E+00   -0.10688E+00 24080   0.319E+00    0.130E+00
DAV:   4    -0.415177996326E+03   -0.31338E-02   -0.13090E-01 24688   0.118E+00    0.108E+00
DAV:   5    -0.415174565837E+03    0.34305E-02   -0.27988E-02 24376   0.619E-01    0.806E-01
DAV:   6    -0.415172090767E+03    0.24751E-02   -0.98681E-03 21632   0.436E-01    0.423E-01
DAV:   7    -0.415172402005E+03   -0.31124E-03   -0.74645E-03 22632   0.300E-01    0.236E-01
DAV:   8    -0.415172788694E+03   -0.38669E-03   -0.28637E-03 24608   0.186E-01    0.967E-02
DAV:   9    -0.415172845040E+03   -0.56346E-04   -0.73318E-04 24264   0.106E-01    0.745E-02
DAV:  10    -0.415172851857E+03   -0.68169E-05   -0.24772E-04 24440   0.674E-02    0.471E-02
DAV:  11    -0.415172880565E+03   -0.28708E-04   -0.17400E-04 25008   0.448E-02    0.253E-02
DAV:  12    -0.415172902307E+03   -0.21742E-04   -0.58251E-05 22576   0.257E-02    0.197E-02
DAV:  13    -0.415172914916E+03   -0.12609E-04   -0.18915E-05 24104   0.138E-02    0.155E-02
DAV:  14    -0.415172931085E+03   -0.16169E-04   -0.13168E-05 22248   0.119E-02    0.134E-02
DAV:  15    -0.415172950281E+03   -0.19196E-04   -0.17783E-05 20624   0.142E-02    0.127E-02
DAV:  16    -0.415172970244E+03   -0.19964E-04   -0.38208E-05 19752   0.183E-02    0.118E-02
DAV:  17    -0.415172983689E+03   -0.13445E-04   -0.42609E-05 18376   0.144E-02    0.978E-03
DAV:  18    -0.415172991347E+03   -0.76579E-05   -0.19440E-05 19512   0.135E-02    0.788E-03
DAV:  19    -0.415172995773E+03   -0.44260E-05   -0.17688E-05 17944   0.984E-03    0.604E-03
DAV:  20    -0.415172997928E+03   -0.21548E-05   -0.66745E-06 14344   0.620E-03    0.375E-03
DAV:  21    -0.415172998768E+03   -0.83943E-06   -0.24098E-06 14136   0.438E-03    0.258E-03
DAV:  22    -0.415172999133E+03   -0.36576E-06   -0.12928E-06 13672   0.390E-03    0.190E-03
DAV:  23    -0.415172999328E+03   -0.19434E-06   -0.73924E-07 12440   0.288E-03    0.140E-03
DAV:  24    -0.415172999450E+03   -0.12223E-06   -0.26971E-07 11232   0.221E-03    0.844E-04
DAV:  25    -0.415172999505E+03   -0.55486E-07   -0.10870E-07  9976   0.170E-03
   7 F= -.41517300E+03 E0= -.41515670E+03  d E =-.201105E-01  mag=    14.0300
quench:  g(F)=  0.000E+00 g(S)=  0.000E+00 dE (1.order)= 0.000E+00
 bond charge predicted
       N       E                     dE             d eps       ncg     rms          rms(c)
DAV:   1    -0.414613953499E+03    0.55905E+00   -0.27972E+01 14264   0.245E+01    0.214E+00
DAV:   2    -0.415155006182E+03   -0.54105E+00   -0.55989E+00 22072   0.747E+00    0.111E+00
DAV:   3    -0.415187525520E+03   -0.32519E-01   -0.34765E-01 24808   0.175E+00    0.687E-01
DAV:   4    -0.415188027450E+03   -0.50193E-03   -0.39781E-02 25360   0.603E-01    0.581E-01
DAV:   5    -0.415186288203E+03    0.17392E-02   -0.93786E-03 24144   0.372E-01    0.433E-01
DAV:   6    -0.415185407011E+03    0.88119E-03   -0.43233E-03 21528   0.267E-01    0.197E-01
DAV:   7    -0.415185634178E+03   -0.22717E-03   -0.30469E-03 23584   0.163E-01    0.122E-01
DAV:   8    -0.415185749270E+03   -0.11509E-03   -0.85436E-04 24208   0.105E-01    0.563E-02
DAV:   9    -0.415185760342E+03   -0.11072E-04   -0.19775E-04 24424   0.584E-02    0.414E-02
DAV:  10    -0.415185761239E+03   -0.89677E-06   -0.10678E-04 24968   0.376E-02    0.246E-02
DAV:  11    -0.415185775446E+03   -0.14207E-04   -0.49013E-05 24896   0.232E-02    0.154E-02
DAV:  12    -0.415185782878E+03   -0.74318E-05   -0.15705E-05 23256   0.140E-02    0.125E-02
DAV:  13    -0.415185789970E+03   -0.70918E-05   -0.75332E-06 23448   0.910E-03    0.959E-03
DAV:  14    -0.415185797713E+03   -0.77434E-05   -0.63963E-06 18744   0.828E-03    0.860E-03
DAV:  15    -0.415185806313E+03   -0.86000E-05   -0.10263E-05 19872   0.103E-02    0.765E-03
DAV:  16    -0.415185814069E+03   -0.77555E-05   -0.18907E-05 17752   0.130E-02    0.770E-03
DAV:  17    -0.415185819004E+03   -0.49348E-05   -0.19248E-05 17840   0.104E-02    0.641E-03
DAV:  18    -0.415185821425E+03   -0.24216E-05   -0.68894E-06 14128   0.659E-03    0.396E-03
DAV:  19    -0.415185822424E+03   -0.99851E-06   -0.35119E-06 14880   0.540E-03    0.309E-03
DAV:  20    -0.415185822924E+03   -0.50034E-06   -0.18771E-06 13112   0.393E-03    0.202E-03
DAV:  21    -0.415185823140E+03   -0.21591E-06   -0.78348E-07 12520   0.294E-03    0.137E-03
DAV:  22    -0.415185823229E+03   -0.88832E-07   -0.26719E-07 11432   0.214E-03
   8 F= -.41518582E+03 E0= -.41517244E+03  d E =-.128237E-01  mag=    14.0078
quench:  g(F)=  0.000E+00 g(S)=  0.000E+00 dE (1.order)= 0.000E+00
 bond charge predicted
       N       E                     dE             d eps       ncg     rms          rms(c)
DAV:   1    -0.415012020149E+03    0.17380E+00   -0.61071E+00 14456   0.126E+01    0.125E+00
DAV:   2    -0.415180561653E+03   -0.16854E+00   -0.17481E+00 21840   0.367E+00    0.637E-01
DAV:   3    -0.415191846277E+03   -0.11285E-01   -0.10941E-01 24040   0.887E-01    0.378E-01
DAV:   4    -0.415192396963E+03   -0.55069E-03   -0.14659E-02 24752   0.313E-01    0.322E-01
DAV:   5    -0.415192129849E+03    0.26711E-03   -0.29495E-03 24208   0.176E-01    0.249E-01
DAV:   6    -0.415191950973E+03    0.17888E-03   -0.11206E-03 21304   0.130E-01    0.125E-01
DAV:   7    -0.415192001303E+03   -0.50330E-04   -0.74975E-04 22312   0.843E-02    0.649E-02
DAV:   8    -0.415192038500E+03   -0.37196E-04   -0.26936E-04 24576   0.529E-02    0.295E-02
DAV:   9    -0.415192041435E+03   -0.29353E-05   -0.58135E-05 24248   0.315E-02    0.244E-02
DAV:  10    -0.415192039264E+03    0.21710E-05   -0.22772E-05 25072   0.190E-02    0.149E-02
DAV:  11    -0.415192039174E+03    0.90447E-07   -0.13836E-05 25360   0.109E-02    0.756E-03
DAV:  12    -0.415192039882E+03   -0.70885E-06   -0.33877E-06 23184   0.629E-03    0.474E-03
DAV:  13    -0.415192040289E+03   -0.40647E-06   -0.76754E-07 16680   0.371E-03    0.332E-03
DAV:  14    -0.415192040643E+03   -0.35368E-06   -0.47644E-07 13592   0.286E-03    0.249E-03
DAV:  15    -0.415192041004E+03   -0.36130E-06   -0.28165E-07 11320   0.257E-03    0.214E-03
DAV:  16    -0.415192041402E+03   -0.39829E-06   -0.45785E-07 13208   0.266E-03    0.181E-03
DAV:  17    -0.415192041754E+03   -0.35232E-06   -0.44302E-07 11608   0.280E-03    0.159E-03
DAV:  18    -0.415192042054E+03   -0.29987E-06   -0.65516E-07 12624   0.297E-03    0.155E-03
DAV:  19    -0.415192042248E+03   -0.19419E-06   -0.61039E-07 11904   0.294E-03    0.136E-03
DAV:  20    -0.415192042366E+03   -0.11766E-06   -0.51599E-07 12080   0.231E-03    0.991E-04
DAV:  21    -0.415192042416E+03   -0.49702E-07   -0.13848E-07 10224   0.170E-03
   9 F= -.41519204E+03 E0= -.41517772E+03  d E =-.621919E-02  mag=    14.0136
quench:  g(F)=  0.000E+00 g(S)=  0.000E+00 dE (1.order)= 0.000E+00
 bond charge predicted
       N       E                     dE             d eps       ncg     rms          rms(c)
DAV:   1    -0.415154604404E+03    0.37438E-01   -0.14752E+00 14256   0.653E+00    0.568E-01
DAV:   2    -0.415192227175E+03   -0.37623E-01   -0.38909E-01 21732   0.193E+00    0.280E-01
DAV:   3    -0.415194288421E+03   -0.20612E-02   -0.20913E-02 24396   0.441E-01    0.166E-01
DAV:   4    -0.415194334743E+03   -0.46323E-04   -0.25702E-03 25360   0.143E-01    0.145E-01
DAV:   5    -0.415194207991E+03    0.12675E-03   -0.58734E-04 23160   0.974E-02    0.982E-02
DAV:   6    -0.415194184074E+03    0.23918E-04   -0.30447E-04 22144   0.691E-02    0.457E-02
DAV:   7    -0.415194200421E+03   -0.16347E-04   -0.14904E-04 23352   0.412E-02    0.290E-02
DAV:   8    -0.415194206416E+03   -0.59947E-05   -0.43504E-05 23744   0.253E-02    0.128E-02
DAV:   9    -0.415194207538E+03   -0.11225E-05   -0.13256E-05 24904   0.141E-02    0.987E-03
DAV:  10    -0.415194207900E+03   -0.36188E-06   -0.38891E-06 24720   0.805E-03    0.554E-03
DAV:  11    -0.415194208413E+03   -0.51328E-06   -0.23366E-06 22720   0.492E-03    0.331E-03
DAV:  12    -0.415194208776E+03   -0.36292E-06   -0.70438E-07 14368   0.321E-03    0.252E-03
DAV:  13    -0.415194209050E+03   -0.27403E-06   -0.37634E-07 12920   0.266E-03    0.221E-03
DAV:  14    -0.415194209310E+03   -0.26016E-06   -0.27408E-07 11344   0.234E-03    0.184E-03
DAV:  15    -0.415194209595E+03   -0.28456E-06   -0.33574E-07 12080   0.235E-03    0.154E-03
DAV:  16    -0.415194209915E+03   -0.32040E-06   -0.53644E-07 12216   0.298E-03    0.151E-03
DAV:  17    -0.415194210152E+03   -0.23688E-06   -0.85715E-07 12344   0.286E-03    0.137E-03
DAV:  18    -0.415194210289E+03   -0.13714E-06   -0.47495E-07 11624   0.274E-03    0.114E-03
DAV:  19    -0.415194210364E+03   -0.74586E-07   -0.32545E-07 11168   0.201E-03
  10 F= -.41519421E+03 E0= -.41517960E+03  d E =-.216795E-02  mag=    14.0163
quench:  g(F)=  0.000E+00 g(S)=  0.000E+00 dE (1.order)= 0.000E+00
 reached required accuracy - stopping structural energy minimisation
