unknown system                          
           1
     7.779112    0.004108    0.003623
    -0.004572    7.778910   -0.003498
    -0.005983    0.006298   12.495625
   La   Ni   O 
    16     8    33
Direct configuration=     1
   0.24543043  0.26664415  0.85628894
   0.00481967  0.50028950  0.36233637
   0.98853185  0.49549187  0.64214124
   0.50227720  0.49541686  0.64213924
   0.48594794  0.50032644  0.36233668
   0.98592282  0.99998118  0.36234641
   0.00204824  0.00476301  0.64213723
   0.74537882  0.73848436  0.13879317
   0.50482962  0.99996796  0.36233938
   0.74533412  0.25749961  0.13747399
   0.74546216  0.23348137  0.85619366
   0.24534326  0.76175286  0.13879403
   0.24534131  0.75300739  0.86042995
   0.24538039  0.24279714  0.13747039
   0.48872769  0.00469882  0.64213717
   0.74532731  0.74717908  0.86040979
   0.24539709  0.25108968  0.49988732
   0.74539528  0.24920642  0.49993003
   0.74538574  0.74799022  0.50230267
   0.24538295  0.75231091  0.50230850
   0.49472528  0.50131914  0.99933192
   0.99599701  0.50131540  0.99932146
   0.49599960  0.99893423  0.99933894
   0.99472662  0.99893726  0.99933680
   0.45906918  0.00800019  0.17821372
   0.52738414  0.96760578  0.82848711
   0.02709398  0.53280170  0.82843856
   0.95916332  0.49235860  0.17821108
   0.53155784  0.49224099  0.17820353
   0.46354705  0.53284270  0.82843121
   0.24528815  0.79056872  0.67459792
   0.03171772  0.00785563  0.17822608
   0.24535207  0.28838674  0.32253563
   0.74530774  0.78426156  0.32199963
   0.74538788  0.70984067  0.67457506
   0.74541905  0.21199394  0.32252140
   0.74540939  0.27350635  0.66953357
   0.24544822  0.71590844  0.32201320
   0.96323454  0.96774099  0.82848845
   0.99539184  0.25012914  0.99755471
   0.49538091  0.25013105  0.49247095
   0.24536074  0.00604131  0.98326637
   0.24535984  0.50028962  0.01900926
   0.74536449  0.00004439  0.01915645
   0.74535867  0.49405678  0.98335212
   0.39937403  0.23849262  0.70979288
   0.99533893  0.75012202  0.01552350
   0.49539107  0.75016199  0.49529760
   0.49534820  0.25013000  0.99749518
   0.24536970  0.00110200  0.48139478
   0.24542495  0.50212930  0.51723066
   0.74541734  0.99811325  0.51711736
   0.74536881  0.49922584  0.48148124
   0.99541050  0.25017838  0.49248819
   0.99537711  0.75011132  0.49522291
   0.49537538  0.75011923  0.01558080
   0.09151086  0.23857403  0.70977935
Direct configuration=     2
   0.24542834  0.26770382  0.85866183
   0.00461675  0.50025688  0.36239730
   0.98718681  0.49596310  0.64224643
   0.50362126  0.49589329  0.64224362
   0.48615098  0.50029359  0.36239780
   0.98557455  1.00005069  0.36242931
  -0.00097615  0.00119876  0.64143013
   0.74537876  0.73847760  0.13883435
   0.50517893  1.00003715  0.36242269
   0.74533692  0.25754404  0.13761842
   0.74546026  0.23285018  0.85609104
   0.24534470  0.76175151  0.13870267
   0.24534334  0.75288669  0.86028938
   0.24538150  0.24273304  0.13725065
   0.49175283  0.00112972  0.64142969
   0.74532927  0.74729778  0.86005220
   0.24539775  0.25167942  0.49838905
   0.74539824  0.24912628  0.49999851
   0.74538372  0.74808137  0.50241866
   0.24538033  0.75233601  0.50247071
   0.49451179  0.50139532  0.99931960
   0.99619814  0.50139386  0.99931198
   0.49584663  0.99885755  0.99931120
   0.99486723  0.99886088  0.99930960
   0.45907489  0.00807268  0.17827965
   0.52863001  0.96759590  0.82905565
   0.02641570  0.53305984  0.82862930
   0.95914596  0.49232011  0.17826574
   0.53158381  0.49220660  0.17825835
   0.46422766  0.53310071  0.82862032
   0.24528921  0.79048449  0.67466556
   0.03171821  0.00792902  0.17829191
   0.24535080  0.28831336  0.32276178
   0.74530660  0.78426826  0.32191616
   0.74538714  0.70986766  0.67473396
   0.74541673  0.21190343  0.32241657
   0.74540984  0.27432338  0.67048593
   0.24544593  0.71591541  0.32208443
   0.96199079  0.96773277  0.82905597
   0.99416339  0.25004161  0.99722370
   0.49486355  0.25017178  0.49218547
   0.24536129  0.00553808  0.98355109
   0.24536160  0.50064934  0.01931275
   0.74536624  0.00027918  0.01904050
   0.74535989  0.49363132  0.98318429
   0.40107628  0.24109128  0.70914459
   0.99530272  0.75013542  0.01550874
   0.49553343  0.74983493  0.49492594
   0.49658122  0.25004196  0.99716605
   0.24537047  0.00220087  0.48201286
   0.24542316  0.50079837  0.51762972
   0.74541575  0.99801515  0.51673126
   0.74536980  0.49932568  0.48130151
   0.99592787  0.25021726  0.49220269
   0.99523575  0.74978743  0.49485352
   0.49541347  0.75013281  0.01556484
   0.08980401  0.24116550  0.70912813
Direct configuration=     3
   0.24541928  0.26967648  0.86042631
   0.00429394  0.50019653  0.36252399
   0.98537035  0.49570668  0.64258693
   0.50544204  0.49564845  0.64258556
   0.48647395  0.50023188  0.36252461
   0.98518948  1.00028943  0.36233938
  -0.00530792 -0.00308857  0.64118749
   0.74537739  0.73846311  0.13867860
   0.50556717  1.00027639  0.36233243
   0.74534286  0.25765978  0.13769998
   0.74545156  0.23153044  0.85590505
   0.24534767  0.76181497  0.13868367
   0.24534797  0.75251116  0.85998087
   0.24538282  0.24243920  0.13738740
   0.49608594 -0.00315499  0.64119012
   0.74533446  0.74702055  0.86014070
   0.24538871  0.25262259  0.49541941
   0.74540407  0.24949586  0.50014434
   0.74538293  0.74751102  0.50225147
   0.24537752  0.75193094  0.50271297
   0.49478504  0.50173646  0.99927004
   0.99591212  0.50174040  0.99926505
   0.49602611  0.99853177  0.99932256
   0.99466851  0.99853851  0.99932086
   0.45902173  0.00837600  0.17845080
   0.53139968  0.96756153  0.82982081
   0.02501471  0.53417209  0.82933833
   0.95916311  0.49217480  0.17838031
   0.53158674  0.49207097  0.17837460
   0.46563307  0.53421607  0.82932832
   0.24529127  0.79051088  0.67468575
   0.03178583  0.00823407  0.17846320
   0.24534895  0.28807416  0.32294106
   0.74530449  0.78438348  0.32180520
   0.74538542  0.71108549  0.67480964
   0.74541175  0.21158487  0.32233390
   0.74541090  0.27593717  0.67206781
   0.24543967  0.71597576  0.32226421
   0.95922652  0.96770042  0.82981752
   0.99186887  0.24988210  0.99650287
   0.49447543  0.24993622  0.49133909
   0.24535643  0.00465062  0.98418175
   0.24535924  0.50112296  0.01995076
   0.74536520  0.00065447  0.01896366
   0.74535761  0.49288194  0.98293024
   0.40433127  0.24406024  0.70828530
   0.99529320  0.75018566  0.01555784
   0.49552171  0.74944764  0.49417763
   0.49888997  0.24988156  0.99644849
   0.24537570  0.00394112  0.48354781
   0.24542151  0.49896997  0.51839838
   0.74541191  0.99807552  0.51592958
   0.74537455  0.49918262  0.48090201
   0.99631660  0.24997583  0.49135455
   0.99524081  0.74940841  0.49411007
   0.49542688  0.75018123  0.01561224
   0.08654136  0.24412519  0.70826217
Direct configuration=     4
   0.24540984  0.27110171  0.85990974
   0.00402120  0.50038347  0.36254526
   0.98467285  0.49502599  0.64274241
   0.50613676  0.49496815  0.64273727
   0.48674698  0.50041555  0.36254677
   0.98517515  1.00039012  0.36227482
  -0.00705318 -0.00479128  0.64154122
   0.74537586  0.73842434  0.13856452
   0.50558609  1.00037955  0.36226952
   0.74534777  0.25780060  0.13754993
   0.74543725  0.23034109  0.85621026
   0.24534968  0.76183261  0.13882653
   0.24535117  0.75228615  0.85989678
   0.24538375  0.24214016  0.13770726
   0.49783455 -0.00485252  0.64154397
   0.74534034  0.74611605  0.86090552
   0.24539960  0.25285960  0.49302630
   0.74540137  0.24981463  0.50011423
   0.74537838  0.74690388  0.50169724
   0.24537428  0.75161586  0.50281579
   0.49523186  0.50182052  0.99932241
   0.99545845  0.50182496  0.99932210
   0.49636398  0.99844445  0.99938793
   0.99432884  0.99845368  0.99938571
   0.45888842  0.00883761  0.17853373
   0.53380912  0.96762441  0.83004270
   0.02403528  0.53557745  0.83004454
   0.95920245  0.49198687  0.17847185
   0.53156816  0.49189156  0.17846930
   0.46661744  0.53562149  0.83003421
   0.24529433  0.79071112  0.67474495
   0.03193409  0.00869620  0.17854582
   0.24534610  0.28775310  0.32280661
   0.74530370  0.78449406  0.32164721
   0.74538686  0.71332061  0.67461912
   0.74541096  0.21123450  0.32232106
   0.74541074  0.27729798  0.67269618
   0.24543329  0.71603594  0.32242805
   0.95681848  0.96775905  0.83003721
   0.99044605  0.24978426  0.99576992
   0.49461503  0.24956601  0.49042475
   0.24534783  0.00424311  0.98456993
   0.24535230  0.50109573  0.02041527
   0.74536107  0.00062545  0.01920959
   0.74535456  0.49250915  0.98290503
   0.40623582  0.24455208  0.70836783
   0.99528868  0.75028568  0.01573884
   0.49531317  0.74934071  0.49361276
   0.50032129  0.24978047  0.99572388
   0.24537763  0.00458862  0.48510077
   0.24541579  0.49823366  0.51906309
   0.74540736  0.99830661  0.51531789
   0.74537948  0.49870337  0.48058822
   0.99617800  0.24960054  0.49043670
   0.99544995  0.74930992  0.49355101
   0.49543311  0.75027795  0.01579023
   0.08462671  0.24460550  0.70834400
Direct configuration=     5
   0.24539208  0.27297919  0.85839865
   0.00341045  0.50108060  0.36228708
   0.98367051  0.49372025  0.64301290
   0.50714564  0.49368425  0.64301098
   0.48736575  0.50111511  0.36228279
   0.98518467  1.00039493  0.36246735
  -0.00823102 -0.00625657  0.64241748
   0.74537325  0.73839823  0.13875909
   0.50559008  1.00038356  0.36246051
   0.74535572  0.25789675  0.13751235
   0.74541268  0.22760603  0.85678800
   0.24535164  0.76176416  0.13896336
   0.24535791  0.75255331  0.86036782
   0.24538752  0.24163674  0.13745883
   0.49900714 -0.00630245  0.64242969
   0.74534568  0.74410296  0.86178588
   0.24536974  0.25287735  0.48915718
   0.74540251  0.24925176  0.49961030
   0.74538645  0.74707407  0.50047875
   0.24536923  0.75117989  0.50294244
   0.49502434  0.50152032  0.99975863
   0.99563679  0.50152591  0.99976649
   0.49635004  0.99873913  0.99946231
   0.99432356  0.99874285  0.99946454
   0.45849076  0.00999233  0.17851271
   0.53807919  0.96778872  0.83029016
   0.02293063  0.53856267  0.83080345
   0.95925961  0.49155825  0.17859859
   0.53155501  0.49148986  0.17860128
   0.46773665  0.53860194  0.83078983
   0.24530241  0.79110455  0.67519559
   0.03236828  0.00986727  0.17852314
   0.24533950  0.28703743  0.32233487
   0.74530915  0.78432419  0.32125108
   0.74539069  0.71858174  0.67388642
   0.74540890  0.21051282  0.32194697
   0.74541821  0.28043671  0.67237420
   0.24542097  0.71617904  0.32274290
   0.95255978  0.96791059  0.83028920
   0.98870604  0.24960604  0.99426835
   0.49469948  0.24907547  0.48864395
   0.24534753  0.00419479  0.98478794
   0.24535353  0.50045180  0.02112972
   0.74536418 -0.00024020  0.02046770
   0.74534850  0.49210577  0.98364829
   0.40871656  0.24343899  0.70963600
   0.99527964  0.75047263  0.01646888
   0.49520845  0.74913075  0.49265263
   0.50204545  0.24960313  0.99423038
   0.24537473  0.00453297  0.48815837
   0.24541685  0.49723015  0.52023785
   0.74540165  0.99842457  0.51422440
   0.74538416  0.49814908  0.48008519
   0.99612769  0.24908245  0.48865739
   0.99553326  0.74911855  0.49260056
   0.49543725  0.75045754  0.01651718
   0.08211899  0.24349917  0.70961714
Direct configuration=     6
   0.24537308  0.27398930  0.85848649
   0.00327213  0.50139435  0.36197161
   0.98320593  0.49281086  0.64281874
   0.50761263  0.49274945  0.64280150
   0.48751325  0.50141883  0.36199408
   0.98597440  1.00044180  0.36217279
  -0.00775707 -0.00742270  0.64265853
   0.74536316  0.73843385  0.13830364
   0.50481019  1.00044230  0.36218029
   0.74535996  0.25735735  0.13746504
   0.74539034  0.22506093  0.85653789
   0.24534570  0.76226186  0.13963560
   0.24534778  0.75298901  0.86075651
   0.24537395  0.24067974  0.13752310
   0.49854125 -0.00744409  0.64263450
   0.74537463  0.74219925  0.86188160
   0.24552666  0.25227460  0.48700745
   0.74542638  0.25018175  0.49817440
   0.74536614  0.74639968  0.49966967
   0.24534182  0.74974019  0.50320607
   0.49640106  0.50177584  1.00029787
   0.99433532  0.50180103  1.00031389
   0.49769862  0.99814494  0.99988303
   0.99305191  0.99816582  0.99987522
   0.45780896  0.01122682  0.17845098
   0.54098793  0.96784310  0.83096200
   0.02303254  0.54115659  0.83050867
   0.95968410  0.49101754  0.17846909
   0.53116390  0.49097544  0.17847291
   0.46762655  0.54117960  0.83049508
   0.24531043  0.79164033  0.67629596
   0.03306618  0.01113095  0.17846508
   0.24532223  0.28659496  0.32119265
   0.74531519  0.78365564  0.32148788
   0.74539621  0.72300047  0.67278947
   0.74541899  0.20952598  0.32160398
   0.74540619  0.28416170  0.67072078
   0.24540380  0.71655588  0.32282503
   0.94967225  0.96794424  0.83095406
   0.98829833  0.24965313  0.99284804
   0.49471587  0.24896917  0.48759880
   0.24532059  0.00510494  0.98400128
   0.24530806  0.49986610  0.02149312
   0.74530210 -0.00133945  0.02232593
   0.74533191  0.49185115  0.98532746
   0.41069480  0.24232881  0.71149562
   0.99617180  0.75038215  0.01740476
   0.49512913  0.74880604  0.49208742
   0.50243434  0.24966057  0.99281010
   0.24537350  0.00461471  0.49070232
   0.24538947  0.49683345  0.52123687
   0.74537917  0.99884608  0.51342597
   0.74539332  0.49839126  0.47994129
   0.99597089  0.24898345  0.48761755
   0.99567264  0.74880902  0.49204286
   0.49454701  0.75039124  0.01743960
   0.08011843  0.24234310  0.71147365
Direct configuration=     7
   0.24536715  0.27438465  0.85843902
   0.00318431  0.50151690  0.36163101
   0.98382436  0.49188322  0.64287957
   0.50699731  0.49184644  0.64288059
   0.48761011  0.50157112  0.36163863
   0.98595724  1.00019120  0.36230754
  -0.00657684 -0.00661368  0.64293980
   0.74535306  0.73788443  0.13859639
   0.50483971  1.00016239  0.36228931
   0.74536104  0.25729330  0.13722317
   0.74536623  0.22389541  0.85547148
   0.24535855  0.76201687  0.13938288
   0.24536596  0.75306957  0.86137644
   0.24537239  0.24100410  0.13688096
   0.49735474 -0.00664985  0.64293813
   0.74537238  0.74129441  0.86115590
   0.24531507  0.25268147  0.48696460
   0.74534164  0.24970070  0.49719846
   0.74541934  0.74756470  0.49934593
   0.24540368  0.74975374  0.50342217
   0.49540348  0.50145843  1.00065952
   0.99523105  0.50141991  1.00067552
   0.49696146  0.99849369  0.99989124
   0.99366596  0.99852175  0.99989144
   0.45743744  0.01173890  0.17842928
   0.54247006  0.96749582  0.83129244
   0.02283642  0.54268481  0.83022884
   0.95999460  0.49059186  0.17848585
   0.53086080  0.49055546  0.17849986
   0.46781889  0.54270119  0.83021990
   0.24531828  0.79231053  0.67649610
   0.03342441  0.01165023  0.17843351
   0.24532756  0.28638408  0.32091721
   0.74531753  0.78308241  0.32139343
   0.74539969  0.72504672  0.67221541
   0.74541010  0.20897334  0.32143049
   0.74538435  0.28639800  0.66945295
   0.24539882  0.71698058  0.32310801
   0.94821026  0.96756727  0.83129494
   0.98805509  0.24958536  0.99226809
   0.49499976  0.24903436  0.48721724
   0.24537323  0.00585184  0.98342612
   0.24537035  0.49971471  0.02142219
   0.74539486 -0.00210599  0.02388768
   0.74538504  0.49213455  0.98637612
   0.41171786  0.24074276  0.71267267
   0.99670376  0.75018816  0.01814375
   0.49475813  0.74866199  0.49191772
   0.50265833  0.24957078  0.99222888
   0.24538973  0.00349688  0.49176942
   0.24538410  0.49622210  0.52137745
   0.74536926  0.99928412  0.51304280
   0.74539032  0.49843615  0.47956113
   0.99596932  0.24905764  0.48722509
   0.99594754  0.74867327  0.49187997
   0.49399492  0.75014316  0.01816849
   0.07909584  0.24075219  0.71265303
Direct configuration=     8
   0.24537558  0.27395390  0.85889371
   0.00326661  0.50145756  0.36166441
   0.98390638  0.49252683  0.64270037
   0.50689989  0.49249024  0.64270127
   0.48752369  0.50149740  0.36167392
   0.98582296  1.00002653  0.36235916
  -0.00638683 -0.00651815  0.64258376
   0.74536293  0.73770304  0.13870145
   0.50496913  1.00000333  0.36234869
   0.74535575  0.25721533  0.13713021
   0.74536356  0.22444005  0.85519369
   0.24534918  0.76198315  0.13938301
   0.24536206  0.75309331  0.86134555
   0.24537197  0.24128851  0.13689062
   0.49715374 -0.00654374  0.64258871
   0.74536721  0.74162565  0.86074747
   0.24541415  0.25216126  0.48788241
   0.74542143  0.24947497  0.49721724
   0.74537854  0.74790671  0.49970781
   0.24536221  0.75005970  0.50340065
   0.49518606  0.50129729  1.00056843
   0.99550119  0.50130809  1.00058776
   0.49683881  0.99854824  0.99985395
   0.99385997  0.99856685  0.99985118
   0.45739537  0.01147304  0.17839049
   0.54164762  0.96737810  0.83120971
   0.02295889  0.54200409  0.83007440
   0.96016400  0.49053718  0.17846337
   0.53067790  0.49049563  0.17847679
   0.46770143  0.54202248  0.83006873
   0.24532201  0.79239397  0.67634632
   0.03345661  0.01138584  0.17839925
   0.24533703  0.28653697  0.32133671
   0.74531572  0.78302592  0.32138125
   0.74539983  0.72370923  0.67233700
   0.74541345  0.20913212  0.32144957
   0.74539162  0.28590093  0.66946208
   0.24540448  0.71702921  0.32308062
   0.94903634  0.96745407  0.83121176
   0.98836065  0.24967254  0.99253890
   0.49467976  0.24915467  0.48773431
   0.24534453  0.00604077  0.98324594
   0.24534897  0.49983943  0.02104688
   0.74536387 -0.00203556  0.02385073
   0.74534620  0.49246101  0.98621117
   0.41100215  0.24087415  0.71269558
   0.99678907  0.75020965  0.01804889
   0.49501069  0.74867991  0.49217340
   0.50236237  0.24967760  0.99250114
   0.24539216  0.00381534  0.49103057
   0.24539497  0.49656164  0.52109517
   0.74538643  0.99924313  0.51330681
   0.74539409  0.49875601  0.47943574
   0.99609323  0.24917229  0.48775000
   0.99577006  0.74868606  0.49213357
   0.49391685  0.75019482  0.01807791
   0.07981155  0.24090182  0.71267555
Direct configuration=     9
   0.24537155  0.27382787  0.85923996
   0.00335810  0.50136583  0.36170006
   0.98388848  0.49267712  0.64263259
   0.50691165  0.49264281  0.64263057
   0.48743468  0.50139847  0.36171148
   0.98584113  0.99997423  0.36224854
  -0.00631563 -0.00655845  0.64248106
   0.74536714  0.73754805  0.13852560
   0.50495130  0.99995418  0.36224356
   0.74535585  0.25703991  0.13698590
   0.74536652  0.22450209  0.85493321
   0.24534882  0.76209329  0.13947085
   0.24535840  0.75312443  0.86133204
   0.24537014  0.24134776  0.13707200
   0.49708161 -0.00658297  0.64248505
   0.74536979  0.74154828  0.86063310
   0.24539235  0.25222380  0.48816249
   0.74538250  0.24974840  0.49709660
   0.74538967  0.74779194  0.49985586
   0.24538129  0.75013099  0.50339369
   0.49541124  0.50143998  1.00050880
   0.99526814  0.50144146  1.00051793
   0.49703824  0.99845883  0.99988049
   0.99366072  0.99846901  0.99987589
   0.45719056  0.01144823  0.17841439
   0.54155604  0.96725966  0.83117148
   0.02292162  0.54188402  0.82994299
   0.96048271  0.49035123  0.17844344
   0.53035010  0.49030617  0.17845589
   0.46774540  0.54189811  0.82993743
   0.24532827  0.79257152  0.67628828
   0.03365946  0.01135951  0.17842624
   0.24533974  0.28657983  0.32160872
   0.74531727  0.78295906  0.32143260
   0.74539893  0.72313754  0.67221400
   0.74541417  0.20907976  0.32146392
   0.74539335  0.28609828  0.66933027
   0.24540760  0.71717029  0.32313075
   0.94913228  0.96733075  0.83117108
   0.98834492  0.24970265  0.99256702
   0.49457695  0.24915683  0.48805501
   0.24535110  0.00628656  0.98302962
   0.24534739  0.49987928  0.02078372
   0.74536244 -0.00213058  0.02407747
   0.74534365  0.49270282  0.98625599
   0.41102952  0.24100325  0.71281346
   0.99701690  0.75017642  0.01808943
   0.49507836  0.74870329  0.49230201
   0.50237720  0.24970014  0.99252992
   0.24539091  0.00387102  0.49078088
   0.24539939  0.49660958  0.52099889
   0.74539542  0.99925552  0.51340181
   0.74539484  0.49891240  0.47923094
   0.99623874  0.24917065  0.48807270
   0.99567524  0.74870864  0.49226194
   0.49369492  0.75016257  0.01812007
   0.07977694  0.24103785  0.71279606
Direct configuration=    10
   0.24537155  0.27382787  0.85923996
   0.00335810  0.50136583  0.36170006
   0.98388848  0.49267712  0.64263259
   0.50691165  0.49264281  0.64263057
   0.48743468  0.50139847  0.36171148
   0.98584113  0.99997423  0.36224854
  -0.00631563 -0.00655845  0.64248106
   0.74536714  0.73754805  0.13852560
   0.50495130  0.99995418  0.36224356
   0.74535585  0.25703991  0.13698590
   0.74536652  0.22450209  0.85493321
   0.24534882  0.76209329  0.13947085
   0.24535840  0.75312443  0.86133204
   0.24537014  0.24134776  0.13707200
   0.49708161 -0.00658297  0.64248505
   0.74536979  0.74154828  0.86063310
   0.24539235  0.25222380  0.48816249
   0.74538250  0.24974840  0.49709660
   0.74538967  0.74779194  0.49985586
   0.24538129  0.75013099  0.50339369
   0.49541124  0.50143998  1.00050880
   0.99526814  0.50144146  1.00051793
   0.49703824  0.99845883  0.99988049
   0.99366072  0.99846901  0.99987589
   0.45719056  0.01144823  0.17841439
   0.54155604  0.96725966  0.83117148
   0.02292162  0.54188402  0.82994299
   0.96048271  0.49035123  0.17844344
   0.53035010  0.49030617  0.17845589
   0.46774540  0.54189811  0.82993743
   0.24532827  0.79257152  0.67628828
   0.03365946  0.01135951  0.17842624
   0.24533974  0.28657983  0.32160872
   0.74531727  0.78295906  0.32143260
   0.74539893  0.72313754  0.67221400
   0.74541417  0.20907976  0.32146392
   0.74539335  0.28609828  0.66933027
   0.24540760  0.71717029  0.32313075
   0.94913228  0.96733075  0.83117108
   0.98834492  0.24970265  0.99256702
   0.49457695  0.24915683  0.48805501
   0.24535110  0.00628656  0.98302962
   0.24534739  0.49987928  0.02078372
   0.74536244 -0.00213058  0.02407747
   0.74534365  0.49270282  0.98625599
   0.41102952  0.24100325  0.71281346
   0.99701690  0.75017642  0.01808943
   0.49507836  0.74870329  0.49230201
   0.50237720  0.24970014  0.99252992
   0.24539091  0.00387102  0.49078088
   0.24539939  0.49660958  0.52099889
   0.74539542  0.99925552  0.51340181
   0.74539484  0.49891240  0.47923094
   0.99623874  0.24917065  0.48807270
   0.99567524  0.74870864  0.49226194
   0.49369492  0.75016257  0.01812007
   0.07977694  0.24103785  0.71279606
