   1   1   1   0
  0.1658294E+02  0.2862368E-09  0.2862368E-09  0.2862368E-09  0.5000000E-15
   1.0000000000000000E-004
  CAR 
 unknown system                          
    116.91124142     -8.87044909  301      8.00230304      1.00000000
     -8.870  0.0000E+00  0.0000E+00  0.0000E+00  0.0000E+00
     -8.451  0.0000E+00  0.0000E+00  0.0000E+00  0.0000E+00
     -8.032  0.0000E+00  0.0000E+00  0.0000E+00  0.0000E+00
     -7.613  0.0000E+00  0.0000E+00  0.0000E+00  0.0000E+00
     -7.193  0.0000E+00  0.0000E+00  0.0000E+00  0.0000E+00
     -6.774  0.0000E+00  0.0000E+00  0.0000E+00  0.0000E+00
     -6.355  0.0000E+00  0.0000E+00  0.0000E+00  0.0000E+00
     -5.936  0.0000E+00  0.0000E+00  0.0000E+00  0.0000E+00
     -5.516  0.0000E+00  0.0000E+00  0.0000E+00  0.0000E+00
     -5.097  0.0000E+00  0.0000E+00  0.0000E+00  0.0000E+00
     -4.678  0.0000E+00  0.0000E+00  0.0000E+00  0.0000E+00
     -4.258  0.0000E+00  0.0000E+00  0.0000E+00  0.0000E+00
     -3.839  0.0000E+00  0.0000E+00  0.0000E+00  0.0000E+00
     -3.420  0.0000E+00  0.0000E+00  0.0000E+00  0.0000E+00
     -3.001  0.1369E-01  0.1402E-01  0.6871E-03  0.7125E-03
     -2.581  0.4140E-01  0.4151E-01  0.1335E-01  0.1343E-01
     -2.162  0.5472E-01  0.5478E-01  0.3393E-01  0.3403E-01
     -1.743  0.6951E-01  0.6958E-01  0.5992E-01  0.6004E-01
     -1.324  0.7714E-01  0.7718E-01  0.9052E-01  0.9066E-01
     -0.904  0.8731E-01  0.8736E-01  0.1249E+00  0.1251E+00
     -0.485  0.9531E-01  0.9534E-01  0.1635E+00  0.1636E+00
     -0.066  0.1027E+00  0.1027E+00  0.2050E+00  0.2052E+00
      0.354  0.1108E+00  0.1108E+00  0.2497E+00  0.2499E+00
      0.773  0.1181E+00  0.1181E+00  0.2978E+00  0.2980E+00
      1.192  0.1239E+00  0.1240E+00  0.3485E+00  0.3487E+00
      1.611  0.1307E+00  0.1307E+00  0.4019E+00  0.4021E+00
      2.031  0.1382E+00  0.1383E+00  0.4582E+00  0.4584E+00
      2.450  0.1500E+00  0.1500E+00  0.5183E+00  0.5185E+00
      2.869  0.1634E+00  0.1634E+00  0.5842E+00  0.5845E+00
      3.288  0.1711E+00  0.1710E+00  0.6599E+00  0.6602E+00
      3.708  0.1473E+00  0.1472E+00  0.7247E+00  0.7250E+00
      4.127  0.1573E+00  0.1573E+00  0.7882E+00  0.7885E+00
      4.546  0.1897E+00  0.1896E+00  0.8587E+00  0.8590E+00
      4.966  0.1880E+00  0.1881E+00  0.9358E+00  0.9361E+00
      5.385  0.1818E+00  0.1817E+00  0.1017E+01  0.1017E+01
      5.804  0.1508E+00  0.1506E+00  0.1088E+01  0.1089E+01
      6.223  0.1432E+00  0.1432E+00  0.1148E+01  0.1148E+01
      6.643  0.2123E+00  0.2125E+00  0.1231E+01  0.1232E+01
      7.062  0.2099E+00  0.2099E+00  0.1323E+01  0.1324E+01
      7.481  0.1922E+00  0.1922E+00  0.1405E+01  0.1406E+01
      7.900  0.1709E+00  0.1708E+00  0.1483E+01  0.1483E+01
      8.320  0.1997E+00  0.2000E+00  0.1556E+01  0.1556E+01
      8.739  0.2497E+00  0.2498E+00  0.1654E+01  0.1654E+01
      9.158  0.2050E+00  0.2050E+00  0.1746E+01  0.1746E+01
      9.578  0.2117E+00  0.2118E+00  0.1832E+01  0.1833E+01
      9.997  0.2008E+00  0.2008E+00  0.1920E+01  0.1920E+01
     10.416  0.2337E+00  0.2338E+00  0.2016E+01  0.2017E+01
     10.835  0.2426E+00  0.2428E+00  0.2112E+01  0.2113E+01
     11.255  0.2397E+00  0.2396E+00  0.2216E+01  0.2217E+01
     11.674  0.2338E+00  0.2338E+00  0.2315E+01  0.2316E+01
     12.093  0.2410E+00  0.2411E+00  0.2415E+01  0.2416E+01
     12.512  0.2635E+00  0.2635E+00  0.2523E+01  0.2524E+01
     12.932  0.2795E+00  0.2795E+00  0.2637E+01  0.2637E+01
     13.351  0.2919E+00  0.2921E+00  0.2756E+01  0.2757E+01
     13.770  0.3035E+00  0.3036E+00  0.2882E+01  0.2883E+01
     14.190  0.2820E+00  0.2820E+00  0.3005E+01  0.3006E+01
     14.609  0.2747E+00  0.2747E+00  0.3122E+01  0.3123E+01
     15.028  0.2670E+00  0.2669E+00  0.3236E+01  0.3236E+01
     15.447  0.2608E+00  0.2608E+00  0.3346E+01  0.3347E+01
     15.867  0.2668E+00  0.2669E+00  0.3456E+01  0.3457E+01
     16.286  0.2635E+00  0.2635E+00  0.3568E+01  0.3569E+01
     16.705  0.2579E+00  0.2579E+00  0.3677E+01  0.3678E+01
     17.124  0.2565E+00  0.2565E+00  0.3785E+01  0.3785E+01
     17.544  0.2665E+00  0.2666E+00  0.3894E+01  0.3895E+01
     17.963  0.2777E+00  0.2779E+00  0.4009E+01  0.4009E+01
     18.382  0.2910E+00  0.2912E+00  0.4127E+01  0.4128E+01
     18.802  0.3108E+00  0.3107E+00  0.4255E+01  0.4256E+01
     19.221  0.3333E+00  0.3337E+00  0.4387E+01  0.4388E+01
     19.640  0.3891E+00  0.3890E+00  0.4540E+01  0.4541E+01
     20.059  0.3920E+00  0.3920E+00  0.4703E+01  0.4705E+01
     20.479  0.3435E+00  0.3425E+00  0.4869E+01  0.4870E+01
     20.898  0.2634E+00  0.2634E+00  0.4990E+01  0.4991E+01
     21.317  0.3032E+00  0.3081E+00  0.5098E+01  0.5099E+01
     21.736  0.2681E+00  0.2682E+00  0.5216E+01  0.5217E+01
     22.156  0.2537E+00  0.2540E+00  0.5324E+01  0.5325E+01
     22.575  0.3793E+00  0.3796E+00  0.5458E+01  0.5460E+01
     22.994  0.4315E+00  0.4318E+00  0.5629E+01  0.5631E+01
     23.414  0.3286E+00  0.3271E+00  0.5791E+01  0.5792E+01
     23.833  0.2883E+00  0.2892E+00  0.5912E+01  0.5913E+01
     24.252  0.3058E+00  0.3056E+00  0.6042E+01  0.6043E+01
     24.671  0.3007E+00  0.3007E+00  0.6167E+01  0.6168E+01
     25.091  0.3666E+00  0.3674E+00  0.6303E+01  0.6304E+01
     25.510  0.4553E+00  0.4554E+00  0.6478E+01  0.6479E+01
     25.929  0.4233E+00  0.4228E+00  0.6664E+01  0.6665E+01
     26.348  0.3993E+00  0.3996E+00  0.6833E+01  0.6834E+01
     26.768  0.3361E+00  0.3357E+00  0.6993E+01  0.6994E+01
     27.187  0.3207E+00  0.3204E+00  0.7131E+01  0.7132E+01
     27.606  0.2926E+00  0.2922E+00  0.7262E+01  0.7263E+01
     28.026  0.2905E+00  0.2909E+00  0.7382E+01  0.7383E+01
     28.445  0.4271E+00  0.4317E+00  0.7527E+01  0.7529E+01
     28.864  0.4210E+00  0.4171E+00  0.7730E+01  0.7732E+01
     29.283  0.5118E+00  0.5108E+00  0.7911E+01  0.7913E+01
     29.703  0.4237E+00  0.4236E+00  0.8099E+01  0.8100E+01
     30.122  0.4082E+00  0.4080E+00  0.8274E+01  0.8276E+01
     30.541  0.3514E+00  0.3511E+00  0.8433E+01  0.8434E+01
     30.960  0.3500E+00  0.3504E+00  0.8577E+01  0.8578E+01
     31.380  0.3992E+00  0.3993E+00  0.8733E+01  0.8735E+01
     31.799  0.4141E+00  0.4149E+00  0.8901E+01  0.8903E+01
     32.218  0.5493E+00  0.5478E+00  0.9127E+01  0.9130E+01
     32.638  0.4022E+00  0.4017E+00  0.9311E+01  0.9313E+01
     33.057  0.3633E+00  0.3612E+00  0.9477E+01  0.9478E+01
     33.476  0.3140E+00  0.3134E+00  0.9616E+01  0.9617E+01
     33.895  0.2561E+00  0.2557E+00  0.9733E+01  0.9734E+01
     34.315  0.2927E+00  0.2923E+00  0.9845E+01  0.9846E+01
     34.734  0.1865E+00  0.1862E+00  0.9941E+01  0.9942E+01
     35.153  0.1682E+00  0.1681E+00  0.1001E+02  0.1001E+02
     35.572  0.1710E+00  0.1711E+00  0.1008E+02  0.1009E+02
     35.992  0.1920E+00  0.1921E+00  0.1016E+02  0.1016E+02
     36.411  0.2409E+00  0.2413E+00  0.1025E+02  0.1025E+02
     36.830  0.2449E+00  0.2449E+00  0.1035E+02  0.1035E+02
     37.250  0.2632E+00  0.2633E+00  0.1046E+02  0.1046E+02
     37.669  0.2891E+00  0.2892E+00  0.1057E+02  0.1057E+02
     38.088  0.3994E+00  0.3995E+00  0.1072E+02  0.1072E+02
     38.507  0.3951E+00  0.3951E+00  0.1087E+02  0.1087E+02
     38.927  0.3149E+00  0.3145E+00  0.1102E+02  0.1102E+02
     39.346  0.3751E+00  0.3755E+00  0.1115E+02  0.1115E+02
     39.765  0.5278E+00  0.5288E+00  0.1134E+02  0.1134E+02
     40.184  0.4983E+00  0.4982E+00  0.1156E+02  0.1156E+02
     40.604  0.4283E+00  0.4283E+00  0.1175E+02  0.1175E+02
     41.023  0.4505E+00  0.4509E+00  0.1193E+02  0.1193E+02
     41.442  0.6074E+00  0.6178E+00  0.1214E+02  0.1214E+02
     41.861  0.5087E+00  0.5087E+00  0.1237E+02  0.1237E+02
     42.281  0.5213E+00  0.5208E+00  0.1258E+02  0.1259E+02
     42.700  0.4480E+00  0.4511E+00  0.1276E+02  0.1276E+02
     43.119  0.4451E+00  0.4443E+00  0.1299E+02  0.1299E+02
     43.539  0.4249E+00  0.4259E+00  0.1316E+02  0.1316E+02
     43.958  0.5050E+00  0.5052E+00  0.1336E+02  0.1336E+02
     44.377  0.4371E+00  0.4368E+00  0.1356E+02  0.1356E+02
     44.796  0.3943E+00  0.3939E+00  0.1373E+02  0.1373E+02
     45.216  0.3854E+00  0.3858E+00  0.1389E+02  0.1389E+02
     45.635  0.4985E+00  0.4989E+00  0.1408E+02  0.1408E+02
     46.054  0.5749E+00  0.5749E+00  0.1430E+02  0.1431E+02
     46.473  0.5459E+00  0.5457E+00  0.1454E+02  0.1454E+02
     46.893  0.4399E+00  0.4394E+00  0.1475E+02  0.1475E+02
     47.312  0.4207E+00  0.4213E+00  0.1492E+02  0.1493E+02
     47.731  0.4594E+00  0.4591E+00  0.1512E+02  0.1512E+02
     48.151  0.4616E+00  0.4619E+00  0.1531E+02  0.1531E+02
     48.570  0.5472E+00  0.5477E+00  0.1552E+02  0.1552E+02
     48.989  0.4637E+00  0.4633E+00  0.1574E+02  0.1574E+02
     49.408  0.3977E+00  0.3995E+00  0.1591E+02  0.1591E+02
     49.828  0.6454E+00  0.6524E+00  0.1612E+02  0.1612E+02
     50.247  0.3149E+00  0.3151E+00  0.1627E+02  0.1627E+02
     50.666  0.3829E+00  0.3835E+00  0.1641E+02  0.1641E+02
     51.085  0.5388E+00  0.5398E+00  0.1660E+02  0.1660E+02
     51.505  0.6496E+00  0.6498E+00  0.1685E+02  0.1685E+02
     51.924  0.4550E+00  0.4555E+00  0.1708E+02  0.1708E+02
     52.343  0.3952E+00  0.3955E+00  0.1725E+02  0.1725E+02
     52.763  0.4775E+00  0.4779E+00  0.1744E+02  0.1744E+02
     53.182  0.7278E+00  0.7276E+00  0.1771E+02  0.1771E+02
     53.601  0.9781E+00  0.9785E+00  0.1804E+02  0.1804E+02
     54.020  0.9261E+00  0.9247E+00  0.1849E+02  0.1849E+02
     54.440  0.9072E+00  0.9065E+00  0.1883E+02  0.1883E+02
     54.859  0.1069E+01  0.1069E+01  0.1921E+02  0.1921E+02
     55.278  0.9401E+00  0.9399E+00  0.1965E+02  0.1965E+02
     55.697  0.1006E+01  0.1008E+01  0.2006E+02  0.2006E+02
     56.117  0.1732E+01  0.1732E+01  0.2061E+02  0.2061E+02
     56.536  0.1077E+01  0.1077E+01  0.2121E+02  0.2121E+02
     56.955  0.1235E+01  0.1231E+01  0.2168E+02  0.2168E+02
     57.375  0.9173E+00  0.9210E+00  0.2204E+02  0.2204E+02
     57.794  0.7309E+00  0.7296E+00  0.2241E+02  0.2241E+02
     58.213  0.6430E+00  0.6429E+00  0.2267E+02  0.2267E+02
     58.632  0.6767E+00  0.6777E+00  0.2293E+02  0.2293E+02
     59.052  0.9251E+00  0.9261E+00  0.2326E+02  0.2327E+02
     59.471  0.8620E+00  0.8605E+00  0.2364E+02  0.2364E+02
     59.890  0.6240E+00  0.6329E+00  0.2392E+02  0.2393E+02
     60.309  0.4738E+00  0.4740E+00  0.2414E+02  0.2414E+02
     60.729  0.5352E+00  0.5356E+00  0.2434E+02  0.2435E+02
     61.148  0.6222E+00  0.6221E+00  0.2459E+02  0.2459E+02
     61.567  0.7030E+00  0.7034E+00  0.2487E+02  0.2487E+02
     61.987  0.5727E+00  0.5719E+00  0.2516E+02  0.2516E+02
     62.406  0.4777E+00  0.4775E+00  0.2536E+02  0.2537E+02
     62.825  0.5483E+00  0.5482E+00  0.2557E+02  0.2557E+02
     63.244  0.5549E+00  0.5544E+00  0.2581E+02  0.2581E+02
     63.664  0.5271E+00  0.5266E+00  0.2604E+02  0.2604E+02
     64.083  0.4869E+00  0.4870E+00  0.2625E+02  0.2625E+02
     64.502  0.5477E+00  0.5483E+00  0.2646E+02  0.2647E+02
     64.921  0.5765E+00  0.5760E+00  0.2672E+02  0.2672E+02
     65.341  0.4453E+00  0.4450E+00  0.2692E+02  0.2692E+02
     65.760  0.4681E+00  0.4682E+00  0.2711E+02  0.2711E+02
     66.179  0.5044E+00  0.5044E+00  0.2732E+02  0.2732E+02
     66.599  0.4768E+00  0.4765E+00  0.2752E+02  0.2752E+02
     67.018  0.3828E+00  0.3828E+00  0.2770E+02  0.2770E+02
     67.437  0.3891E+00  0.3892E+00  0.2786E+02  0.2786E+02
     67.856  0.3903E+00  0.3903E+00  0.2802E+02  0.2802E+02
     68.276  0.4304E+00  0.4306E+00  0.2819E+02  0.2819E+02
     68.695  0.5799E+00  0.5798E+00  0.2840E+02  0.2841E+02
     69.114  0.5174E+00  0.5170E+00  0.2864E+02  0.2864E+02
     69.533  0.4933E+00  0.4930E+00  0.2885E+02  0.2885E+02
     69.953  0.4736E+00  0.4736E+00  0.2905E+02  0.2905E+02
     70.372  0.5361E+00  0.5359E+00  0.2925E+02  0.2925E+02
     70.791  0.4992E+00  0.4992E+00  0.2946E+02  0.2946E+02
     71.211  0.5230E+00  0.5232E+00  0.2968E+02  0.2968E+02
     71.630  0.5306E+00  0.5307E+00  0.2990E+02  0.2990E+02
     72.049  0.5184E+00  0.5183E+00  0.3012E+02  0.3012E+02
     72.468  0.4696E+00  0.4692E+00  0.3033E+02  0.3033E+02
     72.888  0.4247E+00  0.4247E+00  0.3051E+02  0.3051E+02
     73.307  0.3674E+00  0.3672E+00  0.3069E+02  0.3069E+02
     73.726  0.4284E+00  0.4282E+00  0.3086E+02  0.3086E+02
     74.145  0.3931E+00  0.3932E+00  0.3103E+02  0.3103E+02
     74.565  0.3964E+00  0.3967E+00  0.3119E+02  0.3119E+02
     74.984  0.5136E+00  0.5273E+00  0.3140E+02  0.3140E+02
     75.403  0.4629E+00  0.4631E+00  0.3160E+02  0.3160E+02
     75.823  0.4774E+00  0.4777E+00  0.3179E+02  0.3179E+02
     76.242  0.7356E+00  0.7347E+00  0.3204E+02  0.3204E+02
     76.661  0.5434E+00  0.5435E+00  0.3228E+02  0.3228E+02
     77.080  0.4728E+00  0.4719E+00  0.3251E+02  0.3251E+02
     77.500  0.4351E+00  0.4353E+00  0.3269E+02  0.3269E+02
     77.919  0.6457E+00  0.6472E+00  0.3290E+02  0.3290E+02
     78.338  0.6745E+00  0.6739E+00  0.3318E+02  0.3318E+02
     78.757  0.5594E+00  0.5586E+00  0.3342E+02  0.3342E+02
     79.177  0.5130E+00  0.5109E+00  0.3367E+02  0.3367E+02
     79.596  0.4528E+00  0.4531E+00  0.3386E+02  0.3386E+02
     80.015  0.4898E+00  0.4887E+00  0.3406E+02  0.3406E+02
     80.435  0.4992E+00  0.4997E+00  0.3426E+02  0.3426E+02
     80.854  0.5710E+00  0.5712E+00  0.3448E+02  0.3448E+02
     81.273  0.6185E+00  0.6187E+00  0.3472E+02  0.3472E+02
     81.692  0.6673E+00  0.6662E+00  0.3500E+02  0.3500E+02
     82.112  0.6334E+00  0.6322E+00  0.3528E+02  0.3528E+02
     82.531  0.5453E+00  0.5453E+00  0.3552E+02  0.3552E+02
     82.950  0.5033E+00  0.5034E+00  0.3574E+02  0.3574E+02
     83.369  0.6691E+00  0.6699E+00  0.3598E+02  0.3598E+02
     83.789  0.6534E+00  0.6534E+00  0.3624E+02  0.3624E+02
     84.208  0.5987E+00  0.5984E+00  0.3651E+02  0.3651E+02
     84.627  0.4968E+00  0.4964E+00  0.3674E+02  0.3674E+02
     85.047  0.3800E+00  0.3796E+00  0.3693E+02  0.3693E+02
     85.466  0.3907E+00  0.3910E+00  0.3708E+02  0.3708E+02
     85.885  0.4646E+00  0.4650E+00  0.3726E+02  0.3726E+02
     86.304  0.4794E+00  0.4797E+00  0.3746E+02  0.3746E+02
     86.724  0.4698E+00  0.4700E+00  0.3766E+02  0.3766E+02
     87.143  0.5616E+00  0.5622E+00  0.3787E+02  0.3787E+02
     87.562  0.5738E+00  0.5733E+00  0.3811E+02  0.3811E+02
     87.981  0.5944E+00  0.5940E+00  0.3836E+02  0.3836E+02
     88.401  0.7195E+00  0.7210E+00  0.3862E+02  0.3862E+02
     88.820  0.7477E+00  0.7463E+00  0.3895E+02  0.3895E+02
     89.239  0.5132E+00  0.5132E+00  0.3920E+02  0.3920E+02
     89.659  0.5873E+00  0.5873E+00  0.3943E+02  0.3943E+02
     90.078  0.6843E+00  0.6830E+00  0.3969E+02  0.3969E+02
     90.497  0.5039E+00  0.5034E+00  0.3994E+02  0.3994E+02
     90.916  0.5222E+00  0.5198E+00  0.4015E+02  0.4015E+02
     91.336  0.4555E+00  0.4556E+00  0.4034E+02  0.4034E+02
     91.755  0.5104E+00  0.5107E+00  0.4054E+02  0.4054E+02
     92.174  0.5255E+00  0.5262E+00  0.4076E+02  0.4076E+02
     92.593  0.6221E+00  0.6222E+00  0.4100E+02  0.4100E+02
     93.013  0.5393E+00  0.5388E+00  0.4125E+02  0.4125E+02
     93.432  0.4022E+00  0.4020E+00  0.4144E+02  0.4144E+02
     93.851  0.4216E+00  0.4219E+00  0.4161E+02  0.4161E+02
     94.271  0.6474E+00  0.6491E+00  0.4182E+02  0.4182E+02
     94.690  0.6734E+00  0.6731E+00  0.4212E+02  0.4212E+02
     95.109  0.6020E+00  0.6018E+00  0.4238E+02  0.4238E+02
     95.528  0.6185E+00  0.6187E+00  0.4264E+02  0.4264E+02
     95.948  0.7352E+00  0.7349E+00  0.4291E+02  0.4291E+02
     96.367  0.7197E+00  0.7199E+00  0.4322E+02  0.4322E+02
     96.786  0.6188E+00  0.6186E+00  0.4349E+02  0.4349E+02
     97.205  0.5978E+00  0.5986E+00  0.4374E+02  0.4374E+02
     97.625  0.5923E+00  0.5923E+00  0.4400E+02  0.4401E+02
     98.044  0.4371E+00  0.4369E+00  0.4422E+02  0.4422E+02
     98.463  0.4306E+00  0.4304E+00  0.4440E+02  0.4440E+02
     98.883  0.4213E+00  0.4214E+00  0.4458E+02  0.4458E+02
     99.302  0.5419E+00  0.5415E+00  0.4479E+02  0.4479E+02
     99.721  0.6357E+00  0.6362E+00  0.4503E+02  0.4503E+02
    100.140  0.6533E+00  0.6533E+00  0.4531E+02  0.4531E+02
    100.560  0.6617E+00  0.6616E+00  0.4558E+02  0.4558E+02
    100.979  0.5706E+00  0.5695E+00  0.4585E+02  0.4585E+02
    101.398  0.5119E+00  0.5118E+00  0.4608E+02  0.4608E+02
    101.817  0.5098E+00  0.5100E+00  0.4629E+02  0.4629E+02
    102.237  0.4801E+00  0.4799E+00  0.4650E+02  0.4650E+02
    102.656  0.5353E+00  0.5355E+00  0.4671E+02  0.4671E+02
    103.075  0.4892E+00  0.4897E+00  0.4693E+02  0.4693E+02
    103.495  0.4538E+00  0.4533E+00  0.4713E+02  0.4713E+02
    103.914  0.3722E+00  0.3722E+00  0.4730E+02  0.4730E+02
    104.333  0.4207E+00  0.4211E+00  0.4746E+02  0.4746E+02
    104.752  0.3810E+00  0.3808E+00  0.4763E+02  0.4763E+02
    105.172  0.3073E+00  0.3052E+00  0.4778E+02  0.4778E+02
    105.591  0.2082E+00  0.2077E+00  0.4789E+02  0.4789E+02
    106.010  0.7133E-01  0.7068E-01  0.4795E+02  0.4795E+02
    106.429  0.3608E-01  0.3602E-01  0.4797E+02  0.4797E+02
    106.849  0.1453E-01  0.1451E-01  0.4798E+02  0.4798E+02
    107.268  0.1137E-01  0.1136E-01  0.4798E+02  0.4798E+02
    107.687  0.8764E-02  0.8750E-02  0.4799E+02  0.4799E+02
    108.107  0.6707E-02  0.6695E-02  0.4799E+02  0.4799E+02
    108.526  0.5201E-02  0.5193E-02  0.4799E+02  0.4799E+02
    108.945  0.4178E-02  0.4171E-02  0.4800E+02  0.4800E+02
    109.364  0.3270E-02  0.3263E-02  0.4800E+02  0.4800E+02
    109.784  0.2421E-02  0.2414E-02  0.4800E+02  0.4800E+02
    110.203  0.1631E-02  0.1624E-02  0.4800E+02  0.4800E+02
    110.622  0.9006E-03  0.8939E-03  0.4800E+02  0.4800E+02
    111.041  0.2294E-03  0.2231E-03  0.4800E+02  0.4800E+02
    111.461  0.0000E+00  0.0000E+00  0.4800E+02  0.4800E+02
    111.880  0.0000E+00  0.0000E+00  0.4800E+02  0.4800E+02
    112.299  0.0000E+00  0.0000E+00  0.4800E+02  0.4800E+02
    112.719  0.0000E+00  0.0000E+00  0.4800E+02  0.4800E+02
    113.138  0.0000E+00  0.0000E+00  0.4800E+02  0.4800E+02
    113.557  0.0000E+00  0.0000E+00  0.4800E+02  0.4800E+02
    113.976  0.0000E+00  0.0000E+00  0.4800E+02  0.4800E+02
    114.396  0.0000E+00  0.0000E+00  0.4800E+02  0.4800E+02
    114.815  0.0000E+00  0.0000E+00  0.4800E+02  0.4800E+02
    115.234  0.0000E+00  0.0000E+00  0.4800E+02  0.4800E+02
    115.653  0.0000E+00  0.0000E+00  0.4800E+02  0.4800E+02
    116.073  0.0000E+00  0.0000E+00  0.4800E+02  0.4800E+02
    116.492  0.0000E+00  0.0000E+00  0.4800E+02  0.4800E+02
    116.911  0.0000E+00  0.0000E+00  0.4800E+02  0.4800E+02
    116.91124142     -8.87044909  301      8.00230304      1.00000000
     -8.870  0.0000E+00  0.0000E+00  0.0000E+00  0.0000E+00  0.0000E+00  0.0000E+00  0.0000E+00  0.0000E+00  0.0000E+00  0.0000E+00  0.0000E+00  0.0000E+00  0.0000E+00  0.0000E+00  0.0000E+00  0.0000E+00  0.0000E+00  0.0000E+00
     -8.451  0.0000E+00  0.0000E+00  0.0000E+00  0.0000E+00  0.0000E+00  0.0000E+00  0.0000E+00  0.0000E+00  0.0000E+00  0.0000E+00  0.0000E+00  0.0000E+00  0.0000E+00  0.0000E+00  0.0000E+00  0.0000E+00  0.0000E+00  0.0000E+00
     -8.032  0.0000E+00  0.0000E+00  0.0000E+00  0.0000E+00  0.0000E+00  0.0000E+00  0.0000E+00  0.0000E+00  0.0000E+00  0.0000E+00  0.0000E+00  0.0000E+00  0.0000E+00  0.0000E+00  0.0000E+00  0.0000E+00  0.0000E+00  0.0000E+00
     -7.613  0.0000E+00  0.0000E+00  0.0000E+00  0.0000E+00  0.0000E+00  0.0000E+00  0.0000E+00  0.0000E+00  0.0000E+00  0.0000E+00  0.0000E+00  0.0000E+00  0.0000E+00  0.0000E+00  0.0000E+00  0.0000E+00  0.0000E+00  0.0000E+00
     -7.193  0.0000E+00  0.0000E+00  0.0000E+00  0.0000E+00  0.0000E+00  0.0000E+00  0.0000E+00  0.0000E+00  0.0000E+00  0.0000E+00  0.0000E+00  0.0000E+00  0.0000E+00  0.0000E+00  0.0000E+00  0.0000E+00  0.0000E+00  0.0000E+00
     -6.774  0.0000E+00  0.0000E+00  0.0000E+00  0.0000E+00  0.0000E+00  0.0000E+00  0.0000E+00  0.0000E+00  0.0000E+00  0.0000E+00  0.0000E+00  0.0000E+00  0.0000E+00  0.0000E+00  0.0000E+00  0.0000E+00  0.0000E+00  0.0000E+00
     -6.355  0.0000E+00  0.0000E+00  0.0000E+00  0.0000E+00  0.0000E+00  0.0000E+00  0.0000E+00  0.0000E+00  0.0000E+00  0.0000E+00  0.0000E+00  0.0000E+00  0.0000E+00  0.0000E+00  0.0000E+00  0.0000E+00  0.0000E+00  0.0000E+00
     -5.936  0.0000E+00  0.0000E+00  0.0000E+00  0.0000E+00  0.0000E+00  0.0000E+00  0.0000E+00  0.0000E+00  0.0000E+00  0.0000E+00  0.0000E+00  0.0000E+00  0.0000E+00  0.0000E+00  0.0000E+00  0.0000E+00  0.0000E+00  0.0000E+00
     -5.516  0.0000E+00  0.0000E+00  0.0000E+00  0.0000E+00  0.0000E+00  0.0000E+00  0.0000E+00  0.0000E+00  0.0000E+00  0.0000E+00  0.0000E+00  0.0000E+00  0.0000E+00  0.0000E+00  0.0000E+00  0.0000E+00  0.0000E+00  0.0000E+00
     -5.097  0.0000E+00  0.0000E+00  0.0000E+00  0.0000E+00  0.0000E+00  0.0000E+00  0.0000E+00  0.0000E+00  0.0000E+00  0.0000E+00  0.0000E+00  0.0000E+00  0.0000E+00  0.0000E+00  0.0000E+00  0.0000E+00  0.0000E+00  0.0000E+00
     -4.678  0.0000E+00  0.0000E+00  0.0000E+00  0.0000E+00  0.0000E+00  0.0000E+00  0.0000E+00  0.0000E+00  0.0000E+00  0.0000E+00  0.0000E+00  0.0000E+00  0.0000E+00  0.0000E+00  0.0000E+00  0.0000E+00  0.0000E+00  0.0000E+00
     -4.258  0.0000E+00  0.0000E+00  0.0000E+00  0.0000E+00  0.0000E+00  0.0000E+00  0.0000E+00  0.0000E+00  0.0000E+00  0.0000E+00  0.0000E+00  0.0000E+00  0.0000E+00  0.0000E+00  0.0000E+00  0.0000E+00  0.0000E+00  0.0000E+00
     -3.839  0.0000E+00  0.0000E+00  0.0000E+00  0.0000E+00  0.0000E+00  0.0000E+00  0.0000E+00  0.0000E+00  0.0000E+00  0.0000E+00  0.0000E+00  0.0000E+00  0.0000E+00  0.0000E+00  0.0000E+00  0.0000E+00  0.0000E+00  0.0000E+00
     -3.420  0.0000E+00  0.0000E+00  0.0000E+00  0.0000E+00  0.0000E+00  0.0000E+00  0.0000E+00  0.0000E+00  0.0000E+00  0.0000E+00  0.0000E+00  0.0000E+00  0.0000E+00  0.0000E+00  0.0000E+00  0.0000E+00  0.0000E+00  0.0000E+00
     -3.001  0.3633E-02  0.3725E-02  0.1721E-04  0.1764E-04  0.1721E-04  0.1764E-04  0.1721E-04  0.1764E-04  0.0000E+00  0.0000E+00  0.0000E+00  0.0000E+00  0.0000E+00  0.0000E+00  0.0000E+00  0.0000E+00  0.0000E+00  0.0000E+00
     -2.581  0.1066E-01  0.1070E-01  0.1617E-03  0.1625E-03  0.1617E-03  0.1625E-03  0.1617E-03  0.1625E-03  0.0000E+00  0.0000E+00  0.0000E+00  0.0000E+00  0.0000E+00  0.0000E+00  0.0000E+00  0.0000E+00  0.0000E+00  0.0000E+00
     -2.162  0.1358E-01  0.1361E-01  0.3841E-03  0.3852E-03  0.3841E-03  0.3852E-03  0.3841E-03  0.3852E-03  0.0000E+00  0.0000E+00  0.0000E+00  0.0000E+00  0.0000E+00  0.0000E+00  0.0000E+00  0.0000E+00  0.0000E+00  0.0000E+00
     -1.743  0.1684E-01  0.1686E-01  0.6257E-03  0.6270E-03  0.6257E-03  0.6270E-03  0.6257E-03  0.6270E-03  0.0000E+00  0.0000E+00  0.0000E+00  0.0000E+00  0.0000E+00  0.0000E+00  0.0000E+00  0.0000E+00  0.0000E+00  0.0000E+00
     -1.324  0.1789E-01  0.1791E-01  0.9498E-03  0.9515E-03  0.9498E-03  0.9515E-03  0.9498E-03  0.9515E-03  0.0000E+00  0.0000E+00  0.0000E+00  0.0000E+00  0.0000E+00  0.0000E+00  0.0000E+00  0.0000E+00  0.0000E+00  0.0000E+00
     -0.904  0.1965E-01  0.1967E-01  0.1269E-02  0.1271E-02  0.1269E-02  0.1271E-02  0.1269E-02  0.1271E-02  0.0000E+00  0.0000E+00  0.0000E+00  0.0000E+00  0.0000E+00  0.0000E+00  0.0000E+00  0.0000E+00  0.0000E+00  0.0000E+00
     -0.485  0.2061E-01  0.2063E-01  0.1645E-02  0.1648E-02  0.1645E-02  0.1648E-02  0.1645E-02  0.1648E-02  0.0000E+00  0.0000E+00  0.0000E+00  0.0000E+00  0.0000E+00  0.0000E+00  0.0000E+00  0.0000E+00  0.0000E+00  0.0000E+00
     -0.066  0.2133E-01  0.2135E-01  0.2043E-02  0.2046E-02  0.2043E-02  0.2046E-02  0.2043E-02  0.2046E-02  0.0000E+00  0.0000E+00  0.0000E+00  0.0000E+00  0.0000E+00  0.0000E+00  0.0000E+00  0.0000E+00  0.0000E+00  0.0000E+00
      0.354  0.2221E-01  0.2223E-01  0.2446E-02  0.2448E-02  0.2446E-02  0.2448E-02  0.2446E-02  0.2448E-02  0.0000E+00  0.0000E+00  0.0000E+00  0.0000E+00  0.0000E+00  0.0000E+00  0.0000E+00  0.0000E+00  0.0000E+00  0.0000E+00
      0.773  0.2273E-01  0.2275E-01  0.2888E-02  0.2891E-02  0.2888E-02  0.2891E-02  0.2888E-02  0.2891E-02  0.0000E+00  0.0000E+00  0.0000E+00  0.0000E+00  0.0000E+00  0.0000E+00  0.0000E+00  0.0000E+00  0.0000E+00  0.0000E+00
      1.192  0.2266E-01  0.2268E-01  0.3381E-02  0.3384E-02  0.3381E-02  0.3384E-02  0.3381E-02  0.3384E-02  0.0000E+00  0.0000E+00  0.0000E+00  0.0000E+00  0.0000E+00  0.0000E+00  0.0000E+00  0.0000E+00  0.0000E+00  0.0000E+00
      1.611  0.2280E-01  0.2281E-01  0.3879E-02  0.3882E-02  0.3879E-02  0.3882E-02  0.3879E-02  0.3882E-02  0.0000E+00  0.0000E+00  0.0000E+00  0.0000E+00  0.0000E+00  0.0000E+00  0.0000E+00  0.0000E+00  0.0000E+00  0.0000E+00
      2.031  0.2294E-01  0.2296E-01  0.4422E-02  0.4425E-02  0.4422E-02  0.4425E-02  0.4422E-02  0.4425E-02  0.0000E+00  0.0000E+00  0.0000E+00  0.0000E+00  0.0000E+00  0.0000E+00  0.0000E+00  0.0000E+00  0.0000E+00  0.0000E+00
      2.450  0.2324E-01  0.2327E-01  0.5233E-02  0.5238E-02  0.5233E-02  0.5238E-02  0.5233E-02  0.5238E-02  0.0000E+00  0.0000E+00  0.0000E+00  0.0000E+00  0.0000E+00  0.0000E+00  0.0000E+00  0.0000E+00  0.0000E+00  0.0000E+00
      2.869  0.2342E-01  0.2344E-01  0.6191E-02  0.6195E-02  0.6191E-02  0.6195E-02  0.6191E-02  0.6195E-02  0.0000E+00  0.0000E+00  0.0000E+00  0.0000E+00  0.0000E+00  0.0000E+00  0.0000E+00  0.0000E+00  0.0000E+00  0.0000E+00
      3.288  0.2265E-01  0.2266E-01  0.6964E-02  0.6962E-02  0.6964E-02  0.6962E-02  0.6964E-02  0.6962E-02  0.0000E+00  0.0000E+00  0.0000E+00  0.0000E+00  0.0000E+00  0.0000E+00  0.0000E+00  0.0000E+00  0.0000E+00  0.0000E+00
      3.708  0.1812E-01  0.1813E-01  0.6361E-02  0.6361E-02  0.6361E-02  0.6361E-02  0.6361E-02  0.6361E-02  0.0000E+00  0.0000E+00  0.0000E+00  0.0000E+00  0.0000E+00  0.0000E+00  0.0000E+00  0.0000E+00  0.0000E+00  0.0000E+00
      4.127  0.1757E-01  0.1759E-01  0.7264E-02  0.7266E-02  0.7264E-02  0.7266E-02  0.7264E-02  0.7266E-02  0.0000E+00  0.0000E+00  0.0000E+00  0.0000E+00  0.0000E+00  0.0000E+00  0.0000E+00  0.0000E+00  0.0000E+00  0.0000E+00
      4.546  0.1985E-01  0.1985E-01  0.9182E-02  0.9179E-02  0.9182E-02  0.9179E-02  0.9182E-02  0.9179E-02  0.0000E+00  0.0000E+00  0.0000E+00  0.0000E+00  0.0000E+00  0.0000E+00  0.0000E+00  0.0000E+00  0.0000E+00  0.0000E+00
      4.966  0.1932E-01  0.1934E-01  0.9260E-02  0.9266E-02  0.9260E-02  0.9266E-02  0.9260E-02  0.9266E-02  0.0000E+00  0.0000E+00  0.0000E+00  0.0000E+00  0.0000E+00  0.0000E+00  0.0000E+00  0.0000E+00  0.0000E+00  0.0000E+00
      5.385  0.1875E-01  0.1876E-01  0.8892E-02  0.8897E-02  0.8892E-02  0.8897E-02  0.8892E-02  0.8897E-02  0.0000E+00  0.0000E+00  0.0000E+00  0.0000E+00  0.0000E+00  0.0000E+00  0.0000E+00  0.0000E+00  0.0000E+00  0.0000E+00
      5.804  0.1573E-01  0.1573E-01  0.7299E-02  0.7295E-02  0.7299E-02  0.7295E-02  0.7299E-02  0.7295E-02  0.0000E+00  0.0000E+00  0.0000E+00  0.0000E+00  0.0000E+00  0.0000E+00  0.0000E+00  0.0000E+00  0.0000E+00  0.0000E+00
      6.223  0.1563E-01  0.1564E-01  0.6769E-02  0.6777E-02  0.6769E-02  0.6777E-02  0.6769E-02  0.6777E-02  0.0000E+00  0.0000E+00  0.0000E+00  0.0000E+00  0.0000E+00  0.0000E+00  0.0000E+00  0.0000E+00  0.0000E+00  0.0000E+00
      6.643  0.1940E-01  0.1943E-01  0.1079E-01  0.1081E-01  0.1079E-01  0.1081E-01  0.1079E-01  0.1081E-01  0.0000E+00  0.0000E+00  0.0000E+00  0.0000E+00  0.0000E+00  0.0000E+00  0.0000E+00  0.0000E+00  0.0000E+00  0.0000E+00
      7.062  0.1795E-01  0.1798E-01  0.1066E-01  0.1066E-01  0.1066E-01  0.1066E-01  0.1066E-01  0.1066E-01  0.0000E+00  0.0000E+00  0.0000E+00  0.0000E+00  0.0000E+00  0.0000E+00  0.0000E+00  0.0000E+00  0.0000E+00  0.0000E+00
      7.481  0.1743E-01  0.1744E-01  0.9260E-02  0.9265E-02  0.9260E-02  0.9265E-02  0.9260E-02  0.9265E-02  0.0000E+00  0.0000E+00  0.0000E+00  0.0000E+00  0.0000E+00  0.0000E+00  0.0000E+00  0.0000E+00  0.0000E+00  0.0000E+00
      7.900  0.1391E-01  0.1391E-01  0.8627E-02  0.8626E-02  0.8627E-02  0.8626E-02  0.8627E-02  0.8626E-02  0.0000E+00  0.0000E+00  0.0000E+00  0.0000E+00  0.0000E+00  0.0000E+00  0.0000E+00  0.0000E+00  0.0000E+00  0.0000E+00
      8.320  0.2001E-01  0.2006E-01  0.9170E-02  0.9186E-02  0.9170E-02  0.9186E-02  0.9170E-02  0.9186E-02  0.0000E+00  0.0000E+00  0.0000E+00  0.0000E+00  0.0000E+00  0.0000E+00  0.0000E+00  0.0000E+00  0.0000E+00  0.0000E+00
      8.739  0.2574E-01  0.2577E-01  0.1143E-01  0.1145E-01  0.1143E-01  0.1145E-01  0.1143E-01  0.1145E-01  0.0000E+00  0.0000E+00  0.0000E+00  0.0000E+00  0.0000E+00  0.0000E+00  0.0000E+00  0.0000E+00  0.0000E+00  0.0000E+00
      9.158  0.1907E-01  0.1908E-01  0.9758E-02  0.9765E-02  0.9758E-02  0.9765E-02  0.9758E-02  0.9765E-02  0.0000E+00  0.0000E+00  0.0000E+00  0.0000E+00  0.0000E+00  0.0000E+00  0.0000E+00  0.0000E+00  0.0000E+00  0.0000E+00
      9.578  0.1903E-01  0.1906E-01  0.1020E-01  0.1021E-01  0.1020E-01  0.1021E-01  0.1020E-01  0.1021E-01  0.0000E+00  0.0000E+00  0.0000E+00  0.0000E+00  0.0000E+00  0.0000E+00  0.0000E+00  0.0000E+00  0.0000E+00  0.0000E+00
      9.997  0.1762E-01  0.1763E-01  0.9733E-02  0.9741E-02  0.9733E-02  0.9741E-02  0.9733E-02  0.9741E-02  0.0000E+00  0.0000E+00  0.0000E+00  0.0000E+00  0.0000E+00  0.0000E+00  0.0000E+00  0.0000E+00  0.0000E+00  0.0000E+00
     10.416  0.2553E-01  0.2554E-01  0.1118E-01  0.1120E-01  0.1118E-01  0.1120E-01  0.1118E-01  0.1120E-01  0.0000E+00  0.0000E+00  0.0000E+00  0.0000E+00  0.0000E+00  0.0000E+00  0.0000E+00  0.0000E+00  0.0000E+00  0.0000E+00
     10.835  0.2316E-01  0.2318E-01  0.1212E-01  0.1214E-01  0.1212E-01  0.1214E-01  0.1212E-01  0.1214E-01  0.0000E+00  0.0000E+00  0.0000E+00  0.0000E+00  0.0000E+00  0.0000E+00  0.0000E+00  0.0000E+00  0.0000E+00  0.0000E+00
     11.255  0.2285E-01  0.2285E-01  0.1200E-01  0.1201E-01  0.1200E-01  0.1201E-01  0.1200E-01  0.1201E-01  0.0000E+00  0.0000E+00  0.0000E+00  0.0000E+00  0.0000E+00  0.0000E+00  0.0000E+00  0.0000E+00  0.0000E+00  0.0000E+00
     11.674  0.2215E-01  0.2216E-01  0.1200E-01  0.1202E-01  0.1200E-01  0.1202E-01  0.1200E-01  0.1202E-01  0.0000E+00  0.0000E+00  0.0000E+00  0.0000E+00  0.0000E+00  0.0000E+00  0.0000E+00  0.0000E+00  0.0000E+00  0.0000E+00
     12.093  0.2230E-01  0.2231E-01  0.1304E-01  0.1306E-01  0.1304E-01  0.1306E-01  0.1304E-01  0.1306E-01  0.0000E+00  0.0000E+00  0.0000E+00  0.0000E+00  0.0000E+00  0.0000E+00  0.0000E+00  0.0000E+00  0.0000E+00  0.0000E+00