    1    1    1    2
  0.1658294E+02  0.2862368E-09  0.2862368E-09  0.2862368E-09  0.5000000E-15
   1.0000000000000000E-004
  CAR 
 unknown system                          
      3     56     48

  0.1262379E-14  0.1262379E-14  0.1262379E-14  0.7513148E-03
    1       -3.151269     -3.153100   1.000000   1.000000
    2       20.540344     20.538977   0.000000   0.000000
    3       20.540344     20.538977   0.000000   0.000000
    4       20.540344     20.538977   0.000000   0.000000
    5       21.995104     21.989717   0.000000   0.000000
    6       21.995104     21.989717   0.000000   0.000000
    7       21.995104     21.989717   0.000000   0.000000
    8       24.377606     24.377827   0.000000   0.000000
    9       27.315013     27.311100   0.000000   0.000000
   10       27.315013     27.311100   0.000000   0.000000
   11       30.160681     30.157510   0.000000   0.000000
   12       32.510942     32.509878   0.000000   0.000000
   13       32.510942     32.509878   0.000000   0.000000
   14       32.510942     32.509879   0.000000   0.000000
   15       41.063449     41.060889   0.000000   0.000000
   16       55.987847     55.986760   0.000000   0.000000
   17       55.987847     55.986760   0.000000   0.000000
   18       55.987848     55.986760   0.000000   0.000000
   19       56.045289     56.045470   0.000000   0.000000
   20       59.212037     59.209155   0.000000   0.000000
   21       59.212037     59.209155   0.000000   0.000000
   22       59.212037     59.209155   0.000000   0.000000
   23       62.832556     62.831976   0.000000   0.000000
   24       62.832556     62.831976   0.000000   0.000000
   25       65.076008     65.071955   0.000000   0.000000
   26       65.076008     65.071955   0.000000   0.000000
   27       65.076008     65.071955   0.000000   0.000000
   28       73.172994     73.171725   0.000000   0.000000
   29       73.172994     73.171725   0.000000   0.000000
   30       73.172994     73.171725   0.000000   0.000000
   31       80.816455     80.815216   0.000000   0.000000
   32       83.069977     83.067826   0.000000   0.000000
   33       83.069977     83.067826   0.000000   0.000000
   34       87.199771     87.199610   0.000000   0.000000
   35       87.199771     87.199610   0.000000   0.000000
   36       87.199771     87.199612   0.000000   0.000000
   37       90.082590     90.076393   0.000000   0.000000
   38       90.082590     90.076394   0.000000   0.000000
   39       90.082590     90.076394   0.000000   0.000000
   40       90.890146     90.883047   0.000000   0.000000
   41       93.456844     93.456471   0.000000   0.000000
   42       93.456844     93.456471   0.000000   0.000000
   43       93.456844     93.456471   0.000000   0.000000
   44       93.931129     93.927370   0.000000   0.000000
   45       93.931129     93.927370   0.000000   0.000000
   46       93.931129     93.927370   0.000000   0.000000
   47       96.372641     96.373035   0.000000   0.000000
   48       96.372642     96.373035   0.000000   0.000000

  0.9090909E-01  0.1262062E-14  0.1262062E-14  0.6010518E-02
    1       -2.927439     -2.929269   1.000000   1.000000
    2       17.619181     17.617089   0.000000   0.000000
    3       19.893768     19.891435   0.000000   0.000000
    4       19.893768     19.891435   0.000000   0.000000
    5       22.669741     22.666227   0.000000   0.000000
    6       22.980344     22.975764   0.000000   0.000000
    7       22.980345     22.975765   0.000000   0.000000
    8       26.202232     26.199012   0.000000   0.000000
    9       26.202232     26.199013   0.000000   0.000000
   10       26.470519     26.469682   0.000000   0.000000
   11       29.408678     29.405917   0.000000   0.000000
   12       33.603845     33.602133   0.000000   0.000000
   13       34.081117     34.079464   0.000000   0.000000
   14       34.081117     34.079465   0.000000   0.000000
   15       41.938463     41.936033   0.000000   0.000000
   16       55.265176     55.264588   0.000000   0.000000
   17       55.553738     55.552282   0.000000   0.000000
   18       55.553738     55.552282   0.000000   0.000000
   19       56.339102     56.338598   0.000000   0.000000
   20       57.165049     57.162542   0.000000   0.000000
   21       57.165049     57.162543   0.000000   0.000000
   22       59.195058     59.192372   0.000000   0.000000
   23       61.578541     61.577080   0.000000   0.000000
   24       61.578541     61.577081   0.000000   0.000000
   25       65.276259     65.272162   0.000000   0.000000
   26       68.932082     68.929037   0.000000   0.000000
   27       68.932082     68.929037   0.000000   0.000000
   28       71.526739     71.525636   0.000000   0.000000
   29       72.973320     72.971784   0.000000   0.000000
   30       72.973320     72.971785   0.000000   0.000000
   31       81.822736     81.820207   0.000000   0.000000
   32       81.822736     81.820207   0.000000   0.000000
   33       82.298729     82.297070   0.000000   0.000000
   34       84.084462     84.081260   0.000000   0.000000
   35       85.786412     85.786012   0.000000   0.000000
   36       85.786412     85.786012   0.000000   0.000000
   37       87.980909     87.978314   0.000000   0.000000
   38       87.980909     87.978315   0.000000   0.000000
   39       89.002487     89.000640   0.000000   0.000000
   40       90.082217     90.076128   0.000000   0.000000
   41       91.299719     91.297831   0.000000   0.000000
   42       91.299719     91.297832   0.000000   0.000000
   43       92.876482     92.875128   0.000000   0.000000
   44       94.802988     94.803231   0.000000   0.000000
   45       95.642087     95.642491   0.000000   0.000000
   46       95.642087     95.642491   0.000000   0.000000
   47       97.094503     97.090727   0.000000   0.000000
   48       97.094504     97.090727   0.000000   0.000000

  0.1818182E+00  0.1266963E-14  0.1266963E-14  0.6010518E-02
    1       -2.258066     -2.259896   1.000000   1.000000
    2       13.974195     13.972185   0.000000   0.000000
    3       19.160650     19.157970   0.000000   0.000000
    4       19.160650     19.157970   0.000000   0.000000
    5       22.437077     22.434163   0.000000   0.000000
    6       23.802783     23.798544   0.000000   0.000000
    7       23.802783     23.798544   0.000000   0.000000
    8       25.315994     25.313125   0.000000   0.000000
    9       25.315994     25.313126   0.000000   0.000000
   10       27.892703     27.890134   0.000000   0.000000
   11       29.979500     29.978100   0.000000   0.000000
   12       36.431317     36.428909   0.000000   0.000000
   13       37.234856     37.232667   0.000000   0.000000
   14       37.234856     37.232667   0.000000   0.000000
   15       44.144999     44.142881   0.000000   0.000000
   16       51.708858     51.706498   0.000000   0.000000
   17       51.708858     51.706499   0.000000   0.000000
   18       53.874428     53.873673   0.000000   0.000000
   19       56.371147     56.369809   0.000000   0.000000
   20       56.371147     56.369809   0.000000   0.000000
   21       56.540287     56.539608   0.000000   0.000000
   22       58.855666     58.853496   0.000000   0.000000
   23       61.718443     61.716778   0.000000   0.000000
   24       61.718443     61.716779   0.000000   0.000000
   25       65.866589     65.862344   0.000000   0.000000
   26       68.893770     68.892488   0.000000   0.000000
   27       71.062408     71.059949   0.000000   0.000000
   28       71.062408     71.059949   0.000000   0.000000
   29       73.944371     73.942093   0.000000   0.000000
   30       73.944372     73.942094   0.000000   0.000000
   31       78.843993     78.840052   0.000000   0.000000
   32       78.980725     78.978340   0.000000   0.000000
   33       78.980725     78.978340   0.000000   0.000000
   34       82.811430     82.811645   0.000000   0.000000
   35       82.811431     82.811645   0.000000   0.000000
   36       84.819186     84.817517   0.000000   0.000000
   37       85.651207     85.650830   0.000000   0.000000
   38       86.579500     86.577903   0.000000   0.000000
   39       86.579500     86.577904   0.000000   0.000000
   40       87.490848     87.489243   0.000000   0.000000
   41       89.442919     89.437622   0.000000   0.000000
   42       90.010915     90.008614   0.000000   0.000000
   43       90.010915     90.008615   0.000000   0.000000
   44       93.909320     93.909894   0.000000   0.000000
   45       97.281971     97.281385   0.000000   0.000000
   46       97.281971     97.281385   0.000000   0.000000
   47       99.483528     99.481910   0.000000   0.000000
   48       99.483528     99.481911   0.000000   0.000000

  0.2727273E+00  0.1237835E-14  0.1237835E-14  0.6010518E-02
    1       -1.149358     -1.151187   1.000000   1.000000
    2       10.549513     10.547566  -0.016185  -0.016289
    3       18.751859     18.749056   0.000000   0.000000
    4       18.751859     18.749056   0.000000   0.000000
    5       22.225184     22.222505   0.000000   0.000000
    6       22.257773     22.254504   0.000000   0.000000
    7       22.257773     22.254505   0.000000   0.000000
    8       26.247021     26.244472   0.000000   0.000000
    9       27.361028     27.357333   0.000000   0.000000
   10       27.361028     27.357333   0.000000   0.000000
   11       33.314279     33.312521   0.000000   0.000000
   12       40.516148     40.513171   0.000000   0.000000
   13       40.848835     40.846130   0.000000   0.000000
   14       40.848835     40.846130   0.000000   0.000000
   15       47.029510     47.027770   0.000000   0.000000
   16       47.367830     47.365864   0.000000   0.000000
   17       47.367830     47.365865   0.000000   0.000000
   18       51.909392     51.908705   0.000000   0.000000
   19       56.327887     56.326634   0.000000   0.000000
   20       56.327887     56.326635   0.000000   0.000000
   21       56.766233     56.765338   0.000000   0.000000
   22       57.905026     57.903569   0.000000   0.000000
   23       62.166580     62.164645   0.000000   0.000000
   24       62.166581     62.164646   0.000000   0.000000
   25       66.325302     66.322973   0.000000   0.000000
   26       66.805147     66.800601   0.000000   0.000000
   27       67.836171     67.833386   0.000000   0.000000
   28       67.836171     67.833386   0.000000   0.000000
   29       74.381925     74.380988   0.000000   0.000000
   30       74.381926     74.380988   0.000000   0.000000
   31       75.744056     75.739987   0.000000   0.000000
   32       78.380351     78.380715   0.000000   0.000000
   33       79.117422     79.116964   0.000000   0.000000
   34       79.117423     79.116964   0.000000   0.000000
   35       79.964394     79.962690   0.000000   0.000000
   36       79.964397     79.962690   0.000000   0.000000
   37       81.181232     81.179900   0.000000   0.000000
   38       88.161045     88.159385   0.000000   0.000000
   39       88.161045     88.159387   0.000000   0.000000
   40       88.738114     88.734246   0.000000   0.000000
   41       89.479881     89.477513   0.000000   0.000000
   42       89.479872     89.477516   0.000000   0.000000
   43       91.113008     91.111190   0.000000   0.000000
   44       93.030098     93.029804   0.000000   0.000000
   45       97.507211     97.505713   0.000000   0.000000
   46       97.507205     97.505742   0.000000   0.000000
   47      101.492711    101.490948   0.000000   0.000000
   48      102.438131    102.437594   0.000000   0.000000

  0.3636364E+00  0.1236297E-14  0.1236297E-14  0.6010518E-02
    1        0.388732      0.386905   1.000000   1.000000
    2        7.447031      7.445118   0.711075   0.711878
    3       18.707942     18.705057   0.000000   0.000000
    4       18.707942     18.705058   0.000000   0.000000
    5       20.828610     20.825594   0.000000   0.000000
    6       20.828610     20.825594   0.000000   0.000000
    7       22.296135     22.293605   0.000000   0.000000
    8       24.759329     24.756742   0.000000   0.000000
    9       29.889450     29.885298   0.000000   0.000000
   10       29.889450     29.885299   0.000000   0.000000
   11       36.444785     36.442512   0.000000   0.000000
   12       41.902781     41.900055   0.000000   0.000000
   13       41.902781     41.900055   0.000000   0.000000
   14       45.037600     45.034238   0.000000   0.000000
   15       46.436808     46.435039   0.000000   0.000000
   16       46.436808     46.435039   0.000000   0.000000
   17       48.329575     48.328160   0.000000   0.000000
   18       51.744233     51.744027   0.000000   0.000000
   19       56.253009     56.251775   0.000000   0.000000
   20       56.253009     56.251776   0.000000   0.000000
   21       56.379230     56.378133   0.000000   0.000000
   22       57.055028     57.053877   0.000000   0.000000
   23       61.344377     61.341274   0.000000   0.000000
   24       61.344377     61.341274   0.000000   0.000000
   25       63.739942     63.736556   0.000000   0.000000
   26       64.404953     64.403527   0.000000   0.000000
   27       64.404953     64.403527   0.000000   0.000000
   28       67.966387     67.961282   0.000000   0.000000
   29       69.671347     69.670216   0.000000   0.000000
   30       73.830605     73.829859   0.000000   0.000000
   31       73.830607     73.829861   0.000000   0.000000
   32       76.553971     76.552124   0.000000   0.000000
   33       76.966804     76.966494   0.000000   0.000000
   34       76.966804     76.966494   0.000000   0.000000
   35       78.218760     78.218010   0.000000   0.000000
   36       80.432994     80.431804   0.000000   0.000000
   37       80.432995     80.431806   0.000000   0.000000
   38       88.536906     88.532910   0.000000   0.000000
   39       89.118231     89.116007   0.000000   0.000000
   40       89.118238     89.116005   0.000000   0.000000
   41       90.465547     90.465496   0.000000   0.000000
   42       92.007781     92.005709   0.000000   0.000000
   43       92.007779     92.005711   0.000000   0.000000
   44       94.221117     94.220146   0.000000   0.000000
   45       98.960985     98.958962   0.000000   0.000000
   46       98.961025     98.958982   0.000000   0.000000
   47      102.336126    102.333176   0.000000   0.000000
   48      104.085413    104.084491   0.000000   0.000000

  0.4545455E+00  0.1248969E-14  0.1248969E-14  0.6010518E-02
    1        2.341599      2.339798   1.000000   1.000000
    2        4.707866      4.705944   1.000000   1.000000
    3       19.037119     19.034082   0.000000   0.000000
    4       19.037119     19.034082   0.000000   0.000000
    5       19.749338     19.746533   0.000000   0.000000
    6       19.749338     19.746534   0.000000   0.000000
    7       22.733615     22.731324   0.000000   0.000000
    8       23.570647     23.567868   0.000000   0.000000
    9       32.212893     32.207879   0.000000   0.000000
   10       32.212893     32.207880   0.000000   0.000000
   11       39.008323     39.005176   0.000000   0.000000
   12       39.226216     39.224735   0.000000   0.000000
   13       39.226216     39.224735   0.000000   0.000000
   14       45.811068     45.810726   0.000000   0.000000
   15       49.628455     49.624785   0.000000   0.000000
   16       50.320937     50.318512   0.000000   0.000000
   17       50.320937     50.318512   0.000000   0.000000
   18       54.191203     54.189850   0.000000   0.000000
   19       55.445224     55.443677   0.000000   0.000000
   20       55.445224     55.443677   0.000000   0.000000
   21       55.450438     55.450291   0.000000   0.000000
   22       57.645422     57.643881   0.000000   0.000000
   23       57.935326     57.932715   0.000000   0.000000
   24       57.935326     57.932715   0.000000   0.000000
   25       61.661232     61.658694   0.000000   0.000000
   26       63.621849     63.620595   0.000000   0.000000
   27       64.229446     64.228166   0.000000   0.000000
   28       64.229446     64.228166   0.000000   0.000000
   29       68.955395     68.949496   0.000000   0.000000
   30       73.599962     73.599265   0.000000   0.000000
   31       73.599962     73.599265   0.000000   0.000000
   32       75.528919     75.528352   0.000000   0.000000
   33       75.528919     75.528352   0.000000   0.000000
   34       76.328700     76.328755   0.000000   0.000000
   35       76.862758     76.860678   0.000000   0.000000
   36       80.534668     80.533960   0.000000   0.000000
   37       80.534668     80.533962   0.000000   0.000000
   38       88.587244     88.582986   0.000000   0.000000
   39       88.874751     88.872612   0.000000   0.000000
   40       88.874751     88.872613   0.000000   0.000000
   41       89.205438     89.205718   0.000000   0.000000
   42       94.192854     94.192269   0.000000   0.000000
   43       95.091946     95.089921   0.000000   0.000000
   44       95.091946     95.089921   0.000000   0.000000
   45      101.176099    101.174852   0.000000   0.000000
   46      101.176099    101.174853   0.000000   0.000000
   47      105.119027    105.116322   0.000000   0.000000
   48      105.119043    105.116326   0.000000   0.000000

  0.9090909E-01  0.9090909E-01  0.1262379E-14  0.4507889E-02
    1       -2.852904     -2.854735   1.000000   1.000000
    2       18.631765     18.629182   0.000000   0.000000
    3       18.631765     18.629182   0.000000   0.000000
    4       18.931524     18.930583   0.000000   0.000000
    5       21.328110     21.322840   0.000000   0.000000
    6       24.291763     24.288971   0.000000   0.000000
    7       24.336018     24.331666   0.000000   0.000000
    8       24.336018     24.331666   0.000000   0.000000
    9       26.582719     26.582501   0.000000   0.000000
   10       27.591049     27.587088   0.000000   0.000000
   11       30.594227     30.590814   0.000000   0.000000
   12       32.856649     32.855733   0.000000   0.000000
   13       32.856649     32.855733   0.000000   0.000000
   14       35.566619     35.564327   0.000000   0.000000
   15       42.373616     42.371246   0.000000   0.000000
   16       55.174817     55.173117   0.000000   0.000000
   17       55.174817     55.173117   0.000000   0.000000
   18       55.400494     55.400311   0.000000   0.000000
   19       56.508853     56.508134   0.000000   0.000000
   20       57.442535     57.440049   0.000000   0.000000
   21       57.442535     57.440049   0.000000   0.000000
   22       57.854487     57.852649   0.000000   0.000000
   23       59.406354     59.403454   0.000000   0.000000
   24       62.753250     62.752638   0.000000   0.000000
   25       67.469728     67.465981   0.000000   0.000000
   26       67.469728     67.465981   0.000000   0.000000
   27       70.389476     70.387780   0.000000   0.000000
   28       70.431450     70.428816   0.000000   0.000000
   29       73.430833     73.429790   0.000000   0.000000
   30       73.430833     73.429791   0.000000   0.000000
   31       80.619046     80.616679   0.000000   0.000000
   32       82.568160     82.565905   0.000000   0.000000
   33       82.682177     82.679464   0.000000   0.000000
   34       82.682177     82.679464   0.000000   0.000000
   35       83.403716     83.400353   0.000000   0.000000
   36       84.123841     84.122455   0.000000   0.000000
   37       88.738315     88.740606   0.000000   0.000000
   38       90.076641     90.074373   0.000000   0.000000
   39       90.076641     90.074374   0.000000   0.000000
   40       90.106970     90.104989   0.000000   0.000000
   41       90.106970     90.104990   0.000000   0.000000
   42       92.127126     92.124916   0.000000   0.000000
   43       93.128280     93.122817   0.000000   0.000000
   44       94.397384     94.393188   0.000000   0.000000
   45       94.791838     94.791460   0.000000   0.000000
   46       97.776410     97.775090   0.000000   0.000000
   47       97.801742     97.799999   0.000000   0.000000
   48       97.801824     97.800204   0.000000   0.000000

  0.1818182E+00  0.9090909E-01  0.1261396E-14  0.1803156E-01
    1       -2.332265     -2.334095   1.000000   1.000000
    2       15.296130     15.294160   0.000000   0.000000
    3       17.705655     17.703002   0.000000   0.000000
    4       19.046953     19.044905   0.000000   0.000000
    5       21.665358     21.660165   0.000000   0.000000
    6       22.280658     22.278613   0.000000   0.000000
    7       24.715148     24.711731   0.000000   0.000000
    8       25.735864     25.731117   0.000000   0.000000
    9       27.075714     27.072590   0.000000   0.000000
   10       29.500389     29.498525   0.000000   0.000000
   11       29.951593     29.949492   0.000000   0.000000
   12       34.729566     34.728129   0.000000   0.000000
   13       35.037373     35.035578   0.000000   0.000000
   14       37.875208     37.872455   0.000000   0.000000
   15       44.420864     44.418722   0.000000   0.000000
   16       51.716141     51.713845   0.000000   0.000000
   17       52.803201     52.801072   0.000000   0.000000
   18       55.398269     55.397518   0.000000   0.000000
   19       55.655155     55.654227   0.000000   0.000000
   20       56.165200     56.163889   0.000000   0.000000
   21       56.987122     56.985725   0.000000   0.000000
   22       57.963914     57.961550   0.000000   0.000000
   23       59.365670     59.363041   0.000000   0.000000
   24       62.305382     62.304368   0.000000   0.000000
   25       67.461656     67.459531   0.000000   0.000000
   26       68.411978     68.408359   0.000000   0.000000
   27       71.311492     71.308674   0.000000   0.000000
   28       72.533014     72.531624   0.000000   0.000000
   29       72.575701     72.574052   0.000000   0.000000
   30       74.908094     74.906372   0.000000   0.000000
   31       77.296488     77.293858   0.000000   0.000000
   32       78.425868     78.422412   0.000000   0.000000
   33       80.657543     80.654654   0.000000   0.000000
   34       81.700341     81.698339   0.000000   0.000000
   35       82.482512     82.480799   0.000000   0.000000
   36       84.086007     84.085367   0.000000   0.000000
   37       86.207503     86.205969   0.000000   0.000000
   38       86.270783     86.268712   0.000000   0.000000
   39       89.139366     89.138439   0.000000   0.000000
   40       89.254045     89.252910   0.000000   0.000000
   41       89.777931     89.776401   0.000000   0.000000
   42       91.350737     91.350110   0.000000   0.000000
   43       93.737640     93.735373   0.000000   0.000000
   44       94.414069     94.410683   0.000000   0.000000
   45       94.514140     94.512365   0.000000   0.000000
   46       96.173230     96.171906   0.000000   0.000000
   47       97.031475     97.031153   0.000000   0.000000
   48       97.613895     97.612026   0.000000   0.000000

  0.2727273E+00  0.9090909E-01  0.1266963E-14  0.1803156E-01
    1       -1.370417     -1.372246   1.000000   1.000000
    2       11.821514     11.819577   0.000000   0.000000
    3       17.149483     17.146797   0.000000   0.000000
    4       18.706818     18.704424   0.000000   0.000000
    5       20.015897     20.012801   0.000000   0.000000
    6       23.795640     23.791500   0.000000   0.000000
    7       24.649401     24.646755   0.000000   0.000000
    8       24.757387     24.753653   0.000000   0.000000
    9       28.254264     28.251788   0.000000   0.000000
   10       28.539639     28.535764   0.000000   0.000000
   11       33.055514     33.053748   0.000000   0.000000
   12       38.084325     38.082287   0.000000   0.000000
   13       39.026337     39.023931   0.000000   0.000000
   14       40.879866     40.876811   0.000000   0.000000
   15       47.131874     47.129878   0.000000   0.000000
   16       47.326555     47.324649   0.000000   0.000000
   17       49.079324     49.077205   0.000000   0.000000
   18       53.667025     53.666008   0.000000   0.000000
   19       55.533592     55.533036   0.000000   0.000000
   20       56.165885     56.164659   0.000000   0.000000
   21       57.116088     57.114603   0.000000   0.000000
   22       58.541817     58.539316   0.000000   0.000000
   23       58.609269     58.607382   0.000000   0.000000
   24       62.523575     62.522294   0.000000   0.000000
   25       65.011487     65.008814   0.000000   0.000000
   26       68.781252     68.777556   0.000000   0.000000
   27       68.845862     68.843114   0.000000   0.000000
   28       71.528604     71.527397   0.000000   0.000000
   29       72.014162     72.013200   0.000000   0.000000
   30       73.724313     73.721085   0.000000   0.000000
   31       76.996168     76.993457   0.000000   0.000000
   32       77.119598     77.119007   0.000000   0.000000
   33       78.608198     78.605772   0.000000   0.000000
   34       80.685871     80.684725   0.000000   0.000000
   35       81.014539     81.012647   0.000000   0.000000
   36       81.475935     81.474676   0.000000   0.000000
   37       82.624703     82.624005   0.000000   0.000000
   38       86.745606     86.743607   0.000000   0.000000
   39       86.791814     86.789335   0.000000   0.000000
   40       87.046450     87.045232   0.000000   0.000000
   41       91.007234     91.005579   0.000000   0.000000
   42       92.377971     92.377731   0.000000   0.000000
   43       92.601402     92.599268   0.000000   0.000000
   44       94.135634     94.132492   0.000000   0.000000
   45       94.481344     94.479640   0.000000   0.000000
   46       97.271990     97.271049   0.000000   0.000000
   47       99.723983     99.722874   0.000000   0.000000
   48      100.796623    100.796143   0.000000   0.000000

  0.3636364E+00  0.9090909E-01  0.1237502E-14  0.1803156E-01
    1        0.023877      0.022050   1.000000   1.000000
    2        8.620893      8.618983   0.196707   0.197549
    3       16.970272     16.967554   0.000000   0.000000
    4       18.366363     18.364431   0.000000   0.000000
    5       18.618178     18.614684   0.000000   0.000000
    6       23.298482     23.295124   0.000000   0.000000
    7       24.394184     24.390501   0.000000   0.000000
    8       26.045847     26.043232   0.000000   0.000000
    9       27.216315     27.213360   0.000000   0.000000
   10       30.850513     30.846070   0.000000   0.000000
   11       36.280063     36.277809   0.000000   0.000000
   12       40.871642     40.869102   0.000000   0.000000
   13       43.232377     43.229159   0.000000   0.000000
   14       43.714521     43.711263   0.000000   0.000000
   15       44.217596     44.216233   0.000000   0.000000
   16       46.384328     46.382933   0.000000   0.000000
   17       49.783459     49.781541   0.000000   0.000000
   18       52.263942     52.263483   0.000000   0.000000
   19       55.623977     55.623312   0.000000   0.000000
   20       56.235268     56.234084   0.000000   0.000000
   21       56.660892     56.659216   0.000000   0.000000
   22       57.588641     57.587381   0.000000   0.000000
   23       59.153246     59.150477   0.000000   0.000000
   24       61.723863     61.720800   0.000000   0.000000
   25       63.219013     63.217693   0.000000   0.000000
   26       64.912837     64.909538   0.000000   0.000000
   27       66.454970     66.451895   0.000000   0.000000
   28       70.425718     70.425174   0.000000   0.000000
   29       70.479898     70.478938   0.000000   0.000000
   30       71.357612     71.353940   0.000000   0.000000
   31       72.602747     72.601461   0.000000   0.000000
   32       76.124275     76.123737   0.000000   0.000000
   33       77.155643     77.154733   0.000000   0.000000
   34       78.169164     78.168292   0.000000   0.000000
   35       80.578318     80.577143   0.000000   0.000000
   36       81.537693     81.536240   0.000000   0.000000
   37       83.329312     83.325979   0.000000   0.000000
   38       84.616100     84.615479   0.000000   0.000000
   39       87.280867     87.279064   0.000000   0.000000
   40       88.615234     88.612897   0.000000   0.000000
   41       92.516242     92.515666   0.000000   0.000000
   42       93.583743     93.581165   0.000000   0.000000
   43       93.723913     93.722041   0.000000   0.000000
   44       94.459629     94.457880   0.000000   0.000000
   45       96.180480     96.177744   0.000000   0.000000
   46       98.321900     98.319976   0.000000   0.000000
   47      101.133078    101.132758   0.000000   0.000000
   48      103.246467    103.246072   0.000000   0.000000

  0.4545455E+00  0.9090909E-01  0.1249509E-14  0.1803156E-01
    1        1.837900      1.836084   1.000000   1.000000
    2        5.764440      5.762536   1.045090   1.044837
    3       17.143090     17.140549   0.000000   0.000000
    4       17.170558     17.167792   0.000000   0.000000
    5       18.834013     18.831153   0.000000   0.000000
    6       22.121333     22.118168   0.000000   0.000000
    7       24.644858     24.640612   0.000000   0.000000
    8       25.336042     25.334618   0.000000   0.000000
    9       29.467755     29.463782   0.000000   0.000000
   10       32.730312     32.724992   0.000000   0.000000
   11       39.107026     39.104076   0.000000   0.000000
   12       39.153400     39.152167   0.000000   0.000000
   13       40.666506     40.664316   0.000000   0.000000
   14       47.122060     47.120079   0.000000   0.000000
   15       47.442613     47.440488   0.000000   0.000000
   16       48.740684     48.738108   0.000000   0.000000
   17       49.814224     49.812120   0.000000   0.000000
   18       54.202309     54.200884   0.000000   0.000000
   19       55.054754     55.053997   0.000000   0.000000
   20       55.658583     55.657371   0.000000   0.000000
   21       56.194712     56.193572   0.000000   0.000000
   22       56.809710     56.808626   0.000000   0.000000