       N       E                     dE             d eps       ncg     rms          rms(c)
DAV:   1     0.359121739141E+03    0.35912E+03   -0.33796E+04 11520   0.209E+03
DAV:   2    -0.490873114620E+02   -0.40821E+03   -0.40788E+03 17376   0.230E+02
DAV:   3    -0.570362958564E+02   -0.79490E+01   -0.79409E+01 11616   0.501E+01
DAV:   4    -0.573238330941E+02   -0.28754E+00   -0.28723E+00 22752   0.852E+00
DAV:   5    -0.573266917941E+02   -0.28587E-02   -0.28406E-02 11712   0.375E-01    0.357E+01
RMM:   6    -0.616132119195E+02   -0.42865E+01   -0.24895E+02 18239   0.983E+01    0.122E+02
RMM:   7    -0.607646258105E+02    0.84859E+00   -0.45848E+01 20042   0.302E+01    0.680E+01
RMM:   8    -0.505211839389E+02    0.10243E+02   -0.29757E+01 16088   0.317E+01    0.249E+01
RMM:   9    -0.498093083335E+02    0.71188E+00   -0.86858E+00 18215   0.128E+01    0.982E+00
RMM:  10    -0.502314302330E+02   -0.42212E+00   -0.56555E+00 18129   0.102E+01    0.477E+00
RMM:  11    -0.504835940069E+02   -0.25216E+00   -0.10706E+00 20060   0.422E+00    0.400E+00
RMM:  12    -0.506312185788E+02   -0.14762E+00   -0.39093E-01 20446   0.282E+00    0.269E+00
RMM:  13    -0.506611287019E+02   -0.29910E-01   -0.13927E-01 20558   0.152E+00    0.186E+00
RMM:  14    -0.506655160346E+02   -0.43873E-02   -0.77940E-02 19510   0.941E-01    0.102E+00
RMM:  15    -0.506685222630E+02   -0.30062E-02   -0.27970E-02 18454   0.722E-01    0.702E-01
RMM:  16    -0.506706445585E+02   -0.21223E-02   -0.19227E-02 16281   0.466E-01    0.491E-01
RMM:  17    -0.506718158057E+02   -0.11712E-02   -0.86448E-03 15796   0.401E-01    0.250E-01
RMM:  18    -0.506724758924E+02   -0.66009E-03   -0.80857E-03 14816   0.349E-01    0.141E-01
RMM:  19    -0.506729380722E+02   -0.46218E-03   -0.52821E-03 14164   0.282E-01    0.978E-02
RMM:  20    -0.506733512932E+02   -0.41322E-03   -0.45651E-03 13817   0.243E-01    0.854E-02
RMM:  21    -0.506736019775E+02   -0.25068E-03   -0.29927E-03 13439   0.211E-01
   1 F= -.50673602E+02 E0= -.50673602E+02  d E =0.000000E+00  mag=     2.0496
