 vasp.6.2.1 16May21 (build Aug 15 2022 14:47:30) complex                         
 executed on             LinuxGNU date 2025.12.04  19:33:01
 running on   48 total cores
 distrk:  each k-point on   48 cores,    1 groups
 distr:  one band on NCORE=   1 cores,   48 groups


--------------------------------------------------------------------------------------------------------


 INCAR:
   ALGO = Fast
   EDIFF = 0.00035
   ENCUT = 520.0
   ISMEAR = -5
   ISPIN = 2
   LASPH = True
   LCHARG = True
   LDAU = True
   LDAUJ = 0 0 0
   LDAUL = 0 2 0
   LDAUPRINT = 1
   LDAUTYPE = 2
   LDAUU = 0 6.2 0
   LMAXMIX = 6
   LORBIT = 11
   LREAL = False
   LWAVE = False
   MAGMOM = 2*0.6 1*5.0 4*0.6
   NELM = 100
   NSW = 0
   PREC = Accurate
   SIGMA = 0.05

 POTCAR:    PAW_PBE La 06Sep2000                  
 POTCAR:    PAW_PBE Ni_pv 06Sep2000               
 POTCAR:    PAW_PBE O 08Apr2002                   
 -----------------------------------------------------------------------------
|                                                                             |
|           W    W    AA    RRRRR   N    N  II  N    N   GGGG   !!!           |
|           W    W   A  A   R    R  NN   N  II  NN   N  G    G  !!!           |
|           W    W  A    A  R    R  N N  N  II  N N  N  G       !!!           |
|           W WW W  AAAAAA  RRRRR   N  N N  II  N  N N  G  GGG   !            |
|           WW  WW  A    A  R   R   N   NN  II  N   NN  G    G                |
|           W    W  A    A  R    R  N    N  II  N    N   GGGG   !!!           |
|                                                                             |
|     For optimal performance we recommend to set                             |
|       NCORE = 2 up to number-of-cores-per-socket                            |
|     NCORE specifies how many cores store one orbital (NPAR=cpu/NCORE).      |
|     This setting can greatly improve the performance of VASP for DFT.       |
|     The default, NCORE=1 might be grossly inefficient on modern             |
|     multi-core architectures or massively parallel machines. Do your        |
|     own testing! More info at https://www.vasp.at/wiki/index.php/NCORE      |
|     Unfortunately you need to use the default for GW and RPA                |
|     calculations (for HF NCORE is supported but not extensively tested      |
|     yet).                                                                   |
|                                                                             |
 -----------------------------------------------------------------------------

 POTCAR:    PAW_PBE La 06Sep2000                  
   VRHFIN =La : [core=Kr4d]                                                                         
   LEXCH  = PE                                                                                      
   EATOM  =   865.9763 eV,   63.6475 Ry                                                             
                                                                                                    
   TITEL  = PAW_PBE La 06Sep2000                                                                    
   LULTRA =        F    use ultrasoft PP ?                                                          
   IUNSCR =        1    unscreen: 0-lin 1-nonlin 2-no                                               
   RPACOR =    2.300    partial core radius                                                         
   POMASS =  138.900; ZVAL   =   11.000    mass and valenz                                          
   RCORE  =    2.800    outmost cutoff radius                                                       
   RWIGS  =    2.900; RWIGS  =    1.535    wigner-seitz radius (au A)                               
   ENMAX  =  219.292; ENMIN  =  164.469 eV                                                          
   RCLOC  =    1.601    cutoff for local pot                                                        
   LCOR   =        T    correct aug charges                                                         
   LPAW   =        T    paw PP                                                                      
   EAUG   =  583.575                                                                                
   DEXC   =    0.000                                                                                
   RMAX   =    2.853    core radius for proj-oper                                                   
   RAUG   =    1.300    factor for augmentation sphere                                              
   RDEP   =    2.802    radius for radial grids                                                     
   RDEPT  =    2.156    core radius for aug-charge                                                  
                                                                                                    
   Atomic configuration                                                                             
   14 entries                                                                                       
     n  l   j            E        occ.                                                              
     1  0  0.50    -38741.0879   2.0000                                                             
     2  0  0.50     -6166.6801   2.0000                                                             
     2  1  1.50     -5526.1593   6.0000                                                             
     3  0  0.50     -1319.0200   2.0000                                                             
     3  1  1.50     -1114.5963   6.0000                                                             
     3  2  2.50      -821.1793  10.0000                                                             
     4  0  0.50      -266.3851   2.0000                                                             
     4  1  1.50      -199.9276   6.0000                                                             
     4  2  2.50      -103.8239  10.0000                                                             
     5  0  0.50       -38.9172   2.0000                                                             
     6  0  0.50        -3.6792   2.0000                                                             
     5  1  1.50       -22.3948   6.0000                                                             
     5  2  2.50        -3.0911   0.9999                                                             
     4  3  2.50        -4.3603   0.0001                                                             
   Description                                                                                      
     l       E           TYP  RCUT    TYP  RCUT                                                     
     0    -38.9171645     23  2.800                                                                 
     0     -3.6792381     23  2.800                                                                 
     1    -22.3948300     23  2.500                                                                 
     1     27.2116520     23  2.500                                                                 
     2     -3.0910934     23  2.500                                                                 
     2      1.0119135     23  2.500                                                                 
     3     -4.3602911     23  2.800                                                                 
     3     -5.7208737     23  2.800                                                                 
  local pseudopotential read in
  partial core-charges read in
  partial kinetic energy density read in
  atomic valenz-charges read in
  non local Contribution for L=           0  read in
    real space projection operators read in
  non local Contribution for L=           0  read in
    real space projection operators read in
  non local Contribution for L=           1  read in
    real space projection operators read in
  non local Contribution for L=           1  read in
    real space projection operators read in
  non local Contribution for L=           2  read in
    real space projection operators read in
  non local Contribution for L=           2  read in
    real space projection operators read in
  non local Contribution for L=           3  read in
    real space projection operators read in
  non local Contribution for L=           3  read in
    real space projection operators read in
    PAW grid and wavefunctions read in

   number of l-projection  operators is LMAX  =           8
   number of lm-projection operators is LMMAX =          32

 POTCAR:    PAW_PBE Ni_pv 06Sep2000               
   VRHFIN =Ni:                                                                                      
   LEXCH  = PE                                                                                      
   EATOM  =  3501.1230 eV,  257.3253 Ry                                                             
                                                                                                    
   TITEL  = PAW_PBE Ni_pv 06Sep2000                                                                 
   LULTRA =        F    use ultrasoft PP ?                                                          
   IUNSCR =        1    unscreen: 0-lin 1-nonlin 2-no                                               
   RPACOR =    1.500    partial core radius                                                         
   POMASS =   58.690; ZVAL   =   16.000    mass and valenz                                          
   RCORE  =    2.000    outmost cutoff radius                                                       
   RWIGS  =    2.000; RWIGS  =    1.058    wigner-seitz radius (au A)                               
   ENMAX  =  367.986; ENMIN  =  275.989 eV                                                          
   RCLOC  =    1.301    cutoff for local pot                                                        
   LCOR   =        T    correct aug charges                                                         
   LPAW   =        T    paw PP                                                                      
   EAUG   =  703.443                                                                                
   DEXC   =    0.000                                                                                
   RMAX   =    2.041    core radius for proj-oper                                                   
   RAUG   =    1.300    factor for augmentation sphere                                              
   RDEP   =    2.103    radius for radial grids                                                     
   RDEPT  =    1.618    core radius for aug-charge                                                  
                                                                                                    
   Atomic configuration                                                                             
    8 entries                                                                                       
     n  l   j            E        occ.                                                              
     1  0  0.50     -8206.4253   2.0000                                                             
     2  0  0.50      -976.1748   2.0000                                                             
     2  1  1.50      -839.0571   6.0000                                                             
     3  0  0.50      -105.9991   2.0000                                                             
     3  1  1.50       -66.4603   6.0000                                                             
     3  2  2.50        -4.6458   9.0000                                                             
     4  0  0.50        -4.4926   1.0000                                                             
     4  3  2.50        -1.3606   0.0000                                                             
   Description                                                                                      
     l       E           TYP  RCUT    TYP  RCUT                                                     
     1    -66.4602962     23  1.700                                                                 
     1     -1.3605826     23  1.700                                                                 
     2     -4.6457867     23  2.000                                                                 
     2     -6.0063693     23  2.000                                                                 
     0     -4.4925576     23  1.900                                                                 
     0     16.3626226     23  1.900                                                                 
  local pseudopotential read in
  partial core-charges read in
  partial kinetic energy density read in
  atomic valenz-charges read in
  non local Contribution for L=           1  read in
    real space projection operators read in
  non local Contribution for L=           1  read in
    real space projection operators read in
  non local Contribution for L=           2  read in
    real space projection operators read in
  non local Contribution for L=           2  read in
    real space projection operators read in
  non local Contribution for L=           0  read in
    real space projection operators read in
  non local Contribution for L=           0  read in
    real space projection operators read in
    PAW grid and wavefunctions read in

   number of l-projection  operators is LMAX  =           6
   number of lm-projection operators is LMMAX =          18

 POTCAR:    PAW_PBE O 08Apr2002                   
   VRHFIN =O: s2p4                                                                                  
   LEXCH  = PE                                                                                      
   EATOM  =   432.3788 eV,   31.7789 Ry                                                             
                                                                                                    
   TITEL  = PAW_PBE O 08Apr2002                                                                     
   LULTRA =        F    use ultrasoft PP ?                                                          
   IUNSCR =        1    unscreen: 0-lin 1-nonlin 2-no                                               
   RPACOR =    1.200    partial core radius                                                         
   POMASS =   16.000; ZVAL   =    6.000    mass and valenz                                          
   RCORE  =    1.520    outmost cutoff radius                                                       
   RWIGS  =    1.550; RWIGS  =    0.820    wigner-seitz radius (au A)                               
   ENMAX  =  400.000; ENMIN  =  300.000 eV                                                          
   ICORE  =        2    local potential                                                             
   LCOR   =        T    correct aug charges                                                         
   LPAW   =        T    paw PP                                                                      
   EAUG   =  605.392                                                                                
   DEXC   =    0.000                                                                                
   RMAX   =    1.553    core radius for proj-oper                                                   
   RAUG   =    1.300    factor for augmentation sphere                                              
   RDEP   =    1.550    radius for radial grids                                                     
   RDEPT  =    1.329    core radius for aug-charge                                                  
                                                                                                    
   Atomic configuration                                                                             
    4 entries                                                                                       
     n  l   j            E        occ.                                                              
     1  0  0.50      -514.6923   2.0000                                                             
     2  0  0.50       -23.9615   2.0000                                                             
     2  1  0.50        -9.0305   4.0000                                                             
     3  2  1.50        -9.5241   0.0000                                                             
   Description                                                                                      
     l       E           TYP  RCUT    TYP  RCUT                                                     
     0    -23.9615318     23  1.200                                                                 
     0     -9.5240782     23  1.200                                                                 
     1     -9.0304911     23  1.520                                                                 
     1      8.1634956     23  1.520                                                                 
     2     -9.5240782      7  1.500                                                                 
  local pseudopotential read in
  partial core-charges read in
  partial kinetic energy density read in
  kinetic energy density of atom read in
  atomic valenz-charges read in
  non local Contribution for L=           0  read in
    real space projection operators read in
  non local Contribution for L=           0  read in
    real space projection operators read in
  non local Contribution for L=           1  read in
    real space projection operators read in
  non local Contribution for L=           1  read in
    real space projection operators read in
    PAW grid and wavefunctions read in

   number of l-projection  operators is LMAX  =           4
   number of lm-projection operators is LMMAX =           8

  PAW_PBE La 06Sep2000                  :
 energy of atom  1       EATOM= -865.9763
 kinetic energy error for atom=    0.0009 (will be added to EATOM!!)
  PAW_PBE Ni_pv 06Sep2000               :
 energy of atom  2       EATOM=-3501.1230
 kinetic energy error for atom=    0.0575 (will be added to EATOM!!)
  PAW_PBE O 08Apr2002                   :
 energy of atom  3       EATOM= -432.3788
 kinetic energy error for atom=    0.0208 (will be added to EATOM!!)


 POSCAR: # Generated by Masgent for EOS calculati
  positions in direct lattice
  No initial velocities read in
 exchange correlation table for  LEXCH =        8
   RHO(1)=    0.500       N(1)  =     2000
   RHO(2)=  100.500       N(2)  =     4000

 VTST: version 4.2, (08/11/21)

 CHAIN: initializing optimizer
 
 OPT: Using VASP Dynamics algorithm
 CHAIN: Read ICHAIN            0

 POSCAR: # Generated by Masgent for EOS calculati
  positions in direct lattice
  No initial velocities read in



--------------------------------------------------------------------------------------------------------


 ion  position               nearest neighbor table
   1  0.363  0.363  0.727-   4 2.31   6 2.60   7 2.60   6 2.60   7 2.60   5 2.83   5 2.83   5 2.83
                             5 2.83   2 3.42
   2  0.637  0.637  0.273-   5 2.31   6 2.60   7 2.60   6 2.60   7 2.60   4 2.83   4 2.83   4 2.83
                             4 2.83   1 3.42
   3  0.000  0.000  0.000-   6 1.96   7 1.96   7 1.96   6 1.96   4 2.24   5 2.24
   4  0.179  0.179  0.358-   3 2.24   1 2.31   2 2.83   2 2.83   2 2.83   2 2.83
   5  0.821  0.821  0.642-   3 2.24   2 2.31   1 2.83   1 2.83   1 2.83   1 2.83
   6  0.500  0.000  0.000-   3 1.96   3 1.96   1 2.60   2 2.60   1 2.60   2 2.60
   7  0.000  0.500  0.000-   3 1.96   3 1.96   1 2.60   2 2.60   2 2.60   1 2.60

  LATTYP: Found a body centered tetragonal cell.
 ALAT       =     3.9240900000
 C/A-ratio  =     3.1906429261
  
  Lattice vectors:
  
 A1 = (   1.9620450000,  -1.9620450000,  -6.2601850000)
 A2 = (  -1.9620450000,   1.9620450000,  -6.2601850000)
 A3 = (   1.9620450000,   1.9620450000,   6.2601850000)


Analysis of symmetry for initial positions (statically):
=====================================================================
 Subroutine PRICEL returns:
 Original cell was already a primitive cell.
 

 Routine SETGRP: Setting up the symmetry group for a 
 body centered tetragonal supercell.


 Subroutine GETGRP returns: Found 16 space group operations
 (whereof 16 operations were pure point group operations)
 out of a pool of 16 trial point group operations.


The static configuration has the point symmetry D_4h.


Analysis of symmetry for dynamics (positions and initial velocities):
=====================================================================
 Subroutine PRICEL returns:
 Original cell was already a primitive cell.
 

 Routine SETGRP: Setting up the symmetry group for a 
 body centered tetragonal supercell.


 Subroutine GETGRP returns: Found 16 space group operations
 (whereof 16 operations were pure point group operations)
 out of a pool of 16 trial point group operations.


The dynamic configuration has the point symmetry D_4h.


Analysis of structural, dynamic, and magnetic symmetry:
=====================================================================
 Subroutine PRICEL returns:
 Original cell was already a primitive cell.
 

 Routine SETGRP: Setting up the symmetry group for a 
 body centered tetragonal supercell.


 Subroutine GETGRP returns: Found 16 space group operations
 (whereof 16 operations were pure point group operations)
 out of a pool of 16 trial point group operations.


The overall configuration has the point symmetry D_4h.


 Subroutine INISYM returns: Found 16 space group operations
 (whereof 16 operations are pure point group operations),
 and found     1 'primitive' translations


----------------------------------------------------------------------------------------

                                     Primitive cell                                     

  volume of cell :      96.3973

  direct lattice vectors                    reciprocal lattice vectors
     3.924090000  0.000000000  0.000000000     0.254836153 -0.000000000  0.079869844
     0.000000000  3.924090000  0.000000000    -0.000000000  0.254836153  0.079869844
    -1.962045000 -1.962045000  6.260185000     0.000000000  0.000000000  0.159739688

  length of vectors
     3.924090000  3.924090000  6.847565801     0.267059276  0.267059276  0.159739688

  position of ions in fractional coordinates (direct lattice)
     0.363473000  0.363473000  0.726946000
     0.636527000  0.636527000  0.273054000
     0.000000000  0.000000000  0.000000000
     0.178993000  0.178993000  0.357986000
     0.821007000  0.821007000  0.642014000
     0.500000000  0.000000000  0.000000000
     0.000000000  0.500000000  0.000000000

  ion indices of the primitive-cell ions
   primitive index   ion index
                 1           1
                 2           2
                 3           3
                 4           4
                 5           5
                 6           6
                 7           7

----------------------------------------------------------------------------------------



 KPOINTS: # Generated by Masgent for EOS calculati

Automatic generation of k-mesh.
 Grid dimensions read from file:
 generate k-points for:    7    7    4

 Generating k-lattice:

  Cartesian coordinates                     Fractional coordinates (reciprocal lattice)
     0.036405165 -0.000000000  0.011409978     0.142857143  0.000000000  0.000000000
    -0.000000000  0.036405165  0.011409978     0.000000000  0.142857143  0.000000000
     0.000000000  0.000000000  0.039934922     0.000000000  0.000000000  0.250000000

  Length of vectors
     0.038151325  0.038151325  0.039934922

  Shift w.r.t. Gamma in fractional coordinates (k-lattice)
     0.000000000  0.000000000  0.000000000

 -----------------------------------------------------------------------------
|                                                                             |
|           W    W    AA    RRRRR   N    N  II  N    N   GGGG   !!!           |
|           W    W   A  A   R    R  NN   N  II  NN   N  G    G  !!!           |
|           W    W  A    A  R    R  N N  N  II  N N  N  G       !!!           |
|           W WW W  AAAAAA  RRRRR   N  N N  II  N  N N  G  GGG   !            |
|           WW  WW  A    A  R   R   N   NN  II  N   NN  G    G                |
|           W    W  A    A  R    R  N    N  II  N    N   GGGG   !!!           |
|                                                                             |
|     Your reciprocal lattice and k-lattice belong to different lattice       |
|     classes:                                                                |
|                                                                             |
|        The reciprocal lattice is body-centered tetragonal,                  |
|        whereas your k-lattice is base-centered monoclinic.                  |
|                                                                             |
|     Results are often still useful ...                                      |
|                                                                             |
 -----------------------------------------------------------------------------

 WARNING: IBZKPT: internal override: KBLOWUP is changed to .FALSE.
      ... skipping the blow-up phase ...

 TETIRR: Found    294 inequivalent tetrahedra from     1176
 
 Subroutine IBZKPT returns following result:
 ===========================================
 
 Found     60 irreducible k-points:
 
 Following reciprocal coordinates:
            Coordinates               Weight
  0.000000  0.000000  0.000000      1.000000
  0.142857  0.000000  0.000000      4.000000
  0.285714  0.000000  0.000000      4.000000
  0.428571  0.000000  0.000000      4.000000
  0.142857  0.142857  0.000000      2.000000
  0.285714  0.142857  0.000000      4.000000
  0.428571  0.142857  0.000000      4.000000
 -0.428571  0.142857  0.000000      4.000000
 -0.285714  0.142857  0.000000      4.000000
 -0.142857  0.142857  0.000000      2.000000
  0.285714  0.285714  0.000000      2.000000
  0.428571  0.285714  0.000000      4.000000
 -0.428571  0.285714  0.000000      4.000000
 -0.285714  0.285714  0.000000      2.000000
  0.428571  0.428571  0.000000      2.000000
 -0.428571  0.428571  0.000000      2.000000
  0.000000  0.000000  0.250000      2.000000
  0.142857  0.000000  0.250000      4.000000
  0.285714  0.000000  0.250000      4.000000
  0.428571  0.000000  0.250000      4.000000
 -0.428571  0.000000  0.250000      4.000000
 -0.285714  0.000000  0.250000      4.000000
 -0.142857  0.000000  0.250000      4.000000
  0.142857  0.142857  0.250000      2.000000
  0.285714  0.142857  0.250000      4.000000
  0.428571  0.142857  0.250000      4.000000
 -0.428571  0.142857  0.250000      4.000000
 -0.285714  0.142857  0.250000      4.000000
 -0.142857  0.142857  0.250000      4.000000
  0.285714  0.285714  0.250000      2.000000
  0.428571  0.285714  0.250000      4.000000
 -0.428571  0.285714  0.250000      4.000000
 -0.285714  0.285714  0.250000      4.000000
 -0.142857  0.285714  0.250000      4.000000
  0.428571  0.428571  0.250000      2.000000
 -0.428571  0.428571  0.250000      4.000000
 -0.285714  0.428571  0.250000      4.000000
 -0.142857  0.428571  0.250000      4.000000
 -0.428571 -0.428571  0.250000      2.000000
 -0.285714 -0.428571  0.250000      4.000000
 -0.142857 -0.428571  0.250000      4.000000
 -0.285714 -0.285714  0.250000      2.000000
 -0.142857 -0.285714  0.250000      4.000000
 -0.142857 -0.142857  0.250000      2.000000
  0.000000  0.000000  0.500000      1.000000
  0.142857  0.000000  0.500000      4.000000
  0.285714  0.000000  0.500000      4.000000
  0.428571  0.000000  0.500000      4.000000
  0.142857  0.142857  0.500000      2.000000
  0.285714  0.142857  0.500000      4.000000
  0.428571  0.142857  0.500000      4.000000
 -0.428571  0.142857  0.500000      4.000000
 -0.285714  0.142857  0.500000      4.000000
 -0.142857  0.142857  0.500000      2.000000
  0.285714  0.285714  0.500000      2.000000
  0.428571  0.285714  0.500000      4.000000
 -0.428571  0.285714  0.500000      4.000000
 -0.285714  0.285714  0.500000      2.000000
  0.428571  0.428571  0.500000      2.000000
 -0.428571  0.428571  0.500000      2.000000
 
 Following cartesian coordinates:
            Coordinates               Weight
  0.000000  0.000000  0.000000      1.000000
  0.036405  0.000000  0.011410      4.000000
  0.072810  0.000000  0.022820      4.000000
  0.109215  0.000000  0.034230      4.000000
  0.036405  0.036405  0.022820      2.000000
  0.072810  0.036405  0.034230      4.000000
  0.109215  0.036405  0.045640      4.000000
 -0.109215  0.036405 -0.022820      4.000000
 -0.072810  0.036405 -0.011410      4.000000
 -0.036405  0.036405  0.000000      2.000000
  0.072810  0.072810  0.045640      2.000000
  0.109215  0.072810  0.057050      4.000000
 -0.109215  0.072810 -0.011410      4.000000
 -0.072810  0.072810  0.000000      2.000000
  0.109215  0.109215  0.068460      2.000000
 -0.109215  0.109215  0.000000      2.000000
  0.000000  0.000000  0.039935      2.000000
  0.036405  0.000000  0.051345      4.000000
  0.072810  0.000000  0.062755      4.000000
  0.109215  0.000000  0.074165      4.000000
 -0.109215  0.000000  0.005705      4.000000
 -0.072810  0.000000  0.017115      4.000000
 -0.036405  0.000000  0.028525      4.000000
  0.036405  0.036405  0.062755      2.000000
  0.072810  0.036405  0.074165      4.000000
  0.109215  0.036405  0.085575      4.000000
 -0.109215  0.036405  0.017115      4.000000
 -0.072810  0.036405  0.028525      4.000000
 -0.036405  0.036405  0.039935      4.000000
  0.072810  0.072810  0.085575      2.000000
  0.109215  0.072810  0.096985      4.000000
 -0.109215  0.072810  0.028525      4.000000
 -0.072810  0.072810  0.039935      4.000000
 -0.036405  0.072810  0.051345      4.000000
  0.109215  0.109215  0.108395      2.000000
 -0.109215  0.109215  0.039935      4.000000
 -0.072810  0.109215  0.051345      4.000000
 -0.036405  0.109215  0.062755      4.000000
 -0.109215 -0.109215 -0.028525      2.000000
 -0.072810 -0.109215 -0.017115      4.000000
 -0.036405 -0.109215 -0.005705      4.000000
 -0.072810 -0.072810 -0.005705      2.000000
 -0.036405 -0.072810  0.005705      4.000000
 -0.036405 -0.036405  0.017115      2.000000
  0.000000  0.000000  0.079870      1.000000
  0.036405  0.000000  0.091280      4.000000
  0.072810  0.000000  0.102690      4.000000
  0.109215  0.000000  0.114100      4.000000
  0.036405  0.036405  0.102690      2.000000
  0.072810  0.036405  0.114100      4.000000
  0.109215  0.036405  0.125510      4.000000
 -0.109215  0.036405  0.057050      4.000000
 -0.072810  0.036405  0.068460      4.000000
 -0.036405  0.036405  0.079870      2.000000
  0.072810  0.072810  0.125510      2.000000
  0.109215  0.072810  0.136920      4.000000
 -0.109215  0.072810  0.068460      4.000000
 -0.072810  0.072810  0.079870      2.000000
  0.109215  0.109215  0.148330      2.000000
 -0.109215  0.109215  0.079870      2.000000
 


--------------------------------------------------------------------------------------------------------




 Dimension of arrays:
   k-points           NKPTS =     60   k-points in BZ     NKDIM =     60   number of bands    NBANDS=     48
   number of dos      NEDOS =    301   number of ions     NIONS =      7
   non local maximal  LDIM  =      8   non local SUM 2l+1 LMDIM =     32
   total plane-waves  NPLWV =  48600
   max r-space proj   IRMAX =      1   max aug-charges    IRDMAX=  26541
   dimension x,y,z NGX =    30 NGY =   30 NGZ =   54
   dimension x,y,z NGXF=    60 NGYF=   60 NGZF=  108
   support grid    NGXF=    60 NGYF=   60 NGZF=  108
   ions per type =               2   1   4
   NGX,Y,Z   is equivalent  to a cutoff of  12.71, 12.71, 13.11 a.u.
   NGXF,Y,Z  is equivalent  to a cutoff of  25.42, 25.42, 26.22 a.u.

 SYSTEM =  unknown system                          
 POSCAR =  # Generated by Masgent for EOS calculati

 Startparameter for this run:
   NWRITE =      2    write-flag & timer
   PREC   = accura    normal or accurate (medium, high low for compatibility)
   ISTART =      0    job   : 0-new  1-cont  2-samecut
   ICHARG =      2    charge: 1-file 2-atom 10-const
   ISPIN  =      2    spin polarized calculation?
   LNONCOLLINEAR =      F non collinear calculations
   LSORBIT =      F    spin-orbit coupling
   INIWAV =      1    electr: 0-lowe 1-rand  2-diag
   LASPH  =      T    aspherical Exc in radial PAW
 Electronic Relaxation 1
   ENCUT  =  520.0 eV  38.22 Ry    6.18 a.u.   7.30  7.30 12.73*2*pi/ulx,y,z
   ENINI  =  520.0     initial cutoff
   ENAUG  =  703.4 eV  augmentation charge cutoff
   NELM   =    100;   NELMIN=  2; NELMDL= -5     # of ELM steps 
   EDIFF  = 0.3E-03   stopping-criterion for ELM
   LREAL  =      F    real-space projection
   NLSPLINE    = F    spline interpolate recip. space projectors
   LCOMPAT=      F    compatible to vasp.4.4
   GGA_COMPAT  = T    GGA compatible to vasp.4.4-vasp.4.6
   LMAXPAW     = -100 max onsite density
   LMAXMIX     =    6 max onsite mixed and CHGCAR
   VOSKOWN=      0    Vosko Wilk Nusair interpolation
   ROPT   =    0.00000   0.00000   0.00000
 Ionic relaxation
   EDIFFG = 0.4E-02   stopping-criterion for IOM
   NSW    =      0    number of steps for IOM
   NBLOCK =      1;   KBLOCK =      1    inner block; outer block 
   IBRION =     -1    ionic relax: 0-MD 1-quasi-New 2-CG
   NFREE  =      0    steps in history (QN), initial steepest desc. (CG)
   ISIF   =      2    stress and relaxation
   IWAVPR =     10    prediction:  0-non 1-charg 2-wave 3-comb
   ISYM   =      2    0-nonsym 1-usesym 2-fastsym
   LCORR  =      T    Harris-Foulkes like correction to forces

   POTIM  = 0.5000    time-step for ionic-motion
   TEIN   =    0.0    initial temperature
   TEBEG  =    0.0;   TEEND  =   0.0 temperature during run
   SMASS  =  -3.00    Nose mass-parameter (am)
   estimated Nose-frequenzy (Omega)   =  0.10E-29 period in steps = 0.13E+47 mass=  -0.352E-27a.u.
   SCALEE = 1.0000    scale energy and forces
   NPACO  =    256;   APACO  = 16.0  distance and # of slots for P.C.
   PSTRESS=    0.0 pullay stress

  Mass of Ions in am
   POMASS = 138.90 58.69 16.00
  Ionic Valenz
   ZVAL   =  11.00 16.00  6.00
  Atomic Wigner-Seitz radii
   RWIGS  =  -1.00 -1.00 -1.00
  virtual crystal weights 
   VCA    =   1.00  1.00  1.00
   NELECT =      62.0000    total number of electrons
   NUPDOWN=      -1.0000    fix difference up-down

 DOS related values:
   EMIN   =  10.00;   EMAX   =-10.00  energy-range for DOS
   EFERMI =   0.00
   ISMEAR =    -5;   SIGMA  =   0.05  broadening in eV -4-tet -1-fermi 0-gaus

 Electronic relaxation 2 (details)
   IALGO  =     68    algorithm
   LDIAG  =      T    sub-space diagonalisation (order eigenvalues)
   LSUBROT=      F    optimize rotation matrix (better conditioning)
   TURBO    =      0    0=normal 1=particle mesh
   IRESTART =      0    0=no restart 2=restart with 2 vectors
   NREBOOT  =      0    no. of reboots
   NMIN     =      0    reboot dimension
   EREF     =   0.00    reference energy to select bands
   IMIX   =      4    mixing-type and parameters
     AMIX     =   0.40;   BMIX     =  1.00
     AMIX_MAG =   1.60;   BMIX_MAG =  1.00
     AMIN     =   0.10
     WC   =   100.;   INIMIX=   1;  MIXPRE=   1;  MAXMIX= -45

 Intra band minimization:
   WEIMIN = 0.0000     energy-eigenvalue tresh-hold
   EBREAK =  0.18E-05  absolut break condition
   DEPER  =   0.30     relativ break condition  

   TIME   =   0.40     timestep for ELM

  volume/ion in A,a.u.               =      13.77        92.93
  Fermi-wavevector in a.u.,A,eV,Ry     =   1.413135  2.670438 27.170167  1.996951
  Thomas-Fermi vector in A             =   2.534812

 Write flags
   LWAVE        =      F    write WAVECAR
   LDOWNSAMPLE  =      F    k-point downsampling of WAVECAR
   LCHARG       =      T    write CHGCAR
   LVTOT        =      F    write LOCPOT, total local potential
   LVHAR        =      F    write LOCPOT, Hartree potential only
   LELF         =      F    write electronic localiz. function (ELF)
   LORBIT       =     11    0 simple, 1 ext, 2 COOP (PROOUT), +10 PAW based schemes


 Dipole corrections
   LMONO  =      F    monopole corrections only (constant potential shift)
   LDIPOL =      F    correct potential (dipole corrections)
   IDIPOL =      0    1-x, 2-y, 3-z, 4-all directions 
   EPSILON=  1.0000000 bulk dielectric constant

 LDA+U is selected, type is set to LDAUTYPE =  2
   angular momentum for each species LDAUL =     0    2    0
   U (eV)           for each species LDAUU =   0.0  6.2  0.0
   J (eV)           for each species LDAUJ =   0.0  0.0  0.0
 Exchange correlation treatment:
   GGA     =    --    GGA type
   LEXCH   =     8    internal setting for exchange type
   VOSKOWN=      0    Vosko Wilk Nusair interpolation
   LHFCALC =     F    Hartree Fock is set to
   LHFONE  =     F    Hartree Fock one center treatment
   AEXX    =    0.0000 exact exchange contribution

 Linear response parameters
   LEPSILON=     F    determine dielectric tensor
   LRPA    =     F    only Hartree local field effects (RPA)
   LNABLA  =     F    use nabla operator in PAW spheres
   LVEL    =     F    velocity operator in full k-point grid
   LINTERFAST=   F  fast interpolation
   KINTER  =     0    interpolate to denser k-point grid
   CSHIFT  =0.1000    complex shift for real part using Kramers Kronig
   OMEGAMAX=  -1.0    maximum frequency
   DEG_THRESHOLD= 0.2000000E-02 threshold for treating states as degnerate
   RTIME   =   -0.100 relaxation time in fs
  (WPLASMAI=    0.000 imaginary part of plasma frequency in eV, 0.658/RTIME)
   DFIELD  = 0.0000000 0.0000000 0.0000000 field for delta impulse in time

 Orbital magnetization related:
   ORBITALMAG=     F  switch on orbital magnetization
   LCHIMAG   =     F  perturbation theory with respect to B field
   DQ        =  0.001000  dq finite difference perturbation B field
   LLRAUG    =     F  two centre corrections for induced B field



--------------------------------------------------------------------------------------------------------


 Static calculation
 charge density and potential will be updated during run
 spin polarized calculation
 RMM-DIIS sequential band-by-band and
  variant of blocked Davidson during initial phase
 perform sub-space diagonalisation
    before iterative eigenvector-optimisation
 modified Broyden-mixing scheme, WC =      100.0
 initial mixing is a Kerker type mixing with AMIX =  0.4000 and BMIX =      1.0000
 Hartree-type preconditioning will be used
 using additional bands           17
 reciprocal scheme for non local part
 use partial core corrections
 calculate Harris-corrections to forces   (improved forces if not selfconsistent)
 use gradient corrections 
 use of overlap-Matrix (Vanderbilt PP)
 Fermi weights with tetrahedron method with Bloechl corrections


--------------------------------------------------------------------------------------------------------


  energy-cutoff  :      520.00
  volume of cell :       96.40
      direct lattice vectors                 reciprocal lattice vectors
     3.924090000  0.000000000  0.000000000     0.254836153 -0.000000000  0.079869844
     0.000000000  3.924090000  0.000000000    -0.000000000  0.254836153  0.079869844
    -1.962045000 -1.962045000  6.260185000     0.000000000  0.000000000  0.159739688

  length of vectors
     3.924090000  3.924090000  6.847565801     0.267059276  0.267059276  0.159739688



 k-points in units of 2pi/SCALE and weight: # Generated by Masgent for EOS calculati
   0.00000000  0.00000000  0.00000000       0.005
   0.03640516  0.00000000  0.01140998       0.020
   0.07281033  0.00000000  0.02281996       0.020
   0.10921549  0.00000000  0.03422993       0.020
   0.03640516  0.03640516  0.02281996       0.010
   0.07281033  0.03640516  0.03422993       0.020
   0.10921549  0.03640516  0.04563991       0.020
  -0.10921549  0.03640516 -0.02281996       0.020
  -0.07281033  0.03640516 -0.01140998       0.020
  -0.03640516  0.03640516  0.00000000       0.010
   0.07281033  0.07281033  0.04563991       0.010
   0.10921549  0.07281033  0.05704989       0.020
  -0.10921549  0.07281033 -0.01140998       0.020
  -0.07281033  0.07281033  0.00000000       0.010
   0.10921549  0.10921549  0.06845987       0.010
  -0.10921549  0.10921549  0.00000000       0.010
   0.00000000  0.00000000  0.03993492       0.010
   0.03640516  0.00000000  0.05134490       0.020
   0.07281033  0.00000000  0.06275488       0.020
   0.10921549  0.00000000  0.07416486       0.020
  -0.10921549  0.00000000  0.00570499       0.020
  -0.07281033  0.00000000  0.01711497       0.020
  -0.03640516  0.00000000  0.02852494       0.020
   0.03640516  0.03640516  0.06275488       0.010
   0.07281033  0.03640516  0.07416486       0.020
   0.10921549  0.03640516  0.08557483       0.020
  -0.10921549  0.03640516  0.01711497       0.020
  -0.07281033  0.03640516  0.02852494       0.020
  -0.03640516  0.03640516  0.03993492       0.020
   0.07281033  0.07281033  0.08557483       0.010
   0.10921549  0.07281033  0.09698481       0.020
  -0.10921549  0.07281033  0.02852494       0.020
  -0.07281033  0.07281033  0.03993492       0.020
  -0.03640516  0.07281033  0.05134490       0.020
   0.10921549  0.10921549  0.10839479       0.010
  -0.10921549  0.10921549  0.03993492       0.020
  -0.07281033  0.10921549  0.05134490       0.020
  -0.03640516  0.10921549  0.06275488       0.020
  -0.10921549 -0.10921549 -0.02852494       0.010
  -0.07281033 -0.10921549 -0.01711497       0.020
  -0.03640516 -0.10921549 -0.00570499       0.020
  -0.07281033 -0.07281033 -0.00570499       0.010
  -0.03640516 -0.07281033  0.00570499       0.020
  -0.03640516 -0.03640516  0.01711497       0.010
   0.00000000  0.00000000  0.07986984       0.005
   0.03640516  0.00000000  0.09127982       0.020
   0.07281033  0.00000000  0.10268980       0.020
   0.10921549  0.00000000  0.11409978       0.020
   0.03640516  0.03640516  0.10268980       0.010
   0.07281033  0.03640516  0.11409978       0.020
   0.10921549  0.03640516  0.12550976       0.020
  -0.10921549  0.03640516  0.05704989       0.020
  -0.07281033  0.03640516  0.06845987       0.020
  -0.03640516  0.03640516  0.07986984       0.010
   0.07281033  0.07281033  0.12550976       0.010
   0.10921549  0.07281033  0.13691973       0.020
  -0.10921549  0.07281033  0.06845987       0.020
  -0.07281033  0.07281033  0.07986984       0.010
   0.10921549  0.10921549  0.14832971       0.010
  -0.10921549  0.10921549  0.07986984       0.010

 k-points in reciprocal lattice and weights: # Generated by Masgent for EOS calculati
   0.00000000  0.00000000  0.00000000       0.005
   0.14285714  0.00000000  0.00000000       0.020
   0.28571429  0.00000000  0.00000000       0.020
   0.42857143  0.00000000  0.00000000       0.020
   0.14285714  0.14285714  0.00000000       0.010
   0.28571429  0.14285714  0.00000000       0.020
   0.42857143  0.14285714  0.00000000       0.020
  -0.42857143  0.14285714  0.00000000       0.020
  -0.28571429  0.14285714  0.00000000       0.020
  -0.14285714  0.14285714  0.00000000       0.010
   0.28571429  0.28571429  0.00000000       0.010
   0.42857143  0.28571429  0.00000000       0.020
  -0.42857143  0.28571429  0.00000000       0.020
  -0.28571429  0.28571429  0.00000000       0.010
   0.42857143  0.42857143  0.00000000       0.010
  -0.42857143  0.42857143  0.00000000       0.010
   0.00000000  0.00000000  0.25000000       0.010
   0.14285714  0.00000000  0.25000000       0.020
   0.28571429  0.00000000  0.25000000       0.020
   0.42857143  0.00000000  0.25000000       0.020
  -0.42857143  0.00000000  0.25000000       0.020
  -0.28571429  0.00000000  0.25000000       0.020
  -0.14285714  0.00000000  0.25000000       0.020
   0.14285714  0.14285714  0.25000000       0.010
   0.28571429  0.14285714  0.25000000       0.020
   0.42857143  0.14285714  0.25000000       0.020
  -0.42857143  0.14285714  0.25000000       0.020
  -0.28571429  0.14285714  0.25000000       0.020
  -0.14285714  0.14285714  0.25000000       0.020
   0.28571429  0.28571429  0.25000000       0.010
   0.42857143  0.28571429  0.25000000       0.020
  -0.42857143  0.28571429  0.25000000       0.020
  -0.28571429  0.28571429  0.25000000       0.020
  -0.14285714  0.28571429  0.25000000       0.020
   0.42857143  0.42857143  0.25000000       0.010
  -0.42857143  0.42857143  0.25000000       0.020
  -0.28571429  0.42857143  0.25000000       0.020
  -0.14285714  0.42857143  0.25000000       0.020
  -0.42857143 -0.42857143  0.25000000       0.010
  -0.28571429 -0.42857143  0.25000000       0.020
  -0.14285714 -0.42857143  0.25000000       0.020
  -0.28571429 -0.28571429  0.25000000       0.010
  -0.14285714 -0.28571429  0.25000000       0.020
  -0.14285714 -0.14285714  0.25000000       0.010
   0.00000000  0.00000000  0.50000000       0.005
   0.14285714  0.00000000  0.50000000       0.020
   0.28571429  0.00000000  0.50000000       0.020
   0.42857143  0.00000000  0.50000000       0.020
   0.14285714  0.14285714  0.50000000       0.010
   0.28571429  0.14285714  0.50000000       0.020
   0.42857143  0.14285714  0.50000000       0.020
  -0.42857143  0.14285714  0.50000000       0.020
  -0.28571429  0.14285714  0.50000000       0.020
  -0.14285714  0.14285714  0.50000000       0.010
   0.28571429  0.28571429  0.50000000       0.010
   0.42857143  0.28571429  0.50000000       0.020
  -0.42857143  0.28571429  0.50000000       0.020
  -0.28571429  0.28571429  0.50000000       0.010
   0.42857143  0.42857143  0.50000000       0.010
  -0.42857143  0.42857143  0.50000000       0.010

 position of ions in fractional coordinates (direct lattice) 
   0.36347300  0.36347300  0.72694600
   0.63652700  0.63652700  0.27305400
   0.00000000  0.00000000  0.00000000
   0.17899300  0.17899300  0.35798600
   0.82100700  0.82100700  0.64201400
   0.50000000  0.00000000  0.00000000
   0.00000000  0.50000000  0.00000000

 position of ions in cartesian coordinates  (Angst):
   0.00000000  0.00000000  4.55081645
   1.96204500  1.96204500  1.70936855
   0.00000000  0.00000000  0.00000000
   0.00000000  0.00000000  2.24105859
   1.96204500  1.96204500  4.01912641
   1.96204500  0.00000000  0.00000000
   0.00000000  1.96204500  0.00000000



--------------------------------------------------------------------------------------------------------


 k-point   1 :   0.0000 0.0000 0.0000  plane waves:    2599
 k-point   2 :   0.1429 0.0000 0.0000  plane waves:    2603
 k-point   3 :   0.2857 0.0000 0.0000  plane waves:    2595
 k-point   4 :   0.4286 0.0000 0.0000  plane waves:    2593
 k-point   5 :   0.1429 0.1429 0.0000  plane waves:    2611
 k-point   6 :   0.2857 0.1429 0.0000  plane waves:    2594
 k-point   7 :   0.4286 0.1429 0.0000  plane waves:    2591
 k-point   8 :  -0.4286 0.1429 0.0000  plane waves:    2590
 k-point   9 :  -0.2857 0.1429 0.0000  plane waves:    2592
 k-point  10 :  -0.1429 0.1429 0.0000  plane waves:    2613
 k-point  11 :   0.2857 0.2857 0.0000  plane waves:    2590
 k-point  12 :   0.4286 0.2857 0.0000  plane waves:    2591
 k-point  13 :  -0.4286 0.2857 0.0000  plane waves:    2589
 k-point  14 :  -0.2857 0.2857 0.0000  plane waves:    2598
 k-point  15 :   0.4286 0.4286 0.0000  plane waves:    2599
 k-point  16 :  -0.4286 0.4286 0.0000  plane waves:    2586
 k-point  17 :   0.0000 0.0000 0.2500  plane waves:    2615
 k-point  18 :   0.1429 0.0000 0.2500  plane waves:    2601
 k-point  19 :   0.2857 0.0000 0.2500  plane waves:    2598
 k-point  20 :   0.4286 0.0000 0.2500  plane waves:    2599
 k-point  21 :  -0.4286 0.0000 0.2500  plane waves:    2592
 k-point  22 :  -0.2857 0.0000 0.2500  plane waves:    2587
 k-point  23 :  -0.1429 0.0000 0.2500  plane waves:    2596
 k-point  24 :   0.1429 0.1429 0.2500  plane waves:    2602
 k-point  25 :   0.2857 0.1429 0.2500  plane waves:    2586
 k-point  26 :   0.4286 0.1429 0.2500  plane waves:    2611
 k-point  27 :  -0.4286 0.1429 0.2500  plane waves:    2587
 k-point  28 :  -0.2857 0.1429 0.2500  plane waves:    2593
 k-point  29 :  -0.1429 0.1429 0.2500  plane waves:    2604
 k-point  30 :   0.2857 0.2857 0.2500  plane waves:    2580
 k-point  31 :   0.4286 0.2857 0.2500  plane waves:    2593
 k-point  32 :  -0.4286 0.2857 0.2500  plane waves:    2592
 k-point  33 :  -0.2857 0.2857 0.2500  plane waves:    2590
 k-point  34 :  -0.1429 0.2857 0.2500  plane waves:    2594
 k-point  35 :   0.4286 0.4286 0.2500  plane waves:    2602
 k-point  36 :  -0.4286 0.4286 0.2500  plane waves:    2594
 k-point  37 :  -0.2857 0.4286 0.2500  plane waves:    2595
 k-point  38 :  -0.1429 0.4286 0.2500  plane waves:    2594
 k-point  39 :  -0.4286-0.4286 0.2500  plane waves:    2595
 k-point  40 :  -0.2857-0.4286 0.2500  plane waves:    2590
 k-point  41 :  -0.1429-0.4286 0.2500  plane waves:    2587
 k-point  42 :  -0.2857-0.2857 0.2500  plane waves:    2594
 k-point  43 :  -0.1429-0.2857 0.2500  plane waves:    2593
 k-point  44 :  -0.1429-0.1429 0.2500  plane waves:    2614
 k-point  45 :   0.0000 0.0000 0.5000  plane waves:    2600
 k-point  46 :   0.1429 0.0000 0.5000  plane waves:    2605
 k-point  47 :   0.2857 0.0000 0.5000  plane waves:    2598
 k-point  48 :   0.4286 0.0000 0.5000  plane waves:    2598
 k-point  49 :   0.1429 0.1429 0.5000  plane waves:    2593
 k-point  50 :   0.2857 0.1429 0.5000  plane waves:    2598
 k-point  51 :   0.4286 0.1429 0.5000  plane waves:    2587
 k-point  52 :  -0.4286 0.1429 0.5000  plane waves:    2599
 k-point  53 :  -0.2857 0.1429 0.5000  plane waves:    2588
 k-point  54 :  -0.1429 0.1429 0.5000  plane waves:    2602
 k-point  55 :   0.2857 0.2857 0.5000  plane waves:    2592
 k-point  56 :   0.4286 0.2857 0.5000  plane waves:    2591
 k-point  57 :  -0.4286 0.2857 0.5000  plane waves:    2595
 k-point  58 :  -0.2857 0.2857 0.5000  plane waves:    2584
 k-point  59 :   0.4286 0.4286 0.5000  plane waves:    2591
 k-point  60 :  -0.4286 0.4286 0.5000  plane waves:    2600

 maximum and minimum number of plane-waves per node :      2615     2580

 maximum number of plane-waves:      2615
 maximum index in each direction: 
   IXMAX=    7   IYMAX=    7   IZMAX=   12
   IXMIN=   -7   IYMIN=   -7   IZMIN=  -13


 serial   3D FFT for wavefunctions
 parallel 3D FFT for charge:
    minimum data exchange during FFTs selected (reduces bandwidth)


 total amount of memory used by VASP MPI-rank0   163661. kBytes
=======================================================================

   base      :      30000. kBytes
   nonl-proj :     121946. kBytes
   fftplans  :        608. kBytes
   grid      :       5074. kBytes
   one-center:        688. kBytes
   wavefun   :       5345. kBytes

     INWAV:  cpu time    0.0000: real time    0.0001
 Broyden mixing: mesh for mixing (old mesh)
   NGX = 15   NGY = 15   NGZ = 25
  (NGX  = 60   NGY  = 60   NGZ  =108)
  gives a total of   5625 points

 initial charge density was supplied:
 charge density of overlapping atoms calculated
 number of electron      62.0000000 magnetization       8.6000000
 keeping initial charge density in first step


--------------------------------------------------------------------------------------------------------


 Maximum index for augmentation-charges          747 (set IRDMAX)


--------------------------------------------------------------------------------------------------------


 First call to EWALD:  gamma=   0.387
 Maximum number of real-space cells 3x 3x 2
 Maximum number of reciprocal cells 2x 2x 4

    FEWALD:  cpu time    0.0007: real time    0.0008


--------------------------------------- Iteration      1(   1)  ---------------------------------------


    POTLOK:  cpu time    0.2062: real time    0.2065
    SETDIJ:  cpu time    0.8868: real time    0.8870
atom =   1  type =  1  l = 0

 onsite density matrix

spin component  1

  1.1588

spin component  2

  1.0390

 occupancies and eigenvectors

  o =  1.0390  v =  0.0000  1.0000      0.0000  0.0000
  o =  1.1588  v =  1.0000  0.0000      0.0000  0.0000

atom =   2  type =  1  l = 0

 onsite density matrix

spin component  1

  1.1588

spin component  2

  1.0390

 occupancies and eigenvectors

  o =  1.0390  v =  0.0000  1.0000      0.0000  0.0000
  o =  1.1588  v =  1.0000  0.0000      0.0000  0.0000

atom =   3  type =  2  l = 2

 onsite density matrix

spin component  1

  1.0776  0.0000  0.0000  0.0000  0.0000
  0.0000  1.0776  0.0000  0.0000  0.0000
  0.0000  0.0000  1.0776  0.0000  0.0000
  0.0000  0.0000  0.0000  1.0776  0.0000
  0.0000  0.0000  0.0000  0.0000  1.0776

spin component  2

  0.5645  0.0000  0.0000  0.0000  0.0000
  0.0000  0.5645  0.0000  0.0000  0.0000
  0.0000  0.0000  0.5645  0.0000  0.0000
  0.0000  0.0000  0.0000  0.5645  0.0000
  0.0000  0.0000  0.0000  0.0000  0.5645

 occupancies and eigenvectors

  o =  0.5645  v =  0.0000  0.0000  0.0000  0.0000  0.0000  0.0000  0.0000  1.0000  0.0000  0.0000      0.0000  0.0000  0.0000  0.0000  0.0000  0.0000  0.0000  0.0000  0.0000  0.0000
  o =  0.5645  v =  0.0000  0.0000  0.0000  0.0000  0.0000  1.0000  0.0000  0.0000  0.0000  0.0000      0.0000  0.0000  0.0000  0.0000  0.0000  0.0000  0.0000  0.0000  0.0000  0.0000
  o =  0.5645  v =  0.0000  0.0000  0.0000  0.0000  0.0000  0.0000  0.0000  0.0000  0.0000  1.0000      0.0000  0.0000  0.0000  0.0000  0.0000  0.0000  0.0000  0.0000  0.0000  0.0000
  o =  0.5645  v =  0.0000  0.0000  0.0000  0.0000  0.0000  0.0000  1.0000  0.0000  0.0000  0.0000      0.0000  0.0000  0.0000  0.0000  0.0000  0.0000  0.0000  0.0000  0.0000  0.0000
  o =  0.5645  v =  0.0000  0.0000  0.0000  0.0000  0.0000  0.0000  0.0000  0.0000  1.0000  0.0000      0.0000  0.0000  0.0000  0.0000  0.0000  0.0000  0.0000  0.0000  0.0000  0.0000
  o =  1.0776  v =  0.0000  0.0000  1.0000  0.0000  0.0000  0.0000  0.0000  0.0000  0.0000  0.0000      0.0000  0.0000  0.0000  0.0000  0.0000  0.0000  0.0000  0.0000  0.0000  0.0000
  o =  1.0776  v =  0.0000  0.0000  0.0000  1.0000  0.0000  0.0000  0.0000  0.0000  0.0000  0.0000      0.0000  0.0000  0.0000  0.0000  0.0000  0.0000  0.0000  0.0000  0.0000  0.0000
  o =  1.0776  v =  1.0000  0.0000  0.0000  0.0000  0.0000  0.0000  0.0000  0.0000  0.0000  0.0000      0.0000  0.0000  0.0000  0.0000  0.0000  0.0000  0.0000  0.0000  0.0000  0.0000
  o =  1.0776  v =  0.0000  0.0000  0.0000  0.0000  1.0000  0.0000  0.0000  0.0000  0.0000  0.0000      0.0000  0.0000  0.0000  0.0000  0.0000  0.0000  0.0000  0.0000  0.0000  0.0000
  o =  1.0776  v =  0.0000  1.0000  0.0000  0.0000  0.0000  0.0000  0.0000  0.0000  0.0000  0.0000      0.0000  0.0000  0.0000  0.0000  0.0000  0.0000  0.0000  0.0000  0.0000  0.0000

atom =   4  type =  3  l = 0

 onsite density matrix

spin component  1

  0.9009

spin component  2

  0.7371

 occupancies and eigenvectors

  o =  0.7371  v =  0.0000  1.0000      0.0000  0.0000
  o =  0.9009  v =  1.0000  0.0000      0.0000  0.0000

atom =   5  type =  3  l = 0

 onsite density matrix

spin component  1

  0.9009

spin component  2

  0.7371

 occupancies and eigenvectors

  o =  0.7371  v =  0.0000  1.0000      0.0000  0.0000
  o =  0.9009  v =  1.0000  0.0000      0.0000  0.0000

atom =   6  type =  3  l = 0

 onsite density matrix

spin component  1

  0.9009

spin component  2

  0.7371

 occupancies and eigenvectors

  o =  0.7371  v =  0.0000  1.0000      0.0000  0.0000
  o =  0.9009  v =  1.0000  0.0000      0.0000  0.0000

atom =   7  type =  3  l = 0

 onsite density matrix

spin component  1

  0.9009

spin component  2

  0.7371

 occupancies and eigenvectors

  o =  0.7371  v =  0.0000  1.0000      0.0000  0.0000
  o =  0.9009  v =  1.0000  0.0000      0.0000  0.0000

     EDDAV:  cpu time    4.9537: real time    4.9543
 BZINTS: Fermi energy:   13.332812;   62.000000 electrons
         Band energy:-0.567184E+02;  BLOECHL correction:   -0.026503
       DOS:  cpu time    0.0719: real time    0.0722
    --------------------------------------------
      LOOP:  cpu time    6.1186: real time    6.1200

 eigenvalue-minimisations  : 11520
 total energy-change (2. order) : 0.3591217E+03  (-0.3379553E+04)
 number of electron      62.0000000 magnetization       8.6000000
 augmentation part       62.0000000 magnetization       8.6000000

 Free energy of the ion-electron system (eV)
  ---------------------------------------------------
  alpha Z        PSCENC =       283.46269341
  Ewald energy   TEWEN  =     -4692.39425510
  -Hartree energ DENC   =     -2280.08635458
  -exchange      EXHF   =         0.00000000
  -V(xc)+E(xc)   XCENC  =       264.75959957
  PAW double counting   =      5585.27909985    -5707.62878593
  entropy T*S    EENTRO =         0.00000000
  eigenvalues    EBANDS =       -56.71842906
  atomic energy  EATOM  =      6962.44817098
  Solvation  Ediel_sol  =         0.00000000
  ---------------------------------------------------
  free energy    TOTEN  =       359.12173914 eV

  energy without entropy =      359.12173914  energy(sigma->0) =      359.12173914


--------------------------------------------------------------------------------------------------------




--------------------------------------- Iteration      1(   2)  ---------------------------------------


     EDDAV:  cpu time   10.9791: real time   10.9794
 BZINTS: Fermi energy:   10.879477;   62.000000 electrons
         Band energy:-0.464927E+03;  BLOECHL correction:   -0.041737
       DOS:  cpu time    0.0727: real time    0.0729
    --------------------------------------------
      LOOP:  cpu time   11.0518: real time   11.0523

 eigenvalue-minimisations  : 17376
 total energy-change (2. order) :-0.4082091E+03  (-0.4078810E+03)
 number of electron      62.0000000 magnetization       8.6000000
 augmentation part       62.0000000 magnetization       8.6000000

 Free energy of the ion-electron system (eV)
  ---------------------------------------------------
  alpha Z        PSCENC =       283.46269341
  Ewald energy   TEWEN  =     -4692.39425510
  -Hartree energ DENC   =     -2280.08635458
  -exchange      EXHF   =         0.00000000
  -V(xc)+E(xc)   XCENC  =       264.75959957
  PAW double counting   =      5585.27909985    -5707.62878593
  entropy T*S    EENTRO =         0.00000000
  eigenvalues    EBANDS =      -464.92747967
  atomic energy  EATOM  =      6962.44817098
  Solvation  Ediel_sol  =         0.00000000
  ---------------------------------------------------
  free energy    TOTEN  =       -49.08731146 eV

  energy without entropy =      -49.08731146  energy(sigma->0) =      -49.08731146


--------------------------------------------------------------------------------------------------------




--------------------------------------- Iteration      1(   3)  ---------------------------------------


     EDDAV:  cpu time    5.0105: real time    5.0108
 BZINTS: Fermi energy:   10.777643;   62.000000 electrons
         Band energy:-0.472876E+03;  BLOECHL correction:   -0.032105
       DOS:  cpu time    0.0723: real time    0.0724
    --------------------------------------------
      LOOP:  cpu time    5.0828: real time    5.0832

 eigenvalue-minimisations  : 11616
 total energy-change (2. order) :-0.7948984E+01  (-0.7940879E+01)
 number of electron      62.0000000 magnetization       8.6000000
 augmentation part       62.0000000 magnetization       8.6000000

 Free energy of the ion-electron system (eV)
  ---------------------------------------------------
  alpha Z        PSCENC =       283.46269341
  Ewald energy   TEWEN  =     -4692.39425510
  -Hartree energ DENC   =     -2280.08635458
  -exchange      EXHF   =         0.00000000
  -V(xc)+E(xc)   XCENC  =       264.75959957
  PAW double counting   =      5585.27909985    -5707.62878593
  entropy T*S    EENTRO =         0.00000000
  eigenvalues    EBANDS =      -472.87646406
  atomic energy  EATOM  =      6962.44817098
  Solvation  Ediel_sol  =         0.00000000
  ---------------------------------------------------
  free energy    TOTEN  =       -57.03629586 eV

  energy without entropy =      -57.03629586  energy(sigma->0) =      -57.03629586


--------------------------------------------------------------------------------------------------------




--------------------------------------- Iteration      1(   4)  ---------------------------------------


     EDDAV:  cpu time   19.9401: real time   19.9403
 BZINTS: Fermi energy:   10.763499;   62.000000 electrons
         Band energy:-0.473164E+03;  BLOECHL correction:   -0.030422
       DOS:  cpu time    0.0763: real time    0.0765
    --------------------------------------------
      LOOP:  cpu time   20.0164: real time   20.0168

 eigenvalue-minimisations  : 22752
 total energy-change (2. order) :-0.2875372E+00  (-0.2872284E+00)
 number of electron      62.0000000 magnetization       8.6000000
 augmentation part       62.0000000 magnetization       8.6000000

 Free energy of the ion-electron system (eV)
  ---------------------------------------------------
  alpha Z        PSCENC =       283.46269341
  Ewald energy   TEWEN  =     -4692.39425510
  -Hartree energ DENC   =     -2280.08635458
  -exchange      EXHF   =         0.00000000
  -V(xc)+E(xc)   XCENC  =       264.75959957
  PAW double counting   =      5585.27909985    -5707.62878593
  entropy T*S    EENTRO =         0.00000000
  eigenvalues    EBANDS =      -473.16400130
  atomic energy  EATOM  =      6962.44817098
  Solvation  Ediel_sol  =         0.00000000
  ---------------------------------------------------
  free energy    TOTEN  =       -57.32383309 eV

  energy without entropy =      -57.32383309  energy(sigma->0) =      -57.32383309


--------------------------------------------------------------------------------------------------------




--------------------------------------- Iteration      1(   5)  ---------------------------------------


     EDDAV:  cpu time    5.1111: real time    5.1112
 BZINTS: Fermi energy:   10.763254;   62.000000 electrons
         Band energy:-0.473167E+03;  BLOECHL correction:   -0.030335
       DOS:  cpu time    0.0721: real time    0.0723
    CHARGE:  cpu time    0.1360: real time    0.1363
    MIXING:  cpu time    0.0007: real time    0.0009
    --------------------------------------------
      LOOP:  cpu time    5.3199: real time    5.3208

 eigenvalue-minimisations  : 11712
 total energy-change (2. order) :-0.2858700E-02  (-0.2840595E-02)
 number of electron      61.9999969 magnetization       6.0245924
 augmentation part        8.0224559 magnetization       4.0840333

 Broyden mixing:
  rms(total) = 0.35707E+01    rms(broyden)= 0.35704E+01
  rms(prec ) = 0.61358E+01
  weight for this iteration     100.00

 Free energy of the ion-electron system (eV)
  ---------------------------------------------------
  alpha Z        PSCENC =       283.46269341
  Ewald energy   TEWEN  =     -4692.39425510
  -Hartree energ DENC   =     -2280.08635458
  -exchange      EXHF   =         0.00000000
  -V(xc)+E(xc)   XCENC  =       264.75959957
  PAW double counting   =      5585.27909985    -5707.62878593
  entropy T*S    EENTRO =         0.00000000
  eigenvalues    EBANDS =      -473.16686000
  atomic energy  EATOM  =      6962.44817098
  Solvation  Ediel_sol  =         0.00000000
  ---------------------------------------------------
  free energy    TOTEN  =       -57.32669179 eV

  energy without entropy =      -57.32669179  energy(sigma->0) =      -57.32669179


--------------------------------------------------------------------------------------------------------




--------------------------------------- Iteration      1(   6)  ---------------------------------------


    POTLOK:  cpu time    0.0183: real time    0.0185
    SETDIJ:  cpu time    0.8787: real time    0.8787
atom =   1  type =  1  l = 0

 onsite density matrix

spin component  1

  1.0270

spin component  2

  1.0977

 occupancies and eigenvectors

  o =  1.0270  v =  1.0000  0.0000      0.0000  0.0000
  o =  1.0977  v =  0.0000  1.0000      0.0000  0.0000

atom =   2  type =  1  l = 0

 onsite density matrix

spin component  1

  1.0270

spin component  2

  1.0977

 occupancies and eigenvectors

  o =  1.0270  v =  1.0000  0.0000      0.0000  0.0000
  o =  1.0977  v =  0.0000  1.0000      0.0000  0.0000

atom =   3  type =  2  l = 2

 onsite density matrix

spin component  1

  1.2121  0.0000  0.0000  0.0000 -0.0000
  0.0000  1.2299  0.0000  0.0000 -0.0000
  0.0000  0.0000  1.2775  0.0000 -0.0000
  0.0000  0.0000  0.0000  1.2299  0.0000
 -0.0000 -0.0000 -0.0000  0.0000  1.2849

spin component  2

  0.2005 -0.0000  0.0000 -0.0000  0.0000
 -0.0000  0.1665 -0.0000  0.0000  0.0000
  0.0000 -0.0000  0.1195 -0.0000 -0.0000
 -0.0000  0.0000 -0.0000  0.1665 -0.0000
  0.0000  0.0000 -0.0000 -0.0000  0.1361

 occupancies and eigenvectors

  o =  0.1195  v =  0.0000  0.0000  0.0000  0.0000  0.0000  0.0000  0.0000  1.0000  0.0000  0.0000      0.0000  0.0000  0.0000  0.0000  0.0000  0.0000  0.0000  0.0000  0.0000  0.0000
  o =  0.1361  v =  0.0000  0.0000  0.0000  0.0000  0.0000  0.0000  0.0000  0.0000 -0.0000 -1.0000      0.0000  0.0000  0.0000  0.0000  0.0000  0.0000  0.0000  0.0000  0.0000  0.0000
  o =  0.1665  v =  0.0000  0.0000  0.0000  0.0000  0.0000  0.0000 -0.5953  0.0000  0.8035 -0.0000      0.0000  0.0000  0.0000  0.0000  0.0000  0.0000  0.0000  0.0000  0.0000  0.0000
  o =  0.1665  v =  0.0000  0.0000  0.0000  0.0000  0.0000  0.0000  0.8035 -0.0000  0.5953  0.0000      0.0000  0.0000  0.0000  0.0000  0.0000  0.0000  0.0000  0.0000  0.0000  0.0000
  o =  0.2005  v =  0.0000  0.0000  0.0000  0.0000  0.0000  1.0000 -0.0000  0.0000 -0.0000  0.0000      0.0000  0.0000  0.0000  0.0000  0.0000  0.0000  0.0000  0.0000  0.0000  0.0000
  o =  1.2121  v =  1.0000 -0.0000  0.0000 -0.0000  0.0000  0.0000  0.0000  0.0000  0.0000  0.0000      0.0000  0.0000  0.0000  0.0000  0.0000  0.0000  0.0000  0.0000  0.0000  0.0000
  o =  1.2299  v = -0.0000 -0.7654  0.0000 -0.6435 -0.0000 -0.0000 -0.0000 -0.0000 -0.0000 -0.0000      0.0000  0.0000  0.0000  0.0000  0.0000  0.0000  0.0000  0.0000  0.0000  0.0000
  o =  1.2299  v = -0.0000  0.6435  0.0000 -0.7654  0.0000  0.0000  0.0000  0.0000  0.0000  0.0000      0.0000  0.0000  0.0000  0.0000  0.0000  0.0000  0.0000  0.0000  0.0000  0.0000
  o =  1.2775  v = -0.0000 -0.0000 -1.0000 -0.0000 -0.0000 -0.0000 -0.0000 -0.0000 -0.0000 -0.0000      0.0000  0.0000  0.0000  0.0000  0.0000  0.0000  0.0000  0.0000  0.0000  0.0000
  o =  1.2849  v = -0.0000 -0.0000 -0.0000  0.0000  1.0000  0.0000  0.0000  0.0000  0.0000  0.0000      0.0000  0.0000  0.0000  0.0000  0.0000  0.0000  0.0000  0.0000  0.0000  0.0000

atom =   4  type =  3  l = 0

 onsite density matrix

spin component  1

  0.7741

spin component  2

  0.8585

 occupancies and eigenvectors

  o =  0.7741  v =  1.0000  0.0000      0.0000  0.0000
  o =  0.8585  v =  0.0000  1.0000      0.0000  0.0000

atom =   5  type =  3  l = 0

 onsite density matrix

spin component  1

  0.7741

spin component  2

  0.8585

 occupancies and eigenvectors

  o =  0.7741  v =  1.0000  0.0000      0.0000  0.0000
  o =  0.8585  v =  0.0000  1.0000      0.0000  0.0000

atom =   6  type =  3  l = 0

 onsite density matrix

spin component  1

  0.7742

spin component  2

  0.8552

 occupancies and eigenvectors

  o =  0.7742  v =  1.0000  0.0000      0.0000  0.0000
  o =  0.8552  v =  0.0000  1.0000      0.0000  0.0000

atom =   7  type =  3  l = 0

 onsite density matrix

spin component  1

  0.7742

spin component  2

  0.8552

 occupancies and eigenvectors

  o =  0.7742  v =  1.0000  0.0000      0.0000  0.0000
  o =  0.8552  v =  0.0000  1.0000      0.0000  0.0000

    EDDIAG:  cpu time    0.5975: real time    0.5993
  RMM-DIIS:  cpu time    1.6004: real time    1.6004
    ORTHCH:  cpu time    0.0495: real time    0.0495
 BZINTS: Fermi energy:    6.898337;   62.000000 electrons
         Band energy:-0.658914E+03;  BLOECHL correction:   -0.058850
       DOS:  cpu time    0.0728: real time    0.0730
    CHARGE:  cpu time    0.1321: real time    0.1321
    MIXING:  cpu time    0.0005: real time    0.0005
    --------------------------------------------
      LOOP:  cpu time    3.3497: real time    3.3521

 eigenvalue-minimisations  : 18239
 total energy-change (2. order) :-0.4286520E+01  (-0.2489527E+02)
 number of electron      61.9999957 magnetization       5.3050572
 augmentation part       10.2977213 magnetization       4.5224355

 Broyden mixing:
  rms(total) = 0.12246E+02    rms(broyden)= 0.12246E+02
  rms(prec ) = 0.12768E+02
  weight for this iteration     100.00

 eigenvalues of (default mixing * dielectric matrix)
  average eigenvalue GAMMA=   0.0131
  0.0131

 Free energy of the ion-electron system (eV)
  ---------------------------------------------------
  alpha Z        PSCENC =       283.46269341
  Ewald energy   TEWEN  =     -4692.39425510
  -Hartree energ DENC   =     -2112.66580775
  -exchange      EXHF   =         0.00000000
  -V(xc)+E(xc)   XCENC  =       263.26281598
  PAW double counting   =      5665.51518384    -5772.32765599
  entropy T*S    EENTRO =         0.00000000
  eigenvalues    EBANDS =      -658.91435729
  atomic energy  EATOM  =      6962.44817098
  Solvation  Ediel_sol  =         0.00000000
  ---------------------------------------------------
  free energy    TOTEN  =       -61.61321192 eV

  energy without entropy =      -61.61321192  energy(sigma->0) =      -61.61321192


--------------------------------------------------------------------------------------------------------




--------------------------------------- Iteration      1(   7)  ---------------------------------------


    POTLOK:  cpu time    0.0179: real time    0.0182
    SETDIJ:  cpu time    0.8784: real time    0.8784
atom =   1  type =  1  l = 0

 onsite density matrix

spin component  1

  1.0346

spin component  2

  1.0804

 occupancies and eigenvectors

  o =  1.0346  v =  1.0000  0.0000      0.0000  0.0000
  o =  1.0804  v =  0.0000  1.0000      0.0000  0.0000

atom =   2  type =  1  l = 0

 onsite density matrix

spin component  1

  1.0346

spin component  2

  1.0804

 occupancies and eigenvectors

  o =  1.0346  v =  1.0000  0.0000      0.0000  0.0000
  o =  1.0804  v =  0.0000  1.0000      0.0000  0.0000

atom =   3  type =  2  l = 2

 onsite density matrix

spin component  1

  1.0725  0.0000  0.0000  0.0000  0.0000
  0.0000  1.0817  0.0000  0.0000 -0.0000
  0.0000  0.0000  1.1502  0.0000  0.0000
  0.0000  0.0000  0.0000  1.0817  0.0000
  0.0000 -0.0000  0.0000  0.0000  1.2237

spin component  2

  0.3821 -0.0000  0.0000 -0.0000 -0.0000
 -0.0000  0.3576 -0.0000  0.0000  0.0000
  0.0000 -0.0000  0.2725 -0.0000  0.0000
 -0.0000  0.0000 -0.0000  0.3576 -0.0000
 -0.0000  0.0000  0.0000 -0.0000  0.1851

 occupancies and eigenvectors

  o =  0.1851  v =  0.0000  0.0000  0.0000  0.0000  0.0000  0.0000 -0.0000 -0.0000  0.0000  1.0000      0.0000  0.0000  0.0000  0.0000  0.0000  0.0000  0.0000  0.0000  0.0000  0.0000
  o =  0.2725  v =  0.0000  0.0000  0.0000  0.0000  0.0000 -0.0000 -0.0000 -1.0000 -0.0000 -0.0000      0.0000  0.0000  0.0000  0.0000  0.0000  0.0000  0.0000  0.0000  0.0000  0.0000
  o =  0.3576  v =  0.0000  0.0000  0.0000  0.0000  0.0000 -0.0000  0.3208  0.0000 -0.9472  0.0000      0.0000  0.0000  0.0000  0.0000  0.0000  0.0000  0.0000  0.0000  0.0000  0.0000
  o =  0.3576  v =  0.0000  0.0000  0.0000  0.0000  0.0000 -0.0000 -0.9472  0.0000 -0.3208 -0.0000      0.0000  0.0000  0.0000  0.0000  0.0000  0.0000  0.0000  0.0000  0.0000  0.0000
  o =  0.3821  v =  0.0000  0.0000  0.0000  0.0000  0.0000  1.0000 -0.0000  0.0000 -0.0000 -0.0000      0.0000  0.0000  0.0000  0.0000  0.0000  0.0000  0.0000  0.0000  0.0000  0.0000
  o =  1.0725  v =  1.0000 -0.0000  0.0000 -0.0000 -0.0000  0.0000  0.0000  0.0000  0.0000  0.0000      0.0000  0.0000  0.0000  0.0000  0.0000  0.0000  0.0000  0.0000  0.0000  0.0000
  o =  1.0817  v = -0.0000  0.3981  0.0000 -0.9174  0.0000  0.0000  0.0000  0.0000  0.0000  0.0000      0.0000  0.0000  0.0000  0.0000  0.0000  0.0000  0.0000  0.0000  0.0000  0.0000
  o =  1.0817  v = -0.0000 -0.9174  0.0000 -0.3981 -0.0000 -0.0000 -0.0000 -0.0000 -0.0000 -0.0000      0.0000  0.0000  0.0000  0.0000  0.0000  0.0000  0.0000  0.0000  0.0000  0.0000
  o =  1.1502  v =  0.0000  0.0000  1.0000  0.0000 -0.0000  0.0000  0.0000  0.0000  0.0000  0.0000      0.0000  0.0000 -0.0000 -0.0000  0.0000  0.0000  0.0000  0.0000  0.0000  0.0000
  o =  1.2237  v = -0.0000  0.0000 -0.0000 -0.0000 -1.0000 -0.0000 -0.0000 -0.0000 -0.0000 -0.0000      0.0000 -0.0000  0.0000  0.0000  0.0000  0.0000  0.0000  0.0000  0.0000  0.0000

atom =   4  type =  3  l = 0

 onsite density matrix

spin component  1

  0.7840

spin component  2

  0.8439

 occupancies and eigenvectors

  o =  0.7840  v =  1.0000  0.0000      0.0000  0.0000
  o =  0.8439  v =  0.0000  1.0000      0.0000  0.0000

atom =   5  type =  3  l = 0

 onsite density matrix

spin component  1

  0.7840

spin component  2

  0.8439

 occupancies and eigenvectors

  o =  0.7840  v =  1.0000  0.0000      0.0000  0.0000
  o =  0.8439  v =  0.0000  1.0000      0.0000  0.0000

atom =   6  type =  3  l = 0

 onsite density matrix

spin component  1

  0.7847

spin component  2

  0.8385

 occupancies and eigenvectors

  o =  0.7847  v =  1.0000  0.0000      0.0000  0.0000
  o =  0.8385  v =  0.0000  1.0000      0.0000  0.0000

atom =   7  type =  3  l = 0

 onsite density matrix

spin component  1

  0.7847

spin component  2

  0.8385

 occupancies and eigenvectors

  o =  0.7847  v =  1.0000  0.0000      0.0000  0.0000
  o =  0.8385  v =  0.0000  1.0000      0.0000  0.0000

    EDDIAG:  cpu time    0.5882: real time    0.5882
  RMM-DIIS:  cpu time    1.6644: real time    1.6644
    ORTHCH:  cpu time    0.0490: real time    0.0490
 BZINTS: Fermi energy:    6.683988;   62.000000 electrons
         Band energy:-0.609651E+03;  BLOECHL correction:   -0.063218
       DOS:  cpu time    0.0708: real time    0.0710
    CHARGE:  cpu time    0.1324: real time    0.1325
    MIXING:  cpu time    0.0004: real time    0.0004
    --------------------------------------------
      LOOP:  cpu time    3.4015: real time    3.4020

 eigenvalue-minimisations  : 20042
 total energy-change (2. order) : 0.8485861E+00  (-0.4584798E+01)
 number of electron      61.9999958 magnetization       3.9822618
 augmentation part        9.9731916 magnetization       3.0091676

 Broyden mixing:
  rms(total) = 0.68023E+01    rms(broyden)= 0.68022E+01
  rms(prec ) = 0.75396E+01
  weight for this iteration     100.00

 eigenvalues of (default mixing * dielectric matrix)
  average eigenvalue GAMMA=   0.3883
  0.3883  0.3883

 Free energy of the ion-electron system (eV)
  ---------------------------------------------------
  alpha Z        PSCENC =       283.46269341
  Ewald energy   TEWEN  =     -4692.39425510
  -Hartree energ DENC   =     -2150.47457377
  -exchange      EXHF   =         0.00000000
  -V(xc)+E(xc)   XCENC  =       263.53470756
  PAW double counting   =      5928.77802962    -6046.46810004
  entropy T*S    EENTRO =         0.00000000
  eigenvalues    EBANDS =      -609.65129846
  atomic energy  EATOM  =      6962.44817098
  Solvation  Ediel_sol  =         0.00000000
  ---------------------------------------------------
  free energy    TOTEN  =       -60.76462581 eV

  energy without entropy =      -60.76462581  energy(sigma->0) =      -60.76462581


--------------------------------------------------------------------------------------------------------




--------------------------------------- Iteration      1(   8)  ---------------------------------------


    POTLOK:  cpu time    0.0179: real time    0.0182
    SETDIJ:  cpu time    0.8745: real time    0.8745
atom =   1  type =  1  l = 0

 onsite density matrix

spin component  1

  1.0391

spin component  2

  1.0524

 occupancies and eigenvectors

  o =  1.0391  v =  1.0000  0.0000      0.0000  0.0000
  o =  1.0524  v =  0.0000  1.0000      0.0000  0.0000

atom =   2  type =  1  l = 0

 onsite density matrix

spin component  1

  1.0391

spin component  2

  1.0524

 occupancies and eigenvectors

  o =  1.0391  v =  1.0000  0.0000      0.0000  0.0000
  o =  1.0524  v =  0.0000  1.0000      0.0000  0.0000

atom =   3  type =  2  l = 2

 onsite density matrix

spin component  1

  0.9390  0.0000  0.0000  0.0000 -0.0000
  0.0000  0.9410  0.0000  0.0000 -0.0000
  0.0000  0.0000  0.9769  0.0000 -0.0000
  0.0000  0.0000  0.0000  0.9410  0.0000
 -0.0000 -0.0000 -0.0000  0.0000  1.1115

spin component  2

  0.6262  0.0000  0.0000  0.0000 -0.0000
  0.0000  0.6106 -0.0000  0.0000 -0.0000
  0.0000 -0.0000  0.5379  0.0000 -0.0000
  0.0000  0.0000  0.0000  0.6106  0.0000
 -0.0000 -0.0000 -0.0000  0.0000  0.2743

 occupancies and eigenvectors

  o =  0.2743  v =  0.0000  0.0000  0.0000  0.0000  0.0000  0.0000 -0.0000  0.0000  0.0000 -1.0000      0.0000  0.0000  0.0000  0.0000  0.0000  0.0000  0.0000  0.0000  0.0000  0.0000
  o =  0.5379  v =  0.0000  0.0000  0.0000  0.0000  0.0000  0.0000 -0.0000 -1.0000  0.0000 -0.0000      0.0000  0.0000  0.0000  0.0000  0.0000  0.0000  0.0000  0.0000  0.0000  0.0000
  o =  0.6106  v =  0.0000  0.0000  0.0000  0.0000  0.0000  0.0000  1.0000 -0.0000 -0.0025 -0.0000      0.0000  0.0000  0.0000  0.0000  0.0000  0.0000  0.0000  0.0000  0.0000  0.0000
  o =  0.6106  v =  0.0000  0.0000  0.0000  0.0000  0.0000  0.0000  0.0025  0.0000  1.0000  0.0000      0.0000  0.0000  0.0000  0.0000  0.0000  0.0000  0.0000  0.0000  0.0000  0.0000
  o =  0.6262  v =  0.0000  0.0000  0.0000  0.0000  0.0000  1.0000  0.0000  0.0000  0.0000  0.0000      0.0000  0.0000  0.0000  0.0000  0.0000  0.0000  0.0000  0.0000  0.0000  0.0000
  o =  0.9390  v =  1.0000 -0.0000  0.0000 -0.0000  0.0000  0.0000  0.0000  0.0000  0.0000  0.0000      0.0000  0.0000  0.0000  0.0000  0.0000  0.0000  0.0000  0.0000  0.0000  0.0000
  o =  0.9410  v =  0.0000  0.9832 -0.0000  0.1826  0.0000  0.0000  0.0000  0.0000  0.0000  0.0000      0.0000  0.0000  0.0000  0.0000  0.0000  0.0000  0.0000  0.0000  0.0000  0.0000
  o =  0.9410  v = -0.0000  0.1826  0.0000 -0.9832  0.0000  0.0000  0.0000  0.0000  0.0000  0.0000      0.0000  0.0000  0.0000  0.0000  0.0000  0.0000  0.0000  0.0000  0.0000  0.0000
  o =  0.9769  v = -0.0000 -0.0000 -1.0000 -0.0000  0.0000 -0.0000 -0.0000 -0.0000 -0.0000 -0.0000      0.0000  0.0000  0.0000  0.0000  0.0000  0.0000  0.0000  0.0000  0.0000  0.0000
  o =  1.1115  v = -0.0000 -0.0000  0.0000  0.0000  1.0000  0.0000  0.0000  0.0000  0.0000  0.0000      0.0000  0.0000  0.0000  0.0000  0.0000  0.0000  0.0000  0.0000  0.0000  0.0000

atom =   4  type =  3  l = 0

 onsite density matrix

spin component  1

  0.8003

spin component  2

  0.8156

 occupancies and eigenvectors

  o =  0.8003  v =  1.0000  0.0000      0.0000  0.0000
  o =  0.8156  v =  0.0000  1.0000      0.0000  0.0000

atom =   5  type =  3  l = 0

 onsite density matrix

spin component  1

  0.8003

spin component  2

  0.8156

 occupancies and eigenvectors

  o =  0.8003  v =  1.0000  0.0000      0.0000  0.0000
  o =  0.8156  v =  0.0000  1.0000      0.0000  0.0000

atom =   6  type =  3  l = 0

 onsite density matrix

spin component  1

  0.7957

spin component  2

  0.8132

 occupancies and eigenvectors

  o =  0.7957  v =  1.0000  0.0000      0.0000  0.0000
  o =  0.8132  v =  0.0000  1.0000      0.0000  0.0000

atom =   7  type =  3  l = 0

 onsite density matrix

spin component  1

  0.7957

spin component  2

  0.8132

 occupancies and eigenvectors

  o =  0.7957  v =  1.0000  0.0000      0.0000  0.0000
[...]
 -0.000   0.000  -0.000  -0.000   0.000  -0.000  -0.000   0.000
  0.000  -0.000   0.000  -0.000   0.000   0.000  -0.000   0.000
  0.000  -0.000   0.005   0.000  -0.000  -0.004   0.000  -0.000
  0.005   0.004  -0.000   0.012  -0.000  -0.000  -0.001  -0.000
  0.000  -0.000  -0.000   0.000   0.005  -0.000   0.000  -0.004
 -0.000   0.000  -0.000  -0.000   0.000  -0.000  -0.000   0.000
  0.000  -0.000   0.002   0.000  -0.000  -0.001  -0.000   0.000
  0.000  -0.000   0.000   0.000   0.000   0.000  -0.000   0.000
  0.000  -0.000   0.008  -0.000   0.000  -0.005   0.000  -0.000
 -0.006  -0.002   0.000   0.012   0.000  -0.000  -0.008  -0.000
  0.000  -0.000   0.000  -0.000   0.008  -0.000   0.000  -0.005
  0.000  -0.000   0.000   0.000  -0.000  -0.000  -0.000   0.000
 -0.000   0.000   0.000  -0.000  -0.002  -0.000   0.000   0.001
  0.000  -0.000   0.002   0.000  -0.000  -0.001  -0.000   0.000
  0.000  -0.000   0.000   0.000   0.000   0.000  -0.000   0.000
  0.000  -0.000   0.007  -0.000   0.000  -0.005   0.000  -0.000
 -0.005  -0.002   0.000   0.011   0.000  -0.000  -0.008  -0.000
  0.000  -0.000   0.000  -0.000   0.007  -0.000   0.000  -0.005
  0.000  -0.000   0.000   0.000  -0.000  -0.000  -0.000   0.000
 -0.000   0.000   0.000  -0.000  -0.002  -0.000   0.000   0.001
 total augmentation occupancy for first ion, spin component:           1
  1.993   0.030   0.000   0.001   0.000   0.000   0.001   0.000  -0.000   0.000   0.008   0.000  -0.000   0.000  -0.000  -0.014
  0.030   0.530   0.000   0.008   0.000  -0.000  -0.003  -0.000   0.000   0.000   0.337   0.000  -0.000   0.000  -0.000  -0.162
  0.000   0.000   2.026   0.000   0.000  -0.002  -0.000  -0.000  -0.000  -0.063   0.000   0.000   0.000   0.000   0.027  -0.000
  0.001   0.008   0.000   2.034   0.000  -0.000  -0.013  -0.000   0.000   0.000   0.151   0.000  -0.000   0.000  -0.000  -0.057
  0.000   0.000   0.000   0.000   2.026  -0.000  -0.000  -0.002  -0.000   0.000   0.000  -0.063  -0.000   0.000   0.000  -0.000
  0.000  -0.000  -0.002  -0.000  -0.000   0.011   0.000  -0.000   0.000   0.030  -0.000  -0.000  -0.000  -0.000  -0.015   0.000
  0.001  -0.003  -0.000  -0.013  -0.000   0.000   0.018   0.000  -0.000  -0.000  -0.079  -0.000  -0.000   0.000   0.000   0.037
  0.000  -0.000  -0.000  -0.000  -0.002  -0.000   0.000   0.011   0.000   0.000  -0.000   0.030   0.000  -0.000   0.000   0.000
 -0.000   0.000  -0.000   0.000  -0.000   0.000  -0.000   0.000   1.088   0.000   0.000   0.000  -0.000  -0.506  -0.000   0.000
  0.000   0.000  -0.063   0.000  -0.000   0.030  -0.000  -0.000   0.000   1.452   0.000   0.000  -0.000  -0.000  -0.678  -0.000
  0.008   0.337   0.000   0.151   0.000  -0.000  -0.079  -0.000   0.000   0.000   2.162   0.000   0.000  -0.000  -0.000  -1.022
  0.000   0.000  -0.000   0.000  -0.063  -0.000  -0.000   0.030   0.000   0.000   0.000   1.452   0.000  -0.000  -0.000  -0.000
 -0.000  -0.000   0.000  -0.000  -0.000  -0.000  -0.000   0.000   0.000  -0.000  -0.000   0.000   1.021   0.000   0.000   0.000
 -0.000   0.000   0.000   0.000   0.000  -0.000   0.000  -0.000  -0.506  -0.000  -0.000  -0.000  -0.000   0.237   0.000  -0.000
 -0.000  -0.000   0.027  -0.000  -0.000  -0.015   0.000  -0.000  -0.000  -0.678  -0.000  -0.000   0.000   0.000   0.319   0.000
 -0.014  -0.162  -0.000  -0.057  -0.000   0.000   0.037   0.000   0.000  -0.000  -1.022  -0.000  -0.000  -0.000   0.000   0.490
 -0.000  -0.000  -0.000  -0.000   0.027  -0.000   0.000  -0.015  -0.000  -0.000  -0.000  -0.678  -0.000   0.000  -0.000   0.000
  0.000   0.000  -0.000   0.000   0.000   0.000   0.000  -0.000   0.000   0.000   0.000  -0.000  -0.461  -0.000  -0.000  -0.000
 -0.000   0.000   0.019  -0.000   0.000  -0.003   0.000   0.000   0.000   0.152  -0.000   0.000  -0.000  -0.000  -0.070   0.000
  0.000  -0.000   0.000   0.000   0.000  -0.000  -0.000  -0.000   0.023  -0.000   0.000  -0.000   0.000  -0.006   0.000   0.000
 -0.000   0.000   0.030   0.000   0.000  -0.014  -0.000   0.000  -0.000  -0.117   0.000   0.000  -0.000   0.000   0.059  -0.000
 -0.027   0.208   0.000   0.035   0.000  -0.000  -0.038  -0.000   0.000   0.000   0.682   0.000   0.000  -0.000  -0.000  -0.325
 -0.000   0.000  -0.000   0.000   0.030  -0.000  -0.000  -0.014  -0.000   0.000   0.000  -0.117   0.000   0.000  -0.000  -0.000
  0.000   0.000  -0.000  -0.000   0.000   0.000   0.000  -0.000   0.000   0.000   0.000  -0.000  -0.377  -0.000  -0.000   0.000
 -0.000   0.000  -0.000   0.000  -0.019  -0.000   0.000   0.003  -0.000   0.000   0.000  -0.152  -0.000   0.000  -0.000  -0.000
 -0.000  -0.000  -0.023   0.000   0.000   0.004  -0.000  -0.000  -0.000  -0.206   0.000   0.000   0.000   0.000   0.094  -0.000
  0.000   0.000  -0.000   0.000  -0.000   0.000   0.000   0.000  -0.044   0.000   0.000   0.000   0.000   0.013  -0.000   0.000
  0.000  -0.000  -0.044  -0.000   0.000   0.019   0.000   0.000   0.000   0.149  -0.000  -0.000   0.000  -0.000  -0.075   0.000
  0.034  -0.270  -0.000  -0.062  -0.000   0.000   0.051   0.000   0.000  -0.000  -0.902  -0.000   0.000   0.000   0.000   0.426
  0.000  -0.000  -0.000  -0.000  -0.044   0.000   0.000   0.019   0.000  -0.000  -0.000   0.149  -0.000  -0.000  -0.000   0.000
  0.000   0.000   0.000  -0.000  -0.000  -0.000   0.000   0.000   0.000  -0.000   0.000   0.000   0.496  -0.000   0.000   0.000
  0.000   0.000   0.000   0.000   0.023  -0.000  -0.000  -0.004   0.000   0.000  -0.000   0.206   0.000  -0.000  -0.000   0.000
 total augmentation occupancy for first ion, spin component:           2
 -0.000  -0.002   0.000   0.000   0.000   0.000   0.000   0.000   0.000   0.000   0.001   0.000   0.000  -0.000  -0.000  -0.001
 -0.002   0.007   0.000   0.002   0.000  -0.000  -0.001  -0.000   0.000   0.000   0.010   0.000   0.000   0.000  -0.000  -0.004
  0.000   0.000  -0.000   0.000   0.000   0.000  -0.000  -0.000   0.000   0.001   0.000   0.000  -0.000  -0.000  -0.001  -0.000
  0.000   0.002   0.000   0.000   0.000  -0.000  -0.000  -0.000  -0.000   0.000   0.004   0.000   0.000   0.000  -0.000  -0.001
  0.000   0.000   0.000   0.000  -0.000  -0.000  -0.000   0.000   0.000   0.000   0.000   0.001   0.000  -0.000   0.000  -0.000
  0.000  -0.000   0.000  -0.000   0.000  -0.000   0.000   0.000  -0.000  -0.000  -0.000  -0.000   0.000   0.000   0.000   0.000
  0.000  -0.001  -0.000  -0.000  -0.000   0.000   0.000   0.000   0.000  -0.000  -0.003  -0.000   0.000   0.000   0.000   0.001
  0.000  -0.000   0.000  -0.000   0.000   0.000   0.000  -0.000  -0.000   0.000  -0.000  -0.000  -0.000   0.000   0.000   0.000
  0.000   0.000   0.000  -0.000   0.000  -0.000   0.000  -0.000  -0.009  -0.000   0.000  -0.000  -0.000   0.004   0.000   0.000
  0.000   0.000   0.001   0.000   0.000  -0.000  -0.000   0.000  -0.000  -0.006   0.000   0.000   0.000   0.000   0.003  -0.000
  0.001   0.010   0.000   0.004   0.000  -0.000  -0.003  -0.000   0.000   0.000   0.031   0.000   0.000  -0.000  -0.000  -0.011
  0.000   0.000   0.000   0.000   0.001  -0.000  -0.000  -0.000  -0.000   0.000   0.000  -0.006  -0.000   0.000   0.000  -0.000
  0.000   0.000  -0.000   0.000   0.000   0.000   0.000  -0.000  -0.000   0.000   0.000  -0.000  -0.007   0.000  -0.000   0.000
  0.000   0.000  -0.000   0.000  -0.000   0.000   0.000   0.000   0.004   0.000  -0.000   0.000   0.000  -0.002  -0.000   0.000
 -0.000  -0.000  -0.001  -0.000   0.000   0.000   0.000   0.000   0.000   0.003  -0.000  -0.000  -0.000  -0.000  -0.001   0.000
 -0.001  -0.004  -0.000  -0.001  -0.000   0.000   0.001   0.000   0.000  -0.000  -0.011  -0.000   0.000   0.000   0.000   0.004
 -0.000  -0.000   0.000  -0.000  -0.001  -0.000   0.000   0.000   0.000   0.000  -0.000   0.003   0.000  -0.000   0.000   0.000
  0.000   0.000   0.000   0.000  -0.000  -0.000  -0.000   0.000  -0.000  -0.000   0.000   0.000   0.003  -0.000   0.000   0.000
  0.000   0.000  -0.000  -0.000   0.000   0.000   0.000  -0.000   0.000  -0.000   0.000  -0.000   0.000  -0.000   0.000  -0.000
  0.000   0.000   0.000   0.000   0.000  -0.000   0.000  -0.000   0.003   0.000   0.000   0.000  -0.000  -0.001  -0.000   0.000
  0.000   0.000   0.000  -0.000   0.000  -0.000  -0.000  -0.000  -0.000   0.000   0.000  -0.000  -0.000   0.000  -0.000  -0.000
  0.000   0.003  -0.000  -0.000  -0.000  -0.000  -0.001  -0.000  -0.000   0.000   0.010   0.000  -0.000   0.000  -0.000  -0.004
  0.000   0.000   0.000  -0.000   0.000  -0.000  -0.000  -0.000  -0.000  -0.000   0.000   0.000   0.000   0.000   0.000  -0.000
  0.000   0.000  -0.000   0.000   0.000   0.000   0.000  -0.000   0.000  -0.000   0.000   0.000   0.001  -0.000   0.000   0.000
  0.000  -0.000  -0.000   0.000   0.000  -0.000  -0.000  -0.000  -0.000   0.000  -0.000   0.000   0.000   0.000   0.000   0.000
  0.000  -0.000   0.000  -0.000  -0.000   0.000  -0.000   0.000  -0.000   0.001  -0.000   0.000  -0.000   0.000  -0.000   0.000
  0.000   0.000  -0.000   0.000  -0.000   0.000   0.000   0.000  -0.004  -0.000   0.000  -0.000   0.000   0.002   0.000   0.000
  0.000  -0.000  -0.000  -0.000  -0.000   0.000   0.000   0.000   0.000  -0.000  -0.000   0.000  -0.000  -0.000   0.000   0.000
  0.000  -0.007  -0.000  -0.001  -0.000   0.000   0.001   0.000  -0.000  -0.000  -0.021  -0.000   0.000  -0.000   0.000   0.007
  0.000  -0.000  -0.000  -0.000  -0.000   0.000   0.000   0.000   0.000   0.000  -0.000  -0.000   0.000  -0.000   0.000   0.000
 -0.000   0.000   0.000   0.000  -0.000  -0.000   0.000   0.000  -0.000   0.000   0.000  -0.000  -0.002  -0.000  -0.000   0.000
  0.000  -0.000   0.000   0.000  -0.000  -0.000   0.000  -0.000   0.000   0.000   0.000  -0.001  -0.000  -0.000  -0.000  -0.000


------------------------ aborting loop because EDIFF is reached ----------------------------------------





 total charge

# of ion       s       p       d       f       tot
--------------------------------------------------
    1        2.006   5.694   0.590   0.225   8.515
    2        2.006   5.694   0.590   0.225   8.515
    3        0.240   6.234   7.916   0.000  14.390
    4        1.560   3.398   0.000   0.000   4.958
    5        1.560   3.398   0.000   0.000   4.958
    6        1.555   3.492   0.000   0.000   5.047
    7        1.555   3.492   0.000   0.000   5.047
--------------------------------------------------
tot         10.484  31.402   9.096   0.449  51.431



 magnetization (x)

# of ion       s       p       d       f       tot
--------------------------------------------------
    1        0.001   0.000   0.001  -0.010  -0.008
    2        0.001   0.000   0.001  -0.010  -0.008
    3        0.014   0.012   1.769   0.000   1.795
    4        0.003   0.034   0.000   0.000   0.037
    5        0.003   0.034   0.000   0.000   0.037
    6        0.009   0.077   0.000   0.000   0.086
    7        0.009   0.077   0.000   0.000   0.086
--------------------------------------------------
tot          0.040   0.235   1.772  -0.020   2.026

    CHARGE:  cpu time    0.1343: real time    0.1343
    FORLOC:  cpu time    0.0007: real time    0.0007
    FORNL :  cpu time    0.4289: real time    0.4290
    STRESS:  cpu time    3.3105: real time    3.3105
    FORCOR:  cpu time    0.0159: real time    0.0159
    FORHAR:  cpu time    0.0023: real time    0.0023
    MIXING:  cpu time    0.0010: real time    0.0010
    OFIELD:  cpu time    0.0000: real time    0.0000

  FORCE on cell =-STRESS in cart. coord.  units (eV):
  Direction    XX          YY          ZZ          XY          YZ          ZX
  --------------------------------------------------------------------------------------
  Alpha Z   283.46269   283.46269   283.46269
  Ewald   -1248.20260 -1248.20260 -2195.99435     0.00000     0.00000     0.00000
  Hartree  1060.20401  1060.20401   161.25127     0.00001    -0.00002    -0.00002
  E(xc)    -318.11658  -318.11658  -317.63997    -0.00000     0.00000     0.00000
  Local   -1119.90102 -1119.90102   722.90153     0.00001    -0.00008    -0.00008
  n-local   127.86941   125.01381   114.24595    -0.00351    -0.03343     0.03528
  augment   121.08690   121.08690   120.80340     0.00003     0.00050     0.00049
  Kinetic  1087.72190  1103.01997  1111.14757     0.00030     0.07786    -0.08327
  Fock        0.00000     0.00000     0.00000     0.00000     0.00000     0.00000
  -------------------------------------------------------------------------------------
  Total       0.34596     0.34596     0.17810    -0.00000     0.00000     0.00000
  in kB       5.74997     5.74997     2.96009    -0.00000     0.00000     0.00000
  external pressure =        4.82 kB  Pullay stress =        0.00 kB


 VOLUME and BASIS-vectors are now :
 -----------------------------------------------------------------------------
  energy-cutoff  :      520.00
  volume of cell :       96.40
      direct lattice vectors                 reciprocal lattice vectors
     3.924090000  0.000000000  0.000000000     0.254836153 -0.000000000  0.079869844
     0.000000000  3.924090000  0.000000000    -0.000000000  0.254836153  0.079869844
    -1.962045000 -1.962045000  6.260185000     0.000000000  0.000000000  0.159739688

  length of vectors
     3.924090000  3.924090000  6.847565801     0.267059276  0.267059276  0.159739688


 FORCES acting on ions
    electron-ion (+dipol)            ewald-force                    non-local-force                 convergence-correction
 -----------------------------------------------------------------------------------------------
   -.170E-06 -.170E-06 0.339E+03   0.418E-11 0.418E-11 -.340E+03   0.347E-16 0.356E-16 0.214E+00   -.314E-06 -.314E-06 -.571E-01
   0.170E-06 0.170E-06 -.339E+03   -.417E-11 -.418E-11 0.340E+03   -.347E-16 -.364E-16 -.214E+00   0.314E-06 0.314E-06 0.571E-01
   -.361E-13 0.117E-15 -.683E-13   0.368E-13 -.228E-13 -.284E-13   0.000E+00 0.000E+00 0.000E+00   0.187E-13 0.558E-13 0.805E-13
   0.498E-04 0.498E-04 -.212E+03   0.407E-12 0.405E-12 0.212E+03   0.798E-16 0.798E-16 0.470E+00   -.926E-07 -.926E-07 0.366E-01
   -.498E-04 -.498E-04 0.212E+03   -.417E-12 -.401E-12 -.212E+03   -.798E-16 -.798E-16 -.470E+00   0.926E-07 0.926E-07 -.366E-01
   -.118E-12 -.677E-12 0.331E-11   -.252E-13 -.504E-14 -.497E-13   0.000E+00 -.847E-21 0.000E+00   -.153E-13 0.223E-14 -.228E-13
   0.266E-15 0.837E-13 0.126E-13   -.900E-16 0.271E-13 -.639E-13   -.847E-21 0.000E+00 0.000E+00   0.696E-14 -.105E-13 -.209E-13
 -----------------------------------------------------------------------------------------------
   0.963E-12 0.528E-11 0.532E-11   0.130E-13 0.475E-15 -.965E-17   -.847E-21 -.868E-18 0.000E+00   -.243E-13 0.316E-13 0.821E-13


 POSITION                                       TOTAL-FORCE (eV/Angst)
 -----------------------------------------------------------------------------------
      0.00000      0.00000      4.55082        -0.000000     -0.000000     -0.259928
      1.96204      1.96204      1.70937         0.000000      0.000000      0.259928
      0.00000      0.00000      0.00000         0.000000      0.000000     -0.000000
      0.00000      0.00000      2.24106        -0.000000     -0.000000     -0.101417
      1.96205      1.96205      4.01913         0.000000      0.000000      0.101417
      1.96204      0.00000      0.00000         0.000000     -0.000000     -0.000000
      0.00000      1.96204      0.00000        -0.000000     -0.000000     -0.000000
 -----------------------------------------------------------------------------------
    total drift:                                0.000000      0.000000      0.000000


--------------------------------------------------------------------------------------------------------



  FREE ENERGIE OF THE ION-ELECTRON SYSTEM (eV)
  ---------------------------------------------------
  free  energy   TOTEN  =       -50.67360198 eV

  energy  without entropy=      -50.67360198  energy(sigma->0) =      -50.67360198



--------------------------------------------------------------------------------------------------------


    POTLOK:  cpu time    0.8802: real time    0.8802


--------------------------------------------------------------------------------------------------------


 stress matrix after NEB project (eV)
      0.34596     -0.00000      0.00000
     -0.00000      0.34596      0.00000
      0.00000      0.00000      0.17810
  FORCES: max atom, RMS     0.259928    0.149138
  FORCE total and by dimension    0.394583    0.259928
  Stress total and by dimension    0.520662    0.345955
     LOOP+:  cpu time  107.3007: real time  107.3171
 -----------------------------------------------------------------------------
|                                                                             |
|           W    W    AA    RRRRR   N    N  II  N    N   GGGG   !!!           |
|           W    W   A  A   R    R  NN   N  II  NN   N  G    G  !!!           |
|           W    W  A    A  R    R  N N  N  II  N N  N  G       !!!           |
|           W WW W  AAAAAA  RRRRR   N  N N  II  N  N N  G  GGG   !            |
|           WW  WW  A    A  R   R   N   NN  II  N   NN  G    G                |
|           W    W  A    A  R    R  N    N  II  N    N   GGGG   !!!           |
|                                                                             |
|     Tetrahedron method does not include variations of the Fermi             |
|     occupations, so forces and stress will be inaccurate. We suggest        |
|     using a different smearing scheme ISMEAR = 1 or 2 for metals in         |
|     relaxations.                                                            |
|                                                                             |
 -----------------------------------------------------------------------------

    4ORBIT:  cpu time    0.0000: real time    0.0000



 total charge

# of ion       s       p       d       f       tot
--------------------------------------------------
    1        2.006   5.694   0.590   0.225   8.515
    2        2.006   5.694   0.590   0.225   8.515
    3        0.240   6.234   7.916   0.000  14.390
    4        1.560   3.398   0.000   0.000   4.958
    5        1.560   3.398   0.000   0.000   4.958
    6        1.555   3.492   0.000   0.000   5.047
    7        1.555   3.492   0.000   0.000   5.047
--------------------------------------------------
tot         10.484  31.402   9.096   0.449  51.431



 magnetization (x)

# of ion       s       p       d       f       tot
--------------------------------------------------
    1        0.001   0.000   0.001  -0.010  -0.008
    2        0.001   0.000   0.001  -0.010  -0.008
    3        0.014   0.012   1.769   0.000   1.795
    4        0.003   0.034   0.000   0.000   0.037
    5        0.003   0.034   0.000   0.000   0.037
    6        0.009   0.077   0.000   0.000   0.086
    7        0.009   0.077   0.000   0.000   0.086
--------------------------------------------------
tot          0.040   0.235   1.772  -0.020   2.026

 BZINTS: Fermi energy:    9.598834;   62.000000 electrons
         Band energy:-0.457295E+03;  BLOECHL correction:   -0.053348

 total amount of memory used by VASP MPI-rank0   163661. kBytes
=======================================================================

   base      :      30000. kBytes
   nonl-proj :     121946. kBytes
   fftplans  :        608. kBytes
   grid      :       5074. kBytes
   one-center:        688. kBytes
   wavefun   :       5345. kBytes

  
  
 General timing and accounting informations for this job:
 ========================================================
  
                  Total CPU time used (sec):      115.819
                            User time (sec):      110.860
                          System time (sec):        4.960
                         Elapsed time (sec):      115.003
  
                   Maximum memory used (kb):      142124.
                   Average memory used (kb):          N/A
  
                          Minor page faults:       212626
                          Major page faults:          443
                 Voluntary context switches:         1584
