   4   4   1   0
  0.1156046E+02  0.3577431E-09  0.3613205E-09  0.3577431E-09  0.5000000E-15
   1.0000000000000000E-004
  CAR 
 unknown system                          
     24.51586573    -66.98117864  301      7.16699344      1.00000000
    -66.981  0.0000E+00  0.0000E+00
    -66.676  0.0000E+00  0.0000E+00
    -66.371  0.0000E+00  0.0000E+00
    -66.066  0.0000E+00  0.0000E+00
    -65.761  0.0000E+00  0.0000E+00
    -65.456  0.0000E+00  0.0000E+00
    -65.151  0.0000E+00  0.0000E+00
    -64.846  0.0000E+00  0.0000E+00
    -64.541 -0.8055E-31 -0.2457E-31
    -64.236 -0.2107E-20 -0.6427E-21
    -63.931 -0.5116E-12 -0.1560E-12
    -63.626 -0.1194E-05 -0.3643E-06
    -63.321 -0.2501E-01 -0.7630E-02
    -63.016 -0.2471E+01 -0.7612E+00
    -62.711  0.5571E+02  0.1623E+02
    -62.406  0.2682E+02  0.2441E+02
    -62.101 -0.1344E+01  0.2400E+02
    -61.796 -0.2082E-02  0.2400E+02
    -61.491 -0.2122E-07  0.2400E+02
    -61.186 -0.4458E-15  0.2400E+02
    -60.881  0.0000E+00  0.2400E+02
    -60.576  0.0000E+00  0.2400E+02
    -60.271  0.0000E+00  0.2400E+02
    -59.966  0.0000E+00  0.2400E+02
    -59.661  0.0000E+00  0.2400E+02
    -59.356  0.0000E+00  0.2400E+02
    -59.051  0.0000E+00  0.2400E+02
    -58.746  0.0000E+00  0.2400E+02
    -58.441  0.0000E+00  0.2400E+02
    -58.136  0.0000E+00  0.2400E+02
    -57.831  0.0000E+00  0.2400E+02
    -57.526  0.0000E+00  0.2400E+02
    -57.221  0.0000E+00  0.2400E+02
    -56.917  0.0000E+00  0.2400E+02
    -56.612  0.0000E+00  0.2400E+02
    -56.307  0.0000E+00  0.2400E+02
    -56.002  0.0000E+00  0.2400E+02
    -55.697  0.0000E+00  0.2400E+02
    -55.392  0.0000E+00  0.2400E+02
    -55.087  0.0000E+00  0.2400E+02
    -54.782  0.0000E+00  0.2400E+02
    -54.477  0.0000E+00  0.2400E+02
    -54.172  0.0000E+00  0.2400E+02
    -53.867  0.0000E+00  0.2400E+02
    -53.562  0.0000E+00  0.2400E+02
    -53.257  0.0000E+00  0.2400E+02
    -52.952  0.0000E+00  0.2400E+02
    -52.647  0.0000E+00  0.2400E+02
    -52.342  0.0000E+00  0.2400E+02
    -52.037  0.0000E+00  0.2400E+02
    -51.732  0.0000E+00  0.2400E+02
    -51.427  0.0000E+00  0.2400E+02
    -51.122  0.0000E+00  0.2400E+02
    -50.817  0.0000E+00  0.2400E+02
    -50.512  0.0000E+00  0.2400E+02
    -50.207  0.0000E+00  0.2400E+02
    -49.902  0.0000E+00  0.2400E+02
    -49.597  0.0000E+00  0.2400E+02
    -49.292  0.0000E+00  0.2400E+02
    -48.987  0.0000E+00  0.2400E+02
    -48.682  0.0000E+00  0.2400E+02
    -48.377  0.0000E+00  0.2400E+02
    -48.072  0.0000E+00  0.2400E+02
    -47.767  0.0000E+00  0.2400E+02
    -47.462  0.0000E+00  0.2400E+02
    -47.157  0.0000E+00  0.2400E+02
    -46.852  0.0000E+00  0.2400E+02
    -46.547  0.0000E+00  0.2400E+02
    -46.242  0.0000E+00  0.2400E+02
    -45.937  0.0000E+00  0.2400E+02
    -45.632  0.0000E+00  0.2400E+02
    -45.327  0.0000E+00  0.2400E+02
    -45.022  0.0000E+00  0.2400E+02
    -44.717  0.0000E+00  0.2400E+02
    -44.412  0.0000E+00  0.2400E+02
    -44.107  0.0000E+00  0.2400E+02
    -43.802  0.0000E+00  0.2400E+02
    -43.497  0.0000E+00  0.2400E+02
    -43.192  0.0000E+00  0.2400E+02
    -42.887  0.0000E+00  0.2400E+02
    -42.582  0.0000E+00  0.2400E+02
    -42.277  0.0000E+00  0.2400E+02
    -41.972  0.0000E+00  0.2400E+02
    -41.667  0.0000E+00  0.2400E+02
    -41.362  0.0000E+00  0.2400E+02
    -41.057  0.0000E+00  0.2400E+02
    -40.752  0.0000E+00  0.2400E+02
    -40.447  0.0000E+00  0.2400E+02
    -40.142  0.0000E+00  0.2400E+02
    -39.837  0.0000E+00  0.2400E+02
    -39.532  0.0000E+00  0.2400E+02
    -39.227  0.0000E+00  0.2400E+02
    -38.922  0.0000E+00  0.2400E+02
    -38.617  0.0000E+00  0.2400E+02
    -38.312  0.0000E+00  0.2400E+02
    -38.007  0.0000E+00  0.2400E+02
    -37.702  0.0000E+00  0.2400E+02
    -37.397  0.0000E+00  0.2400E+02
    -37.092  0.0000E+00  0.2400E+02
    -36.787  0.0000E+00  0.2400E+02
    -36.482  0.0000E+00  0.2400E+02
    -36.177  0.0000E+00  0.2400E+02
    -35.872  0.0000E+00  0.2400E+02
    -35.567  0.0000E+00  0.2400E+02
    -35.262  0.0000E+00  0.2400E+02
    -34.957  0.0000E+00  0.2400E+02
    -34.652  0.0000E+00  0.2400E+02
    -34.347  0.0000E+00  0.2400E+02
    -34.042  0.0000E+00  0.2400E+02
    -33.737  0.0000E+00  0.2400E+02
    -33.432  0.0000E+00  0.2400E+02
    -33.127  0.0000E+00  0.2400E+02
    -32.822  0.0000E+00  0.2400E+02
    -32.517  0.0000E+00  0.2400E+02
    -32.212  0.0000E+00  0.2400E+02
    -31.907  0.0000E+00  0.2400E+02
    -31.602  0.0000E+00  0.2400E+02
    -31.297  0.0000E+00  0.2400E+02
    -30.992  0.0000E+00  0.2400E+02
    -30.687  0.0000E+00  0.2400E+02
    -30.382  0.0000E+00  0.2400E+02
    -30.077  0.0000E+00  0.2400E+02
    -29.772  0.0000E+00  0.2400E+02
    -29.467  0.0000E+00  0.2400E+02
    -29.162  0.0000E+00  0.2400E+02
    -28.857  0.0000E+00  0.2400E+02
    -28.552  0.0000E+00  0.2400E+02
    -28.247  0.0000E+00  0.2400E+02
    -27.942  0.0000E+00  0.2400E+02
    -27.637  0.0000E+00  0.2400E+02
    -27.332  0.0000E+00  0.2400E+02
    -27.027  0.0000E+00  0.2400E+02
    -26.722  0.0000E+00  0.2400E+02
    -26.417  0.0000E+00  0.2400E+02
    -26.112  0.0000E+00  0.2400E+02
    -25.808  0.0000E+00  0.2400E+02
    -25.503  0.0000E+00  0.2400E+02
    -25.198  0.0000E+00  0.2400E+02
    -24.893  0.0000E+00  0.2400E+02
    -24.588  0.0000E+00  0.2400E+02
    -24.283  0.0000E+00  0.2400E+02
    -23.978  0.0000E+00  0.2400E+02
    -23.673  0.0000E+00  0.2400E+02
    -23.368  0.0000E+00  0.2400E+02
    -23.063  0.0000E+00  0.2400E+02
    -22.758  0.0000E+00  0.2400E+02
    -22.453  0.0000E+00  0.2400E+02
    -22.148  0.0000E+00  0.2400E+02
    -21.843  0.0000E+00  0.2400E+02
    -21.538  0.0000E+00  0.2400E+02
    -21.233  0.0000E+00  0.2400E+02
    -20.928  0.0000E+00  0.2400E+02
    -20.623  0.0000E+00  0.2400E+02
    -20.318  0.0000E+00  0.2400E+02
    -20.013  0.0000E+00  0.2400E+02
    -19.708  0.0000E+00  0.2400E+02
    -19.403  0.0000E+00  0.2400E+02
    -19.098  0.0000E+00  0.2400E+02
    -18.793  0.0000E+00  0.2400E+02
    -18.488  0.0000E+00  0.2400E+02
    -18.183  0.0000E+00  0.2400E+02
    -17.878  0.0000E+00  0.2400E+02
    -17.573  0.0000E+00  0.2400E+02
    -17.268  0.0000E+00  0.2400E+02
    -16.963  0.0000E+00  0.2400E+02
    -16.658  0.0000E+00  0.2400E+02
    -16.353  0.0000E+00  0.2400E+02
    -16.048  0.0000E+00  0.2400E+02
    -15.743  0.0000E+00  0.2400E+02
    -15.438  0.0000E+00  0.2400E+02
    -15.133  0.0000E+00  0.2400E+02
    -14.828  0.0000E+00  0.2400E+02
    -14.523  0.0000E+00  0.2400E+02
    -14.218  0.0000E+00  0.2400E+02
    -13.913  0.0000E+00  0.2400E+02
    -13.608  0.0000E+00  0.2400E+02
    -13.303  0.0000E+00  0.2400E+02
    -12.998  0.0000E+00  0.2400E+02
    -12.693  0.0000E+00  0.2400E+02
    -12.388  0.0000E+00  0.2400E+02
    -12.083  0.0000E+00  0.2400E+02
    -11.778  0.0000E+00  0.2400E+02
    -11.473  0.0000E+00  0.2400E+02
    -11.168  0.0000E+00  0.2400E+02
    -10.863  0.0000E+00  0.2400E+02
    -10.558  0.0000E+00  0.2400E+02
    -10.253  0.0000E+00  0.2400E+02
     -9.948  0.0000E+00  0.2400E+02
     -9.643  0.0000E+00  0.2400E+02
     -9.338  0.0000E+00  0.2400E+02
     -9.033  0.0000E+00  0.2400E+02
     -8.728  0.0000E+00  0.2400E+02
     -8.423  0.0000E+00  0.2400E+02
     -8.118  0.0000E+00  0.2400E+02
     -7.813  0.0000E+00  0.2400E+02
     -7.508  0.0000E+00  0.2400E+02
     -7.203  0.0000E+00  0.2400E+02
     -6.898  0.0000E+00  0.2400E+02
     -6.593  0.0000E+00  0.2400E+02
     -6.288  0.0000E+00  0.2400E+02
     -5.983  0.0000E+00  0.2400E+02
     -5.678  0.0000E+00  0.2400E+02
     -5.373  0.0000E+00  0.2400E+02
     -5.068  0.0000E+00  0.2400E+02
     -4.763  0.0000E+00  0.2400E+02
     -4.458  0.0000E+00  0.2400E+02
     -4.153 -0.1307E-35  0.2400E+02
     -3.848 -0.5283E-25  0.2400E+02
     -3.543 -0.1926E-16  0.2400E+02
     -3.238 -0.6786E-10  0.2400E+02
     -2.933 -0.2441E-05  0.2400E+02
     -2.628 -0.9591E-03  0.2400E+02
     -2.323  0.1516E-01  0.2400E+02
     -2.018  0.1267E+00  0.2404E+02
     -1.713  0.2069E+00  0.2411E+02
     -1.408  0.2932E+00  0.2420E+02
     -1.103  0.3118E+00  0.2429E+02
     -0.798  0.4130E+00  0.2442E+02
     -0.493  0.3995E+00  0.2454E+02
     -0.188  0.5251E+00  0.2470E+02
      0.117  0.5373E+00  0.2486E+02
      0.422  0.6269E+00  0.2505E+02
      0.727  0.6896E+00  0.2526E+02
      1.032  0.8432E+00  0.2552E+02
      1.337  0.8991E+00  0.2580E+02
      1.642  0.1301E+01  0.2619E+02
      1.947  0.1844E+01  0.2675E+02
      2.252  0.3550E+01  0.2784E+02
      2.557  0.4824E+01  0.2931E+02
      2.862  0.6996E+01  0.3144E+02
      3.167  0.8774E+01  0.3412E+02
      3.472  0.8055E+01  0.3658E+02
      3.777  0.1032E+02  0.3972E+02
      4.082  0.1360E+02  0.4387E+02
      4.387  0.1524E+02  0.4852E+02
      4.692  0.1090E+02  0.5184E+02
      4.996  0.1342E+02  0.5593E+02
      5.301  0.1281E+02  0.5984E+02
      5.606  0.1714E+02  0.6507E+02
      5.911  0.4070E+01  0.6631E+02
      6.216  0.1456E+01  0.6675E+02
      6.521  0.1436E+01  0.6719E+02
      6.826  0.1162E+01  0.6755E+02
      7.131  0.1398E+01  0.6797E+02
      7.436  0.9723E+00  0.6827E+02
      7.741  0.1301E+01  0.6866E+02
      8.046  0.1110E+01  0.6900E+02
      8.351  0.8310E+00  0.6926E+02
      8.656  0.1262E+01  0.6964E+02
      8.961  0.9917E+00  0.6994E+02
      9.266  0.8243E+00  0.7020E+02
      9.571  0.9644E+00  0.7049E+02
      9.876  0.8863E+00  0.7076E+02
     10.181  0.6723E+00  0.7097E+02
     10.486  0.7252E+00  0.7119E+02
     10.791  0.6507E+00  0.7138E+02
     11.096  0.6095E+00  0.7157E+02
     11.401  0.9864E+00  0.7187E+02
     11.706  0.1256E+01  0.7225E+02
     12.011  0.1091E+01  0.7259E+02
     12.316  0.1135E+01  0.7293E+02
     12.621  0.1209E+01  0.7330E+02
     12.926  0.9884E+00  0.7360E+02
     13.231  0.1005E+01  0.7391E+02
     13.536  0.1042E+01  0.7423E+02
     13.841  0.9254E+00  0.7451E+02
     14.146  0.9600E+00  0.7480E+02
     14.451  0.8238E+00  0.7505E+02
     14.756  0.1082E+01  0.7538E+02
     15.061  0.1307E+01  0.7578E+02
     15.366  0.1458E+01  0.7623E+02
     15.671  0.1213E+01  0.7660E+02
     15.976  0.1211E+01  0.7697E+02
     16.281  0.1715E+01  0.7749E+02
     16.586  0.1213E+01  0.7786E+02
     16.891  0.1173E+01  0.7822E+02
     17.196  0.1316E+01  0.7862E+02
     17.501  0.1415E+01  0.7905E+02
     17.806  0.1134E+01  0.7940E+02
     18.111  0.7316E+00  0.7962E+02
     18.416  0.5320E+00  0.7978E+02
     18.721  0.3996E+00  0.7990E+02
     19.026  0.2206E+00  0.7997E+02
     19.331  0.3860E-01  0.7998E+02
     19.636  0.3676E-02  0.7998E+02
     19.941  0.4930E-01  0.8000E+02
     20.246  0.4776E-03  0.8000E+02
     20.551  0.3386E-02  0.8000E+02
     20.856 -0.7818E-04  0.8000E+02
     21.161 -0.4486E-05  0.8000E+02
     21.466 -0.3867E-09  0.8000E+02
     21.771 -0.2536E-15  0.8000E+02
     22.076  0.0000E+00  0.8000E+02
     22.381  0.0000E+00  0.8000E+02
     22.686  0.0000E+00  0.8000E+02
     22.991  0.0000E+00  0.8000E+02
     23.296  0.0000E+00  0.8000E+02
     23.601  0.0000E+00  0.8000E+02
     23.906  0.0000E+00  0.8000E+02
     24.211  0.0000E+00  0.8000E+02
     24.516  0.0000E+00  0.8000E+02
     24.51586573    -66.98117864  301      7.16699344      1.00000000
    -66.981  0.0000E+00  0.0000E+00  0.0000E+00  0.0000E+00  0.0000E+00  0.0000E+00  0.0000E+00  0.0000E+00  0.0000E+00
    -66.676  0.0000E+00  0.0000E+00  0.0000E+00  0.0000E+00  0.0000E+00  0.0000E+00  0.0000E+00  0.0000E+00  0.0000E+00
    -66.371  0.0000E+00  0.0000E+00  0.0000E+00  0.0000E+00  0.0000E+00  0.0000E+00  0.0000E+00  0.0000E+00  0.0000E+00
    -66.066  0.0000E+00  0.0000E+00  0.0000E+00  0.0000E+00  0.0000E+00  0.0000E+00  0.0000E+00  0.0000E+00  0.0000E+00
    -65.761  0.0000E+00  0.0000E+00  0.0000E+00  0.0000E+00  0.0000E+00  0.0000E+00  0.0000E+00  0.0000E+00  0.0000E+00
    -65.456  0.0000E+00  0.0000E+00  0.0000E+00  0.0000E+00  0.0000E+00  0.0000E+00  0.0000E+00  0.0000E+00  0.0000E+00
    -65.151  0.0000E+00  0.0000E+00  0.0000E+00  0.0000E+00  0.0000E+00  0.0000E+00  0.0000E+00  0.0000E+00  0.0000E+00
    -64.846  0.0000E+00  0.0000E+00  0.0000E+00  0.0000E+00  0.0000E+00  0.0000E+00  0.0000E+00  0.0000E+00  0.0000E+00
    -64.541 -0.3166E-37 -0.6442E-32 -0.6802E-32 -0.6802E-32 -0.1060E-37 -0.1060E-37 -0.5340E-38 -0.1166E-37 -0.4286E-38
    -64.236 -0.9045E-27 -0.1691E-21 -0.1777E-21 -0.1777E-21 -0.2961E-27 -0.2961E-27 -0.1475E-27 -0.3266E-27 -0.1186E-27
    -63.931 -0.2366E-18 -0.4126E-13 -0.4303E-13 -0.4303E-13 -0.7706E-19 -0.7706E-19 -0.3810E-19 -0.8529E-19 -0.3089E-19
    -63.626 -0.5765E-12 -0.9702E-07 -0.1002E-06 -0.1002E-06 -0.1927E-12 -0.1927E-12 -0.9560E-13 -0.2144E-12 -0.7890E-13
    -63.321 -0.1168E-07 -0.2052E-02 -0.2089E-02 -0.2089E-02 -0.4247E-08 -0.4247E-08 -0.2173E-08 -0.4763E-08 -0.1856E-08
    -63.016 -0.8775E-06 -0.2056E+00 -0.2050E+00 -0.2050E+00 -0.4146E-06 -0.4146E-06 -0.2358E-06 -0.4724E-06 -0.2161E-06
    -62.711  0.2084E-04  0.4622E+01  0.4629E+01  0.4629E+01  0.9326E-05  0.9326E-05  0.5210E-05  0.1059E-04  0.4720E-05
    -62.406  0.7079E-05  0.2234E+01  0.2226E+01  0.2226E+01  0.4093E-05  0.4093E-05  0.2509E-05  0.4697E-05  0.2389E-05
    -62.101 -0.3549E-06 -0.1119E+00 -0.1116E+00 -0.1116E+00 -0.2047E-06 -0.2047E-06 -0.1254E-06 -0.2348E-06 -0.1194E-06
    -61.796 -0.3694E-09 -0.1726E-03 -0.1733E-03 -0.1733E-03 -0.2755E-09 -0.2755E-09 -0.1806E-09 -0.3181E-09 -0.1793E-09
    -61.491 -0.2792E-14 -0.1747E-08 -0.1773E-08 -0.1773E-08 -0.2498E-14 -0.2498E-14 -0.1679E-14 -0.2892E-14 -0.1717E-14
    -61.186 -0.9578E-23 -0.3319E-16 -0.3901E-16 -0.3901E-16 -0.1769E-22 -0.1769E-22 -0.7128E-23 -0.2047E-22 -0.8828E-23
    -60.881  0.0000E+00  0.0000E+00  0.0000E+00  0.0000E+00  0.0000E+00  0.0000E+00  0.0000E+00  0.0000E+00  0.0000E+00
    -60.576  0.0000E+00  0.0000E+00  0.0000E+00  0.0000E+00  0.0000E+00  0.0000E+00  0.0000E+00  0.0000E+00  0.0000E+00
    -60.271  0.0000E+00  0.0000E+00  0.0000E+00  0.0000E+00  0.0000E+00  0.0000E+00  0.0000E+00  0.0000E+00  0.0000E+00
    -59.966  0.0000E+00  0.0000E+00  0.0000E+00  0.0000E+00  0.0000E+00  0.0000E+00  0.0000E+00  0.0000E+00  0.0000E+00
    -59.661  0.0000E+00  0.0000E+00  0.0000E+00  0.0000E+00  0.0000E+00  0.0000E+00  0.0000E+00  0.0000E+00  0.0000E+00
    -59.356  0.0000E+00  0.0000E+00  0.0000E+00  0.0000E+00  0.0000E+00  0.0000E+00  0.0000E+00  0.0000E+00  0.0000E+00
    -59.051  0.0000E+00  0.0000E+00  0.0000E+00  0.0000E+00  0.0000E+00  0.0000E+00  0.0000E+00  0.0000E+00  0.0000E+00
    -58.746  0.0000E+00  0.0000E+00  0.0000E+00  0.0000E+00  0.0000E+00  0.0000E+00  0.0000E+00  0.0000E+00  0.0000E+00
    -58.441  0.0000E+00  0.0000E+00  0.0000E+00  0.0000E+00  0.0000E+00  0.0000E+00  0.0000E+00  0.0000E+00  0.0000E+00
    -58.136  0.0000E+00  0.0000E+00  0.0000E+00  0.0000E+00  0.0000E+00  0.0000E+00  0.0000E+00  0.0000E+00  0.0000E+00
    -57.831  0.0000E+00  0.0000E+00  0.0000E+00  0.0000E+00  0.0000E+00  0.0000E+00  0.0000E+00  0.0000E+00  0.0000E+00
    -57.526  0.0000E+00  0.0000E+00  0.0000E+00  0.0000E+00  0.0000E+00  0.0000E+00  0.0000E+00  0.0000E+00  0.0000E+00
    -57.221  0.0000E+00  0.0000E+00  0.0000E+00  0.0000E+00  0.0000E+00  0.0000E+00  0.0000E+00  0.0000E+00  0.0000E+00
    -56.917  0.0000E+00  0.0000E+00  0.0000E+00  0.0000E+00  0.0000E+00  0.0000E+00  0.0000E+00  0.0000E+00  0.0000E+00
    -56.612  0.0000E+00  0.0000E+00  0.0000E+00  0.0000E+00  0.0000E+00  0.0000E+00  0.0000E+00  0.0000E+00  0.0000E+00
    -56.307  0.0000E+00  0.0000E+00  0.0000E+00  0.0000E+00  0.0000E+00  0.0000E+00  0.0000E+00  0.0000E+00  0.0000E+00
    -56.002  0.0000E+00  0.0000E+00  0.0000E+00  0.0000E+00  0.0000E+00  0.0000E+00  0.0000E+00  0.0000E+00  0.0000E+00
    -55.697  0.0000E+00  0.0000E+00  0.0000E+00  0.0000E+00  0.0000E+00  0.0000E+00  0.0000E+00  0.0000E+00  0.0000E+00
    -55.392  0.0000E+00  0.0000E+00  0.0000E+00  0.0000E+00  0.0000E+00  0.0000E+00  0.0000E+00  0.0000E+00  0.0000E+00
    -55.087  0.0000E+00  0.0000E+00  0.0000E+00  0.0000E+00  0.0000E+00  0.0000E+00  0.0000E+00  0.0000E+00  0.0000E+00
    -54.782  0.0000E+00  0.0000E+00  0.0000E+00  0.0000E+00  0.0000E+00  0.0000E+00  0.0000E+00  0.0000E+00  0.0000E+00
    -54.477  0.0000E+00  0.0000E+00  0.0000E+00  0.0000E+00  0.0000E+00  0.0000E+00  0.0000E+00  0.0000E+00  0.0000E+00
    -54.172  0.0000E+00  0.0000E+00  0.0000E+00  0.0000E+00  0.0000E+00  0.0000E+00  0.0000E+00  0.0000E+00  0.0000E+00
    -53.867  0.0000E+00  0.0000E+00  0.0000E+00  0.0000E+00  0.0000E+00  0.0000E+00  0.0000E+00  0.0000E+00  0.0000E+00
    -53.562  0.0000E+00  0.0000E+00  0.0000E+00  0.0000E+00  0.0000E+00  0.0000E+00  0.0000E+00  0.0000E+00  0.0000E+00
    -53.257  0.0000E+00  0.0000E+00  0.0000E+00  0.0000E+00  0.0000E+00  0.0000E+00  0.0000E+00  0.0000E+00  0.0000E+00
    -52.952  0.0000E+00  0.0000E+00  0.0000E+00  0.0000E+00  0.0000E+00  0.0000E+00  0.0000E+00  0.0000E+00  0.0000E+00
    -52.647  0.0000E+00  0.0000E+00  0.0000E+00  0.0000E+00  0.0000E+00  0.0000E+00  0.0000E+00  0.0000E+00  0.0000E+00
    -52.342  0.0000E+00  0.0000E+00  0.0000E+00  0.0000E+00  0.0000E+00  0.0000E+00  0.0000E+00  0.0000E+00  0.0000E+00
    -52.037  0.0000E+00  0.0000E+00  0.0000E+00  0.0000E+00  0.0000E+00  0.0000E+00  0.0000E+00  0.0000E+00  0.0000E+00
    -51.732  0.0000E+00  0.0000E+00  0.0000E+00  0.0000E+00  0.0000E+00  0.0000E+00  0.0000E+00  0.0000E+00  0.0000E+00
    -51.427  0.0000E+00  0.0000E+00  0.0000E+00  0.0000E+00  0.0000E+00  0.0000E+00  0.0000E+00  0.0000E+00  0.0000E+00
    -51.122  0.0000E+00  0.0000E+00  0.0000E+00  0.0000E+00  0.0000E+00  0.0000E+00  0.0000E+00  0.0000E+00  0.0000E+00
    -50.817  0.0000E+00  0.0000E+00  0.0000E+00  0.0000E+00  0.0000E+00  0.0000E+00  0.0000E+00  0.0000E+00  0.0000E+00
    -50.512  0.0000E+00  0.0000E+00  0.0000E+00  0.0000E+00  0.0000E+00  0.0000E+00  0.0000E+00  0.0000E+00  0.0000E+00
    -50.207  0.0000E+00  0.0000E+00  0.0000E+00  0.0000E+00  0.0000E+00  0.0000E+00  0.0000E+00  0.0000E+00  0.0000E+00
    -49.902  0.0000E+00  0.0000E+00  0.0000E+00  0.0000E+00  0.0000E+00  0.0000E+00  0.0000E+00  0.0000E+00  0.0000E+00
    -49.597  0.0000E+00  0.0000E+00  0.0000E+00  0.0000E+00  0.0000E+00  0.0000E+00  0.0000E+00  0.0000E+00  0.0000E+00
    -49.292  0.0000E+00  0.0000E+00  0.0000E+00  0.0000E+00  0.0000E+00  0.0000E+00  0.0000E+00  0.0000E+00  0.0000E+00
    -48.987  0.0000E+00  0.0000E+00  0.0000E+00  0.0000E+00  0.0000E+00  0.0000E+00  0.0000E+00  0.0000E+00  0.0000E+00
    -48.682  0.0000E+00  0.0000E+00  0.0000E+00  0.0000E+00  0.0000E+00  0.0000E+00  0.0000E+00  0.0000E+00  0.0000E+00
    -48.377  0.0000E+00  0.0000E+00  0.0000E+00  0.0000E+00  0.0000E+00  0.0000E+00  0.0000E+00  0.0000E+00  0.0000E+00
    -48.072  0.0000E+00  0.0000E+00  0.0000E+00  0.0000E+00  0.0000E+00  0.0000E+00  0.0000E+00  0.0000E+00  0.0000E+00
    -47.767  0.0000E+00  0.0000E+00  0.0000E+00  0.0000E+00  0.0000E+00  0.0000E+00  0.0000E+00  0.0000E+00  0.0000E+00
    -47.462  0.0000E+00  0.0000E+00  0.0000E+00  0.0000E+00  0.0000E+00  0.0000E+00  0.0000E+00  0.0000E+00  0.0000E+00
    -47.157  0.0000E+00  0.0000E+00  0.0000E+00  0.0000E+00  0.0000E+00  0.0000E+00  0.0000E+00  0.0000E+00  0.0000E+00
    -46.852  0.0000E+00  0.0000E+00  0.0000E+00  0.0000E+00  0.0000E+00  0.0000E+00  0.0000E+00  0.0000E+00  0.0000E+00
    -46.547  0.0000E+00  0.0000E+00  0.0000E+00  0.0000E+00  0.0000E+00  0.0000E+00  0.0000E+00  0.0000E+00  0.0000E+00
    -46.242  0.0000E+00  0.0000E+00  0.0000E+00  0.0000E+00  0.0000E+00  0.0000E+00  0.0000E+00  0.0000E+00  0.0000E+00
    -45.937  0.0000E+00  0.0000E+00  0.0000E+00  0.0000E+00  0.0000E+00  0.0000E+00  0.0000E+00  0.0000E+00  0.0000E+00
    -45.632  0.0000E+00  0.0000E+00  0.0000E+00  0.0000E+00  0.0000E+00  0.0000E+00  0.0000E+00  0.0000E+00  0.0000E+00
    -45.327  0.0000E+00  0.0000E+00  0.0000E+00  0.0000E+00  0.0000E+00  0.0000E+00  0.0000E+00  0.0000E+00  0.0000E+00
    -45.022  0.0000E+00  0.0000E+00  0.0000E+00  0.0000E+00  0.0000E+00  0.0000E+00  0.0000E+00  0.0000E+00  0.0000E+00
    -44.717  0.0000E+00  0.0000E+00  0.0000E+00  0.0000E+00  0.0000E+00  0.0000E+00  0.0000E+00  0.0000E+00  0.0000E+00
    -44.412  0.0000E+00  0.0000E+00  0.0000E+00  0.0000E+00  0.0000E+00  0.0000E+00  0.0000E+00  0.0000E+00  0.0000E+00
    -44.107  0.0000E+00  0.0000E+00  0.0000E+00  0.0000E+00  0.0000E+00  0.0000E+00  0.0000E+00  0.0000E+00  0.0000E+00
    -43.802  0.0000E+00  0.0000E+00  0.0000E+00  0.0000E+00  0.0000E+00  0.0000E+00  0.0000E+00  0.0000E+00  0.0000E+00
    -43.497  0.0000E+00  0.0000E+00  0.0000E+00  0.0000E+00  0.0000E+00  0.0000E+00  0.0000E+00  0.0000E+00  0.0000E+00
    -43.192  0.0000E+00  0.0000E+00  0.0000E+00  0.0000E+00  0.0000E+00  0.0000E+00  0.0000E+00  0.0000E+00  0.0000E+00
    -42.887  0.0000E+00  0.0000E+00  0.0000E+00  0.0000E+00  0.0000E+00  0.0000E+00  0.0000E+00  0.0000E+00  0.0000E+00
    -42.582  0.0000E+00  0.0000E+00  0.0000E+00  0.0000E+00  0.0000E+00  0.0000E+00  0.0000E+00  0.0000E+00  0.0000E+00
    -42.277  0.0000E+00  0.0000E+00  0.0000E+00  0.0000E+00  0.0000E+00  0.0000E+00  0.0000E+00  0.0000E+00  0.0000E+00
    -41.972  0.0000E+00  0.0000E+00  0.0000E+00  0.0000E+00  0.0000E+00  0.0000E+00  0.0000E+00  0.0000E+00  0.0000E+00
    -41.667  0.0000E+00  0.0000E+00  0.0000E+00  0.0000E+00  0.0000E+00  0.0000E+00  0.0000E+00  0.0000E+00  0.0000E+00
    -41.362  0.0000E+00  0.0000E+00  0.0000E+00  0.0000E+00  0.0000E+00  0.0000E+00  0.0000E+00  0.0000E+00  0.0000E+00
    -41.057  0.0000E+00  0.0000E+00  0.0000E+00  0.0000E+00  0.0000E+00  0.0000E+00  0.0000E+00  0.0000E+00  0.0000E+00
    -40.752  0.0000E+00  0.0000E+00  0.0000E+00  0.0000E+00  0.0000E+00  0.0000E+00  0.0000E+00  0.0000E+00  0.0000E+00
    -40.447  0.0000E+00  0.0000E+00  0.0000E+00  0.0000E+00  0.0000E+00  0.0000E+00  0.0000E+00  0.0000E+00  0.0000E+00
    -40.142  0.0000E+00  0.0000E+00  0.0000E+00  0.0000E+00  0.0000E+00  0.0000E+00  0.0000E+00  0.0000E+00  0.0000E+00
    -39.837  0.0000E+00  0.0000E+00  0.0000E+00  0.0000E+00  0.0000E+00  0.0000E+00  0.0000E+00  0.0000E+00  0.0000E+00
    -39.532  0.0000E+00  0.0000E+00  0.0000E+00  0.0000E+00  0.0000E+00  0.0000E+00  0.0000E+00  0.0000E+00  0.0000E+00
    -39.227  0.0000E+00  0.0000E+00  0.0000E+00  0.0000E+00  0.0000E+00  0.0000E+00  0.0000E+00  0.0000E+00  0.0000E+00
    -38.922  0.0000E+00  0.0000E+00  0.0000E+00  0.0000E+00  0.0000E+00  0.0000E+00  0.0000E+00  0.0000E+00  0.0000E+00
    -38.617  0.0000E+00  0.0000E+00  0.0000E+00  0.0000E+00  0.0000E+00  0.0000E+00  0.0000E+00  0.0000E+00  0.0000E+00
    -38.312  0.0000E+00  0.0000E+00  0.0000E+00  0.0000E+00  0.0000E+00  0.0000E+00  0.0000E+00  0.0000E+00  0.0000E+00
    -38.007  0.0000E+00  0.0000E+00  0.0000E+00  0.0000E+00  0.0000E+00  0.0000E+00  0.0000E+00  0.0000E+00  0.0000E+00
    -37.702  0.0000E+00  0.0000E+00  0.0000E+00  0.0000E+00  0.0000E+00  0.0000E+00  0.0000E+00  0.0000E+00  0.0000E+00
    -37.397  0.0000E+00  0.0000E+00  0.0000E+00  0.0000E+00  0.0000E+00  0.0000E+00  0.0000E+00  0.0000E+00  0.0000E+00
    -37.092  0.0000E+00  0.0000E+00  0.0000E+00  0.0000E+00  0.0000E+00  0.0000E+00  0.0000E+00  0.0000E+00  0.0000E+00
    -36.787  0.0000E+00  0.0000E+00  0.0000E+00  0.0000E+00  0.0000E+00  0.0000E+00  0.0000E+00  0.0000E+00  0.0000E+00
    -36.482  0.0000E+00  0.0000E+00  0.0000E+00  0.0000E+00  0.0000E+00  0.0000E+00  0.0000E+00  0.0000E+00  0.0000E+00
    -36.177  0.0000E+00  0.0000E+00  0.0000E+00  0.0000E+00  0.0000E+00  0.0000E+00  0.0000E+00  0.0000E+00  0.0000E+00
    -35.872  0.0000E+00  0.0000E+00  0.0000E+00  0.0000E+00  0.0000E+00  0.0000E+00  0.0000E+00  0.0000E+00  0.0000E+00
    -35.567  0.0000E+00  0.0000E+00  0.0000E+00  0.0000E+00  0.0000E+00  0.0000E+00  0.0000E+00  0.0000E+00  0.0000E+00
    -35.262  0.0000E+00  0.0000E+00  0.0000E+00  0.0000E+00  0.0000E+00  0.0000E+00  0.0000E+00  0.0000E+00  0.0000E+00
    -34.957  0.0000E+00  0.0000E+00  0.0000E+00  0.0000E+00  0.0000E+00  0.0000E+00  0.0000E+00  0.0000E+00  0.0000E+00
    -34.652  0.0000E+00  0.0000E+00  0.0000E+00  0.0000E+00  0.0000E+00  0.0000E+00  0.0000E+00  0.0000E+00  0.0000E+00
    -34.347  0.0000E+00  0.0000E+00  0.0000E+00  0.0000E+00  0.0000E+00  0.0000E+00  0.0000E+00  0.0000E+00  0.0000E+00
    -34.042  0.0000E+00  0.0000E+00  0.0000E+00  0.0000E+00  0.0000E+00  0.0000E+00  0.0000E+00  0.0000E+00  0.0000E+00
    -33.737  0.0000E+00  0.0000E+00  0.0000E+00  0.0000E+00  0.0000E+00  0.0000E+00  0.0000E+00  0.0000E+00  0.0000E+00
    -33.432  0.0000E+00  0.0000E+00  0.0000E+00  0.0000E+00  0.0000E+00  0.0000E+00  0.0000E+00  0.0000E+00  0.0000E+00
    -33.127  0.0000E+00  0.0000E+00  0.0000E+00  0.0000E+00  0.0000E+00  0.0000E+00  0.0000E+00  0.0000E+00  0.0000E+00
    -32.822  0.0000E+00  0.0000E+00  0.0000E+00  0.0000E+00  0.0000E+00  0.0000E+00  0.0000E+00  0.0000E+00  0.0000E+00
    -32.517  0.0000E+00  0.0000E+00  0.0000E+00  0.0000E+00  0.0000E+00  0.0000E+00  0.0000E+00  0.0000E+00  0.0000E+00
    -32.212  0.0000E+00  0.0000E+00  0.0000E+00  0.0000E+00  0.0000E+00  0.0000E+00  0.0000E+00  0.0000E+00  0.0000E+00
    -31.907  0.0000E+00  0.0000E+00  0.0000E+00  0.0000E+00  0.0000E+00  0.0000E+00  0.0000E+00  0.0000E+00  0.0000E+00
    -31.602  0.0000E+00  0.0000E+00  0.0000E+00  0.0000E+00  0.0000E+00  0.0000E+00  0.0000E+00  0.0000E+00  0.0000E+00
    -31.297  0.0000E+00  0.0000E+00  0.0000E+00  0.0000E+00  0.0000E+00  0.0000E+00  0.0000E+00  0.0000E+00  0.0000E+00
    -30.992  0.0000E+00  0.0000E+00  0.0000E+00  0.0000E+00  0.0000E+00  0.0000E+00  0.0000E+00  0.0000E+00  0.0000E+00
    -30.687  0.0000E+00  0.0000E+00  0.0000E+00  0.0000E+00  0.0000E+00  0.0000E+00  0.0000E+00  0.0000E+00  0.0000E+00
    -30.382  0.0000E+00  0.0000E+00  0.0000E+00  0.0000E+00  0.0000E+00  0.0000E+00  0.0000E+00  0.0000E+00  0.0000E+00
    -30.077  0.0000E+00  0.0000E+00  0.0000E+00  0.0000E+00  0.0000E+00  0.0000E+00  0.0000E+00  0.0000E+00  0.0000E+00
    -29.772  0.0000E+00  0.0000E+00  0.0000E+00  0.0000E+00  0.0000E+00  0.0000E+00  0.0000E+00  0.0000E+00  0.0000E+00
    -29.467  0.0000E+00  0.0000E+00  0.0000E+00  0.0000E+00  0.0000E+00  0.0000E+00  0.0000E+00  0.0000E+00  0.0000E+00
    -29.162  0.0000E+00  0.0000E+00  0.0000E+00  0.0000E+00  0.0000E+00  0.0000E+00  0.0000E+00  0.0000E+00  0.0000E+00
    -28.857  0.0000E+00  0.0000E+00  0.0000E+00  0.0000E+00  0.0000E+00  0.0000E+00  0.0000E+00  0.0000E+00  0.0000E+00
    -28.552  0.0000E+00  0.0000E+00  0.0000E+00  0.0000E+00  0.0000E+00  0.0000E+00  0.0000E+00  0.0000E+00  0.0000E+00
    -28.247  0.0000E+00  0.0000E+00  0.0000E+00  0.0000E+00  0.0000E+00  0.0000E+00  0.0000E+00  0.0000E+00  0.0000E+00
    -27.942  0.0000E+00  0.0000E+00  0.0000E+00  0.0000E+00  0.0000E+00  0.0000E+00  0.0000E+00  0.0000E+00  0.0000E+00
    -27.637  0.0000E+00  0.0000E+00  0.0000E+00  0.0000E+00  0.0000E+00  0.0000E+00  0.0000E+00  0.0000E+00  0.0000E+00
    -27.332  0.0000E+00  0.0000E+00  0.0000E+00  0.0000E+00  0.0000E+00  0.0000E+00  0.0000E+00  0.0000E+00  0.0000E+00
    -27.027  0.0000E+00  0.0000E+00  0.0000E+00  0.0000E+00  0.0000E+00  0.0000E+00  0.0000E+00  0.0000E+00  0.0000E+00
    -26.722  0.0000E+00  0.0000E+00  0.0000E+00  0.0000E+00  0.0000E+00  0.0000E+00  0.0000E+00  0.0000E+00  0.0000E+00
    -26.417  0.0000E+00  0.0000E+00  0.0000E+00  0.0000E+00  0.0000E+00  0.0000E+00  0.0000E+00  0.0000E+00  0.0000E+00
    -26.112  0.0000E+00  0.0000E+00  0.0000E+00  0.0000E+00  0.0000E+00  0.0000E+00  0.0000E+00  0.0000E+00  0.0000E+00
    -25.808  0.0000E+00  0.0000E+00  0.0000E+00  0.0000E+00  0.0000E+00  0.0000E+00  0.0000E+00  0.0000E+00  0.0000E+00
    -25.503  0.0000E+00  0.0000E+00  0.0000E+00  0.0000E+00  0.0000E+00  0.0000E+00  0.0000E+00  0.0000E+00  0.0000E+00
    -25.198  0.0000E+00  0.0000E+00  0.0000E+00  0.0000E+00  0.0000E+00  0.0000E+00  0.0000E+00  0.0000E+00  0.0000E+00
    -24.893  0.0000E+00  0.0000E+00  0.0000E+00  0.0000E+00  0.0000E+00  0.0000E+00  0.0000E+00  0.0000E+00  0.0000E+00
    -24.588  0.0000E+00  0.0000E+00  0.0000E+00  0.0000E+00  0.0000E+00  0.0000E+00  0.0000E+00  0.0000E+00  0.0000E+00
    -24.283  0.0000E+00  0.0000E+00  0.0000E+00  0.0000E+00  0.0000E+00  0.0000E+00  0.0000E+00  0.0000E+00  0.0000E+00
    -23.978  0.0000E+00  0.0000E+00  0.0000E+00  0.0000E+00  0.0000E+00  0.0000E+00  0.0000E+00  0.0000E+00  0.0000E+00
    -23.673  0.0000E+00  0.0000E+00  0.0000E+00  0.0000E+00  0.0000E+00  0.0000E+00  0.0000E+00  0.0000E+00  0.0000E+00
    -23.368  0.0000E+00  0.0000E+00  0.0000E+00  0.0000E+00  0.0000E+00  0.0000E+00  0.0000E+00  0.0000E+00  0.0000E+00
    -23.063  0.0000E+00  0.0000E+00  0.0000E+00  0.0000E+00  0.0000E+00  0.0000E+00  0.0000E+00  0.0000E+00  0.0000E+00
    -22.758  0.0000E+00  0.0000E+00  0.0000E+00  0.0000E+00  0.0000E+00  0.0000E+00  0.0000E+00  0.0000E+00  0.0000E+00
    -22.453  0.0000E+00  0.0000E+00  0.0000E+00  0.0000E+00  0.0000E+00  0.0000E+00  0.0000E+00  0.0000E+00  0.0000E+00
    -22.148  0.0000E+00  0.0000E+00  0.0000E+00  0.0000E+00  0.0000E+00  0.0000E+00  0.0000E+00  0.0000E+00  0.0000E+00
    -21.843  0.0000E+00  0.0000E+00  0.0000E+00  0.0000E+00  0.0000E+00  0.0000E+00  0.0000E+00  0.0000E+00  0.0000E+00
    -21.538  0.0000E+00  0.0000E+00  0.0000E+00  0.0000E+00  0.0000E+00  0.0000E+00  0.0000E+00  0.0000E+00  0.0000E+00
    -21.233  0.0000E+00  0.0000E+00  0.0000E+00  0.0000E+00  0.0000E+00  0.0000E+00  0.0000E+00  0.0000E+00  0.0000E+00
    -20.928  0.0000E+00  0.0000E+00  0.0000E+00  0.0000E+00  0.0000E+00  0.0000E+00  0.0000E+00  0.0000E+00  0.0000E+00
    -20.623  0.0000E+00  0.0000E+00  0.0000E+00  0.0000E+00  0.0000E+00  0.0000E+00  0.0000E+00  0.0000E+00  0.0000E+00
    -20.318  0.0000E+00  0.0000E+00  0.0000E+00  0.0000E+00  0.0000E+00  0.0000E+00  0.0000E+00  0.0000E+00  0.0000E+00
    -20.013  0.0000E+00  0.0000E+00  0.0000E+00  0.0000E+00  0.0000E+00  0.0000E+00  0.0000E+00  0.0000E+00  0.0000E+00
    -19.708  0.0000E+00  0.0000E+00  0.0000E+00  0.0000E+00  0.0000E+00  0.0000E+00  0.0000E+00  0.0000E+00  0.0000E+00
    -19.403  0.0000E+00  0.0000E+00  0.0000E+00  0.0000E+00  0.0000E+00  0.0000E+00  0.0000E+00  0.0000E+00  0.0000E+00