    4    4    1    1
  0.1156046E+02  0.3577431E-09  0.3613205E-09  0.3577431E-09  0.5000000E-15
   1.0000000000000000E-004
  CAR 
 unknown system                          
     68    196     40

  0.1262379E-14  0.1262379E-14  0.1262379E-14  0.5787037E-03
    1      -62.815737   1.000000
    2      -62.815737   1.000000
    3      -62.814996   1.000000
    4      -62.752212   1.000000
    5      -62.752212   1.000000
    6      -62.749452   1.000000
    7      -62.749452   1.000000
    8      -62.748428   1.000000
    9      -62.748428   1.000000
   10      -62.706865   1.000000
   11      -62.706466   1.000000
   12      -62.706466   1.000000
   13       -2.387237   1.000000
   14        2.127209   1.000000
   15        2.139858   1.000000
   16        2.139858   1.000000
   17        2.612403   1.000000
   18        2.612403   1.000000
   19        2.617370   1.000000
   20        4.033314   1.000000
   21        4.083456   1.000000
   22        4.083456   1.000000
   23        4.898067   1.000000
   24        4.948525   1.000000
   25        5.496245   1.000000
   26        5.496245   1.000000
   27        5.499006   1.000000
   28        5.650492   1.000000
   29        5.650492   1.000000
   30        5.663571   1.000000
   31        5.663571   1.000000
   32        5.684032   1.000000
   33        5.684032   1.000000
   34        8.463299  -0.000000
   35        8.679118  -0.000000
   36        8.679118  -0.000000
   37       14.250408   0.000000
   38       14.514090   0.000000
   39       14.514090   0.000000
   40       20.356909   0.000000

  0.8333333E-01  0.1262379E-14  0.1262379E-14  0.2314815E-02
    1      -62.814644   1.000000
    2      -62.814612   1.000000
    3      -62.814574   1.000000
    4      -62.752420   1.000000
    5      -62.751681   1.000000
    6      -62.750574   1.000000
    7      -62.749848   1.000000
    8      -62.749205   1.000000
    9      -62.749018   1.000000
   10      -62.707824   1.000000
   11      -62.707485   1.000000
   12      -62.706703   1.000000
   13       -2.300779   1.000000
   14        2.139560   1.000000
   15        2.168486   1.000000
   16        2.180775   1.000000
   17        2.635946   1.000000
   18        2.636386   1.000000
   19        2.642107   1.000000
   20        4.055007   1.000000
   21        4.057050   1.000000
   22        4.103844   1.000000
   23        4.894913   1.000000
   24        4.938310   1.000000
   25        5.465741   1.000000
   26        5.468060   1.000000
   27        5.485821   1.000000
   28        5.497498   1.000000
   29        5.525353   1.000000
   30        5.614098   1.000000
   31        5.645913   1.000000
   32        5.650772   1.000000
   33        5.662970   1.000000
   34        8.160312  -0.000000
   35        8.705758  -0.000000
   36        8.914317  -0.000000
   37       14.280479   0.000000
   38       14.544423   0.000000
   39       15.202036   0.000000
   40       19.797190   0.000000

  0.1666667E+00  0.1262379E-14  0.1262379E-14  0.2314815E-02
    1      -62.811898   1.000000
    2      -62.811265   1.000000
    3      -62.810180   1.000000
    4      -62.754149   1.000000
    5      -62.753255   1.000000
    6      -62.752584   1.000000
    7      -62.749712   1.000000
    8      -62.749306   1.000000
    9      -62.747149   1.000000
   10      -62.713156   1.000000
   11      -62.709550   1.000000
   12      -62.708921   1.000000
   13       -2.043359   1.000000
   14        2.121786   1.000000
   15        2.286966   1.000000
   16        2.297648   1.000000
   17        2.705547   1.000000
   18        2.708709   1.000000
   19        2.717005   1.000000
   20        3.979531   1.000000
   21        4.118923   1.000000
   22        4.164274   1.000000
   23        4.840745   1.000000
   24        4.952671   1.000000
   25        5.116517   1.000000
   26        5.153123   1.000000
   27        5.377299   1.000000
   28        5.378723   1.000000
   29        5.455744   1.000000
   30        5.511391   1.000000
   31        5.537723   1.000000
   32        5.651150   1.000000
   33        5.662456   1.000000
   34        7.061309   0.885307
   35        9.317408  -0.000000
   36        9.515541  -0.000000
   37       14.373809   0.000000
   38       14.638331   0.000000
   39       16.821203   0.000000
   40       18.783728   0.000000

  0.2500000E+00  0.1262379E-14  0.1262379E-14  0.2314815E-02
    1      -62.806282   1.000000
    2      -62.806254   1.000000
    3      -62.801517   1.000000
    4      -62.759398   1.000000
    5      -62.758661   1.000000
    6      -62.752065   1.000000
    7      -62.749494   1.000000
    8      -62.745978   1.000000
    9      -62.743660   1.000000
   10      -62.721945   1.000000
   11      -62.712409   1.000000
   12      -62.712242   1.000000
   13       -1.621340   1.000000
   14        2.027611   1.000000
   15        2.463810   1.000000
   16        2.472555   1.000000
   17        2.817118   1.000000
   18        2.830911   1.000000
   19        2.843150   1.000000
   20        3.857409   1.000000
   21        4.223656   1.000000
   22        4.263397   1.000000
   23        4.673788   1.000000
   24        4.714183   1.000000
   25        4.738784   1.000000
   26        4.996096   1.000000
   27        5.241174   1.000000
   28        5.241478   1.000000
   29        5.355968   1.000000
   30        5.374214   1.000000
   31        5.408312   1.000000
   32        5.652405   1.000000
   33        5.661617   1.000000
   34        5.927474   1.000000
   35       10.142926  -0.000000
   36       10.335771  -0.000000
   37       14.539317   0.000000
   38       14.803929   0.000000
   39       17.221265   0.000000
   40       17.432523   0.000000

  0.3333333E+00  0.1262379E-14  0.1262379E-14  0.2314815E-02
    1      -62.799704   1.000000
    2      -62.799374   1.000000
    3      -62.789494   1.000000
    4      -62.766224   1.000000
    5      -62.765660   1.000000
    6      -62.751367   1.000000
    7      -62.749475   1.000000
    8      -62.740652   1.000000
    9      -62.738782   1.000000
   10      -62.733510   1.000000
   11      -62.716969   1.000000
   12      -62.716597   1.000000
   13       -1.047635   1.000000
   14        1.743024   1.000000
   15        2.665170   1.000000
   16        2.670893   1.000000
   17        2.964122   1.000000
   18        3.004893   1.000000
   19        3.022219   1.000000
   20        3.699742   1.000000
   21        4.243182   1.000000
   22        4.281989   1.000000
   23        4.366003   1.000000
   24        4.398403   1.000000
   25        4.615898   1.000000
   26        5.054631   1.000000
   27        5.055119   1.000000
   28        5.080286   1.000000
   29        5.080768   1.000000
   30        5.166152   1.000000
   31        5.174696   1.000000
   32        5.347234   1.000000
   33        5.653947   1.000000
   34        5.660473   1.000000
   35       11.105698  -0.000000
   36       11.297556  -0.000000
   37       14.790027   0.000000
   38       15.051616   0.000000
   39       15.868650   0.000000
   40       16.074296   0.000000

  0.4166667E+00  0.1262379E-14  0.1262379E-14  0.2314815E-02
    1      -62.791454   1.000000
    2      -62.791380   1.000000
    3      -62.776129   1.000000
    4      -62.774273   1.000000
    5      -62.773703   1.000000
    6      -62.751317   1.000000
    7      -62.750196   1.000000
    8      -62.746516   1.000000
    9      -62.734979   1.000000
   10      -62.733392   1.000000
   11      -62.722599   1.000000
   12      -62.721836   1.000000
   13       -0.347103   1.000000
   14        1.180853   1.000000
   15        2.835303   1.000000
   16        2.838141   1.000000
   17        3.137528   1.000000
   18        3.232362   1.000000
   19        3.255821   1.000000
   20        3.518364   1.000000
   21        3.853300   1.000000
   22        3.888022   1.000000
   23        4.504219   1.000000
   24        4.541321   1.000000
   25        4.564666   1.000000
   26        4.588926   1.000000
   27        4.939572   1.000000
   28        4.940128   1.000000
   29        4.957868   1.000000
   30        4.960238   1.000000
   31        5.124733   1.000000
   32        5.276003   1.000000
   33        5.655654   1.000000
   34        5.659164   1.000000
   35       12.173394  -0.000000
   36       12.366889  -0.000000
   37       14.565368   0.000000
   38       14.766151   0.000000
   39       15.135249   0.000000
   40       15.374981   0.000000

  0.5000000E+00  0.1262379E-14  0.1262379E-14  0.1157407E-02
    1      -62.782642   1.000000
    2      -62.782642   1.000000
    3      -62.782518   1.000000
    4      -62.782518   1.000000
    5      -62.761750   1.000000
    6      -62.761750   1.000000
    7      -62.750878   1.000000
    8      -62.750878   1.000000
    9      -62.728908   1.000000
   10      -62.728908   1.000000
   11      -62.727736   1.000000
   12      -62.727736   1.000000
   13        0.429897   1.000000
   14        0.429897   1.000000
   15        2.905173   1.000000
   16        2.905173   1.000000
   17        3.326371   1.000000
   18        3.326371   1.000000
   19        3.515427   1.000000
   20        3.515427   1.000000
   21        3.544587   1.000000
   22        3.544587   1.000000
   23        4.459040   1.000000
   24        4.459040   1.000000
   25        4.741954   1.000000
   26        4.741954   1.000000
   27        4.755108   1.000000
   28        4.755108   1.000000
   29        4.881399   1.000000
   30        4.881399   1.000000
   31        5.200080   1.000000
   32        5.200080   1.000000
   33        5.657518   1.000000
   34        5.657518   1.000000
   35       13.330068   0.000000
   36       13.330068   0.000000
   37       13.526701   0.000000
   38       13.526701   0.000000
   39       15.505449   0.000000
   40       15.505501   0.000000

  0.1262379E-14  0.8333333E-01  0.1262379E-14  0.1157407E-02
    1      -62.815032   1.000000
    2      -62.815032   1.000000
    3      -62.813819   1.000000
    4      -62.753353   1.000000
    5      -62.753353   1.000000
    6      -62.749911   1.000000
    7      -62.749911   1.000000
    8      -62.747961   1.000000
    9      -62.747961   1.000000
   10      -62.708161   1.000000
   11      -62.706584   1.000000
   12      -62.706584   1.000000
   13       -2.302486   1.000000
   14        2.125116   1.000000
   15        2.179659   1.000000
   16        2.179659   1.000000
   17        2.637366   1.000000
   18        2.637366   1.000000
   19        2.640015   1.000000
   20        4.008027   1.000000
   21        4.104546   1.000000
   22        4.104546   1.000000
   23        4.874699   1.000000
   24        4.958148   1.000000
   25        5.464891   1.000000
   26        5.464891   1.000000
   27        5.489352   1.000000
   28        5.496173   1.000000
   29        5.496173   1.000000
   30        5.627593   1.000000
   31        5.627593   1.000000
   32        5.683993   1.000000
   33        5.683993   1.000000
   34        7.961252  -0.000000
   35        8.907880  -0.000000
   36        8.907880  -0.000000
   37       14.543613   0.000000
   38       14.543613   0.000000
   39       14.920721   0.000000
   40       19.793815   0.000000

  0.8333333E-01  0.8333333E-01  0.1262379E-14  0.4629630E-02
    1      -62.813939   1.000000
    2      -62.813291   1.000000
    3      -62.813093   1.000000
    4      -62.754915   1.000000
    5      -62.752629   1.000000
    6      -62.749640   1.000000
    7      -62.749150   1.000000
    8      -62.749061   1.000000
    9      -62.748109   1.000000
   10      -62.710935   1.000000
   11      -62.707664   1.000000
   12      -62.706761   1.000000
   13       -2.216405   1.000000
   14        2.167329   1.000000
   15        2.180430   1.000000
   16        2.219650   1.000000
   17        2.660470   1.000000
   18        2.660565   1.000000
   19        2.664433   1.000000
   20        4.010927   1.000000
   21        4.096779   1.000000
   22        4.122545   1.000000
   23        4.874269   1.000000
   24        4.946400   1.000000
   25        5.395305   1.000000
   26        5.412443   1.000000
   27        5.416634   1.000000
   28        5.435715   1.000000
   29        5.494433   1.000000
   30        5.494958   1.000000
   31        5.627220   1.000000
   32        5.644446   1.000000
   33        5.646074   1.000000
   34        8.202234  -0.000000
   35        8.386222  -0.000000
   36        9.125222  -0.000000
   37       14.573865   0.000000
   38       14.961960   0.000000
   39       15.242510   0.000000
   40       18.646686   0.000000

  0.1666667E+00  0.8333333E-01  0.1262379E-14  0.4629630E-02
    1      -62.810723   1.000000
    2      -62.810113   1.000000
    3      -62.809212   1.000000
    4      -62.758110   1.000000
    5      -62.752454   1.000000
    6      -62.750775   1.000000
    7      -62.749599   1.000000
    8      -62.748471   1.000000
    9      -62.746863   1.000000
   10      -62.716443   1.000000
   11      -62.709477   1.000000
   12      -62.708234   1.000000
   13       -1.960125   1.000000
   14        2.165593   1.000000
   15        2.288740   1.000000
   16        2.334038   1.000000
   17        2.728749   1.000000
   18        2.730091   1.000000
   19        2.738006   1.000000
   20        3.964962   1.000000
   21        4.131125   1.000000
   22        4.176348   1.000000
   23        4.836270   1.000000
   24        4.951531   1.000000
   25        5.047128   1.000000
   26        5.079980   1.000000
   27        5.278346   1.000000
   28        5.351025   1.000000
   29        5.385231   1.000000
   30        5.465978   1.000000
   31        5.537461   1.000000
   32        5.620627   1.000000
   33        5.626545   1.000000
   34        7.305019   0.043620
   35        8.788135  -0.000000
   36        9.694825  -0.000000
   37       14.665869   0.000000
   38       15.089476   0.000000
   39       16.874332   0.000000
   40       17.279252   0.000000

  0.2500000E+00  0.8333333E-01  0.1262379E-14  0.4629630E-02
    1      -62.805235   1.000000
    2      -62.805128   1.000000
    3      -62.801209   1.000000
    4      -62.762695   1.000000
    5      -62.757827   1.000000
    6      -62.749168   1.000000
    7      -62.748524   1.000000
    8      -62.747016   1.000000
    9      -62.743167   1.000000
   10      -62.725346   1.000000
   11      -62.713162   1.000000
   12      -62.711273   1.000000
   13       -1.540111   1.000000
   14        2.076235   1.000000
   15        2.470825   1.000000
   16        2.505527   1.000000
   17        2.838118   1.000000
   18        2.846915   1.000000
   19        2.861796   1.000000
   20        3.852217   1.000000
   21        4.228465   1.000000
   22        4.261570   1.000000
   23        4.607620   1.000000
   24        4.673579   1.000000
   25        4.746046   1.000000
   26        4.996639   1.000000
   27        5.051659   1.000000
   28        5.220353   1.000000
   29        5.247653   1.000000
   30        5.373727   1.000000
   31        5.406005   1.000000
   32        5.615700   1.000000
   33        5.625242   1.000000
   34        6.248366   1.000000
   35        9.551997  -0.000000
   36       10.489354  -0.000000
   37       14.812051   0.000000
   38       15.313826   0.000000
   39       15.963764   0.000000
   40       17.537494   0.000000

  0.3333333E+00  0.8333333E-01  0.1262379E-14  0.4629630E-02
    1      -62.799021   1.000000
    2      -62.798519   1.000000
    3      -62.789994   1.000000
    4      -62.769099   1.000000
    5      -62.764882   1.000000
    6      -62.748872   1.000000
    7      -62.748128   1.000000
    8      -62.741675   1.000000
    9      -62.738292   1.000000
   10      -62.736504   1.000000
   11      -62.717890   1.000000
   12      -62.715682   1.000000
   13       -0.969409   1.000000
   14        1.797934   1.000000
   15        2.679166   1.000000
   16        2.702215   1.000000
   17        2.982105   1.000000
   18        3.009868   1.000000
   19        3.037377   1.000000
   20        3.700153   1.000000
   21        4.185194   1.000000
   22        4.262087   1.000000
   23        4.360567   1.000000
   24        4.368313   1.000000
   25        4.651613   1.000000
   26        4.717315   1.000000
   27        5.063232   1.000000
   28        5.065853   1.000000
   29        5.086648   1.000000
   30        5.174126   1.000000
   31        5.290809   1.000000
   32        5.570439   1.000000
   33        5.615351   1.000000
   34        5.623338   1.000000
   35       10.420311  -0.000000
   36       11.433111  -0.000000
   37       14.553331   0.000000
   38       15.225013   0.000000
   39       15.648199   0.000000
   40       16.179839   0.000000

  0.4166667E+00  0.8333333E-01  0.1262379E-14  0.4629630E-02
    1      -62.791958   1.000000
    2      -62.790434   1.000000
    3      -62.777423   1.000000
    4      -62.776326   1.000000
    5      -62.772976   1.000000
    6      -62.749260   1.000000
    7      -62.748907   1.000000
    8      -62.748431   1.000000
    9      -62.735954   1.000000
   10      -62.732704   1.000000
   11      -62.723605   1.000000
   12      -62.720842   1.000000
   13       -0.273107   1.000000
   14        1.242547   1.000000
   15        2.857947   1.000000
   16        2.870954   1.000000
   17        3.151836   1.000000
   18        3.219038   1.000000
   19        3.265886   1.000000
   20        3.523679   1.000000
   21        3.806407   1.000000
   22        3.881939   1.000000
   23        4.391708   1.000000
   24        4.439961   1.000000
   25        4.542238   1.000000
   26        4.664558   1.000000
   27        4.931728   1.000000
   28        4.943816   1.000000
   29        4.957499   1.000000
   30        5.053424   1.000000
   31        5.143554   1.000000
   32        5.340316   1.000000
   33        5.616875   1.000000
   34        5.621284   1.000000
   35       11.364527  -0.000000
   36       12.490002  -0.000000
   37       13.451737   0.000000
   38       14.874929   0.000000
   39       15.525788   0.000000
   40       16.074931   0.000000

  0.5000000E+00  0.8333333E-01  0.1262379E-14  0.2314815E-02
    1      -62.784201   1.000000
    2      -62.784201   1.000000
    3      -62.781662   1.000000
    4      -62.781662   1.000000
    5      -62.763301   1.000000
    6      -62.763301   1.000000
    7      -62.748968   1.000000
    8      -62.748968   1.000000
    9      -62.729700   1.000000
   10      -62.729700   1.000000
   11      -62.726477   1.000000
   12      -62.726477   1.000000
   13        0.498380   1.000000
   14        0.498380   1.000000
   15        2.935972   1.000000
   16        2.935972   1.000000
   17        3.336583   1.000000
   18        3.336583   1.000000
   19        3.482720   1.000000
   20        3.482720   1.000000
   21        3.547941   1.000000
   22        3.547941   1.000000
   23        4.362116   1.000000
   24        4.362116   1.000000
   25        4.742217   1.000000
   26        4.742217   1.000000
   27        4.825774   1.000000
   28        4.825774   1.000000
   29        4.880007   1.000000
   30        4.880007   1.000000
   31        5.233987   1.000000
   32        5.233987   1.000000
   33        5.619066   1.000000
   34        5.619066   1.000000
   35       12.375271  -0.000000
   36       12.375271  -0.000000
   37       13.641194   0.000000
   38       13.641194   0.000000
   39       15.986022   0.000000
   40       15.986022   0.000000

  0.1262379E-14  0.1666667E+00  0.1262379E-14  0.1157407E-02
    1      -62.811824   1.000000
    2      -62.811824   1.000000
    3      -62.809432   1.000000
    4      -62.756575   1.000000
    5      -62.756575   1.000000
    6      -62.750012   1.000000
    7      -62.750012   1.000000
    8      -62.746173   1.000000
    9      -62.746173   1.000000
   10      -62.713765   1.000000
   11      -62.708733   1.000000
   12      -62.708733   1.000000
   13       -2.050144   1.000000
   14        2.101555   1.000000
   15        2.293713   1.000000
   16        2.293713   1.000000
   17        2.706989   1.000000
   18        2.712751   1.000000
   19        2.712751   1.000000
   20        3.933301   1.000000
   21        4.166331   1.000000
   22        4.166331   1.000000
   23        4.805923   1.000000
   24        4.985015   1.000000
   25        5.133027   1.000000
   26        5.133027   1.000000
   27        5.374462   1.000000
   28        5.374462   1.000000
   29        5.460967   1.000000
   30        5.525417   1.000000
   31        5.525417   1.000000
   32        5.684126   1.000000
   33        5.684126   1.000000
   34        6.895719   1.033240
   35        9.495547  -0.000000
   36        9.495547  -0.000000
   37       14.634975   0.000000
   38       14.634975   0.000000
   39       16.504525   0.000000
   40       18.604410   0.000000

  0.8333333E-01  0.1666667E+00  0.1262379E-14  0.4629630E-02
    1      -62.810911   1.000000
    2      -62.810587   1.000000
    3      -62.808679   1.000000
    4      -62.759014   1.000000
    5      -62.755834   1.000000
    6      -62.749123   1.000000
    7      -62.748776   1.000000
    8      -62.747311   1.000000
    9      -62.746003   1.000000
   10      -62.716520   1.000000
   11      -62.709261   1.000000
   12      -62.707786   1.000000
   13       -1.965193   1.000000
   14        2.147040   1.000000
   15        2.297175   1.000000
   16        2.331122   1.000000
   17        2.730065   1.000000
   18        2.732999   1.000000
   19        2.734564   1.000000
   20        3.933130   1.000000
   21        4.163978   1.000000
   22        4.177767   1.000000
   23        4.810493   1.000000
   24        4.975673   1.000000
   25        5.062590   1.000000
   26        5.067365   1.000000
   27        5.278689   1.000000
   28        5.348987   1.000000
   29        5.383955   1.000000
   30        5.464616   1.000000
   31        5.524889   1.000000
   32        5.641653   1.000000
   33        5.645896   1.000000
   34        7.160999   0.525354
   35        8.948076  -0.000000
   36        9.680748  -0.000000
   37       14.663407   0.000000
   38       15.367275   0.000000
   39       16.558934   0.000000
   40       17.305008   0.000000

  0.1666667E+00  0.1666667E+00  0.1262379E-14  0.4629630E-02
    1      -62.807588   1.000000
    2      -62.806695   1.000000
    3      -62.806083   1.000000
    4      -62.763393   1.000000
    5      -62.753823   1.000000
    6      -62.750600   1.000000
    7      -62.746902   1.000000
    8      -62.746339   1.000000
    9      -62.745609   1.000000
   10      -62.723561   1.000000
   11      -62.711913   1.000000
   12      -62.707920   1.000000
   13       -1.712421   1.000000
   14        2.277778   1.000000
   15        2.291244   1.000000
   16        2.438113   1.000000
   17        2.794060   1.000000
   18        2.798661   1.000000
   19        2.799683   1.000000
   20        3.908412   1.000000
   21        4.180866   1.000000
   22        4.210609   1.000000
   23        4.800103   1.000000
   24        4.860919   1.000000
   25        4.865934   1.000000
   26        4.884402   1.000000
   27        4.973477   1.000000
   28        5.274604   1.000000
   29        5.376870   1.000000
   30        5.378684   1.000000
   31        5.523432   1.000000
   32        5.536834   1.000000
   33        5.573949   1.000000
   34        7.730732  -0.000248
   35        7.851031  -0.000007
   36       10.186721  -0.000000
   37       14.728482   0.000000
   38       15.843886   0.000000
   39       16.724562   0.000000
   40       17.035383   0.000000

  0.2500000E+00  0.1666667E+00  0.1262379E-14  0.4629630E-02
    1      -62.802885   1.000000
    2      -62.802419   1.000000
    3      -62.800395   1.000000
    4      -62.768437   1.000000
    5      -62.755898   1.000000
    6      -62.749910   1.000000
    7      -62.745379   1.000000
    8      -62.745128   1.000000
    9      -62.742173   1.000000
   10      -62.732851   1.000000
   11      -62.715446   1.000000
   12      -62.709656   1.000000
   13       -1.298580   1.000000
   14        2.216400   1.000000
   15        2.475126   1.000000
   16        2.598771   1.000000
   17        2.895111   1.000000
   18        2.901195   1.000000
   19        2.916527   1.000000
   20        3.826807   1.000000
   21        4.254446   1.000000
   22        4.259632   1.000000
   23        4.433499   1.000000
   24        4.548139   1.000000
   25        4.630782   1.000000
   26        4.742039   1.000000
   27        5.022942   1.000000
   28        5.158480   1.000000
   29        5.245422   1.000000
   30        5.329790   1.000000
   31        5.372552   1.000000
   32        5.521026   1.000000
   33        5.535065   1.000000
   34        6.791461   1.011630
   35        8.419864  -0.000000
   36       10.923068  -0.000000
   37       14.261010   0.000000
   38       15.100756   0.000000
   39       17.005550   0.000000
   40       17.846305   0.000000

  0.3333333E+00  0.1666667E+00  0.1262379E-14  0.4629630E-02
    1      -62.798101   1.000000
    2      -62.795350   1.000000
    3      -62.791002   1.000000
    4      -62.774089   1.000000
    5      -62.762579   1.000000
    6      -62.744617   1.000000
    7      -62.744531   1.000000
    8      -62.744101   1.000000
    9      -62.743871   1.000000
   10      -62.736726   1.000000
   11      -62.720579   1.000000
   12      -62.713656   1.000000
   13       -0.737299   1.000000
   14        1.956684   1.000000
   15        2.705181   1.000000
   16        2.788987   1.000000
   17        3.027845   1.000000
   18        3.035934   1.000000
   19        3.081733   1.000000
   20        3.696479   1.000000
   21        4.034535   1.000000
   22        4.199730   1.000000
   23        4.298043   1.000000
   24        4.363412   1.000000
   25        4.381274   1.000000
   26        4.684206   1.000000
   27        5.020470   1.000000
   28        5.087854   1.000000
   29        5.113553   1.000000
   30        5.172834   1.000000
   31        5.222600   1.000000
   32        5.518323   1.000000
   33        5.518910   1.000000
   34        6.029294   1.000000
   35        9.182939  -0.000000
   36       11.822812  -0.000000
   37       13.061518   0.000000
   38       15.316335   0.000000
   39       16.490209   0.000000
   40       17.357209   0.000000

  0.4166667E+00  0.1666667E+00  0.1262379E-14  0.4629630E-02
    1      -62.792323   1.000000
    2      -62.787691   1.000000
    3      -62.780679   1.000000
    4      -62.780428   1.000000
    5      -62.770559   1.000000
    6      -62.755511   1.000000
    7      -62.744104   1.000000
    8      -62.743906   1.000000
    9      -62.738692   1.000000
   10      -62.730823   1.000000
   11      -62.726215   1.000000
   12      -62.718546   1.000000
   13       -0.054356   1.000000
   14        1.422020   1.000000
   15        2.912722   1.000000
   16        2.964885   1.000000
   17        3.180813   1.000000
   18        3.194282   1.000000
   19        3.295356   1.000000
   20        3.537501   1.000000
   21        3.684754   1.000000
   22        3.861526   1.000000
   23        4.210290   1.000000
   24        4.271884   1.000000
   25        4.548425   1.000000
   26        4.718389   1.000000
   27        4.903140   1.000000
   28        4.942916   1.000000
   29        4.957363   1.000000
   30        5.049859   1.000000
   31        5.231352   1.000000
   32        5.513494   1.000000
   33        5.515471   1.000000
   34        5.604047   1.000000
   35       10.014997  -0.000000
   36       11.937982  -0.000000
   37       12.847607   0.000000
   38       15.194190   0.000000
   39       15.702817   0.000000
   40       16.895710   0.000000

  0.5000000E+00  0.1666667E+00  0.1262379E-14  0.2314815E-02
    1      -62.786570   1.000000
    2      -62.786570   1.000000
    3      -62.779113   1.000000
    4      -62.779113   1.000000
    5      -62.768266   1.000000
    6      -62.768266   1.000000
    7      -62.744359   1.000000
    8      -62.744359   1.000000
    9      -62.732486   1.000000
   10      -62.732486   1.000000
   11      -62.724632   1.000000
   12      -62.724632   1.000000
   13        0.699142   1.000000
   14        0.699142   1.000000
   15        3.021326   1.000000
   16        3.021326   1.000000
   17        3.365479   1.000000
   18        3.365479   1.000000
   19        3.393528   1.000000
   20        3.393528   1.000000
   21        3.556496   1.000000
   22        3.556496   1.000000
   23        4.207933   1.000000
   24        4.207933   1.000000
   25        4.744275   1.000000
   26        4.744275   1.000000
   27        4.858425   1.000000
   28        4.858425   1.000000
   29        4.867944   1.000000
   30        4.867944   1.000000
   31        5.380274   1.000000
   32        5.380274   1.000000
   33        5.513421   1.000000
   34        5.513421   1.000000
   35       10.927205  -0.000000
   36       10.927205  -0.000000
   37       13.975974   0.000000
   38       13.975974   0.000000
   39       16.229467   0.000000
   40       16.229467   0.000000

  0.1262379E-14  0.2500000E+00  0.1262379E-14  0.1157407E-02
    1      -62.807052   1.000000
    2      -62.807052   1.000000
    3      -62.800835   1.000000
    4      -62.761897   1.000000
    5      -62.761897   1.000000
    6      -62.750192   1.000000
    7      -62.750192   1.000000
    8      -62.742737   1.000000
    9      -62.742737   1.000000
   10      -62.722016   1.000000
   11      -62.711564   1.000000
   12      -62.711564   1.000000
   13       -1.636321   1.000000
   14        1.996663   1.000000
   15        2.464075   1.000000
   16        2.464075   1.000000
   17        2.814352   1.000000
   18        2.839477   1.000000
   19        2.839477   1.000000
   20        3.815853   1.000000
   21        4.268069   1.000000