       N       E                     dE             d eps       ncg     rms          rms(c)
DAV:   1     0.909913551330E+03    0.90991E+03   -0.46719E+04 17944   0.273E+03
DAV:   2     0.393615614405E+02   -0.87055E+03   -0.85112E+03 15968   0.759E+02
DAV:   3    -0.183454657102E+02   -0.57707E+02   -0.55693E+02 16960   0.216E+02
DAV:   4    -0.197731554672E+02   -0.14277E+01   -0.14195E+01 17120   0.337E+01
DAV:   5    -0.198199401778E+02   -0.46785E-01   -0.46788E-01 19240   0.561E+00    0.161E+01
RMM:   6    -0.178793725348E+02    0.19406E+01   -0.36623E+01 16018   0.609E+01    0.105E+01
RMM:   7    -0.164024347703E+02    0.14769E+01   -0.67354E+00 15708   0.284E+01    0.119E+00
RMM:   8    -0.163673830395E+02    0.35052E-01   -0.69901E-02 16520   0.314E+00    0.350E-01
RMM:   9    -0.163664395127E+02    0.94353E-03   -0.14663E-02 16826   0.991E-01    0.933E-02
RMM:  10    -0.163667080922E+02   -0.26858E-03   -0.30349E-03 17103   0.650E-01    0.640E-02
RMM:  11    -0.163667321468E+02   -0.24055E-04   -0.10128E-03 18067   0.255E-01    0.210E-02
RMM:  12    -0.163667517278E+02   -0.19581E-04   -0.25343E-04 19666   0.149E-01    0.863E-03
RMM:  13    -0.163667598442E+02   -0.81164E-05   -0.70028E-05 21162   0.539E-02    0.237E-03
RMM:  14    -0.163667614840E+02   -0.16398E-05   -0.10490E-05 22361   0.229E-02    0.893E-04
RMM:  15    -0.163667616260E+02   -0.14198E-06   -0.13652E-06 22355   0.779E-03    0.124E-04
RMM:  16    -0.163667616754E+02   -0.49400E-07   -0.15641E-07 16844   0.295E-03    0.328E-04
RMM:  17    -0.163667616241E+02    0.51223E-07   -0.21897E-08  9447   0.143E-03    0.207E-05
RMM:  18    -0.163667616286E+02   -0.44420E-08   -0.57697E-09  8660   0.714E-04
   1 F= -.16366762E+02 E0= -.16367881E+02  d E =0.335751E-02
