   7   7   1   0
  0.1377105E+02  0.3924090E-09  0.3924090E-09  0.6847566E-09  0.5000000E-15
   1.0000000000000000E-004
  CAR 
 unknown system                          
     16.98921617    -60.67623762  301      9.59883425      1.00000000
    -60.676  0.0000E+00  0.0000E+00  0.0000E+00  0.0000E+00
    -60.417  0.0000E+00  0.0000E+00  0.0000E+00  0.0000E+00
    -60.158  0.0000E+00  0.0000E+00  0.0000E+00  0.0000E+00
    -59.900  0.0000E+00  0.0000E+00  0.0000E+00  0.0000E+00
    -59.641  0.0000E+00  0.0000E+00  0.0000E+00  0.0000E+00
    -59.382  0.0000E+00  0.0000E+00  0.0000E+00  0.0000E+00
    -59.123  0.0000E+00  0.0000E+00  0.0000E+00  0.0000E+00
    -58.864  0.0000E+00  0.0000E+00  0.0000E+00  0.0000E+00
    -58.605  0.0000E+00  0.0000E+00  0.0000E+00  0.0000E+00
    -58.346  0.0000E+00  0.0000E+00  0.0000E+00  0.0000E+00
    -58.087  0.0000E+00  0.0000E+00  0.0000E+00  0.0000E+00
    -57.829  0.0000E+00  0.0000E+00  0.0000E+00  0.0000E+00
    -57.570  0.0000E+00  0.0000E+00  0.0000E+00  0.0000E+00
    -57.311  0.0000E+00  0.0000E+00  0.0000E+00  0.0000E+00
    -57.052  0.1159E+02  0.0000E+00  0.3000E+01  0.0000E+00
    -56.793  0.0000E+00  0.0000E+00  0.3000E+01  0.0000E+00
    -56.534  0.0000E+00  0.0000E+00  0.3000E+01  0.0000E+00
    -56.275  0.0000E+00  0.0000E+00  0.3000E+01  0.0000E+00
    -56.016  0.0000E+00  0.0000E+00  0.3000E+01  0.0000E+00
    -55.757  0.0000E+00  0.0000E+00  0.3000E+01  0.0000E+00
    -55.499  0.0000E+00  0.0000E+00  0.3000E+01  0.0000E+00
    -55.240  0.0000E+00  0.0000E+00  0.3000E+01  0.0000E+00
    -54.981  0.0000E+00  0.0000E+00  0.3000E+01  0.0000E+00
    -54.722  0.0000E+00  0.1159E+02  0.3000E+01  0.3000E+01
    -54.463  0.0000E+00  0.0000E+00  0.3000E+01  0.3000E+01
    -54.204  0.0000E+00  0.0000E+00  0.3000E+01  0.3000E+01
    -53.945  0.0000E+00  0.0000E+00  0.3000E+01  0.3000E+01
    -53.686  0.0000E+00  0.0000E+00  0.3000E+01  0.3000E+01
    -53.427  0.0000E+00  0.0000E+00  0.3000E+01  0.3000E+01
    -53.169  0.0000E+00  0.0000E+00  0.3000E+01  0.3000E+01
    -52.910  0.0000E+00  0.0000E+00  0.3000E+01  0.3000E+01
    -52.651  0.0000E+00  0.0000E+00  0.3000E+01  0.3000E+01
    -52.392  0.0000E+00  0.0000E+00  0.3000E+01  0.3000E+01
    -52.133  0.0000E+00  0.0000E+00  0.3000E+01  0.3000E+01
    -51.874  0.0000E+00  0.0000E+00  0.3000E+01  0.3000E+01
    -51.615  0.0000E+00  0.0000E+00  0.3000E+01  0.3000E+01
    -51.356  0.0000E+00  0.0000E+00  0.3000E+01  0.3000E+01
    -51.097  0.0000E+00  0.0000E+00  0.3000E+01  0.3000E+01
    -50.839  0.0000E+00  0.0000E+00  0.3000E+01  0.3000E+01
    -50.580  0.0000E+00  0.0000E+00  0.3000E+01  0.3000E+01
    -50.321  0.0000E+00  0.0000E+00  0.3000E+01  0.3000E+01
    -50.062  0.0000E+00  0.0000E+00  0.3000E+01  0.3000E+01
    -49.803  0.0000E+00  0.0000E+00  0.3000E+01  0.3000E+01
    -49.544  0.0000E+00  0.0000E+00  0.3000E+01  0.3000E+01
    -49.285  0.0000E+00  0.0000E+00  0.3000E+01  0.3000E+01
    -49.026  0.0000E+00  0.0000E+00  0.3000E+01  0.3000E+01
    -48.768  0.0000E+00  0.0000E+00  0.3000E+01  0.3000E+01
    -48.509  0.0000E+00  0.0000E+00  0.3000E+01  0.3000E+01
    -48.250  0.0000E+00  0.0000E+00  0.3000E+01  0.3000E+01
    -47.991  0.0000E+00  0.0000E+00  0.3000E+01  0.3000E+01
    -47.732  0.0000E+00  0.0000E+00  0.3000E+01  0.3000E+01
    -47.473  0.0000E+00  0.0000E+00  0.3000E+01  0.3000E+01
    -47.214  0.0000E+00  0.0000E+00  0.3000E+01  0.3000E+01
    -46.955  0.0000E+00  0.0000E+00  0.3000E+01  0.3000E+01
    -46.696  0.0000E+00  0.0000E+00  0.3000E+01  0.3000E+01
    -46.438  0.0000E+00  0.0000E+00  0.3000E+01  0.3000E+01
    -46.179  0.0000E+00  0.0000E+00  0.3000E+01  0.3000E+01
    -45.920  0.0000E+00  0.0000E+00  0.3000E+01  0.3000E+01
    -45.661  0.0000E+00  0.0000E+00  0.3000E+01  0.3000E+01
    -45.402  0.0000E+00  0.0000E+00  0.3000E+01  0.3000E+01
    -45.143  0.0000E+00  0.0000E+00  0.3000E+01  0.3000E+01
    -44.884  0.0000E+00  0.0000E+00  0.3000E+01  0.3000E+01
    -44.625  0.0000E+00  0.0000E+00  0.3000E+01  0.3000E+01
    -44.366  0.0000E+00  0.0000E+00  0.3000E+01  0.3000E+01
    -44.108  0.0000E+00  0.0000E+00  0.3000E+01  0.3000E+01
    -43.849  0.0000E+00  0.0000E+00  0.3000E+01  0.3000E+01
    -43.590  0.0000E+00  0.0000E+00  0.3000E+01  0.3000E+01
    -43.331  0.0000E+00  0.0000E+00  0.3000E+01  0.3000E+01
    -43.072  0.0000E+00  0.0000E+00  0.3000E+01  0.3000E+01
    -42.813  0.0000E+00  0.0000E+00  0.3000E+01  0.3000E+01
    -42.554  0.0000E+00  0.0000E+00  0.3000E+01  0.3000E+01
    -42.295  0.0000E+00  0.0000E+00  0.3000E+01  0.3000E+01
    -42.037  0.0000E+00  0.0000E+00  0.3000E+01  0.3000E+01
    -41.778  0.0000E+00  0.0000E+00  0.3000E+01  0.3000E+01
    -41.519  0.0000E+00  0.0000E+00  0.3000E+01  0.3000E+01
    -41.260  0.0000E+00  0.0000E+00  0.3000E+01  0.3000E+01
    -41.001  0.0000E+00  0.0000E+00  0.3000E+01  0.3000E+01
    -40.742  0.0000E+00  0.0000E+00  0.3000E+01  0.3000E+01
    -40.483  0.0000E+00  0.0000E+00  0.3000E+01  0.3000E+01
    -40.224  0.0000E+00  0.0000E+00  0.3000E+01  0.3000E+01
    -39.965  0.0000E+00  0.0000E+00  0.3000E+01  0.3000E+01
    -39.707  0.0000E+00  0.0000E+00  0.3000E+01  0.3000E+01
    -39.448  0.0000E+00  0.0000E+00  0.3000E+01  0.3000E+01
    -39.189  0.0000E+00  0.0000E+00  0.3000E+01  0.3000E+01
    -38.930  0.0000E+00  0.0000E+00  0.3000E+01  0.3000E+01
    -38.671  0.0000E+00  0.0000E+00  0.3000E+01  0.3000E+01
    -38.412  0.0000E+00  0.0000E+00  0.3000E+01  0.3000E+01
    -38.153  0.0000E+00  0.0000E+00  0.3000E+01  0.3000E+01
    -37.894  0.0000E+00  0.0000E+00  0.3000E+01  0.3000E+01
    -37.635  0.0000E+00  0.0000E+00  0.3000E+01  0.3000E+01
    -37.377  0.0000E+00  0.0000E+00  0.3000E+01  0.3000E+01
    -37.118  0.0000E+00  0.0000E+00  0.3000E+01  0.3000E+01
    -36.859  0.0000E+00  0.0000E+00  0.3000E+01  0.3000E+01
    -36.600  0.0000E+00  0.0000E+00  0.3000E+01  0.3000E+01
    -36.341  0.0000E+00  0.0000E+00  0.3000E+01  0.3000E+01
    -36.082  0.0000E+00  0.0000E+00  0.3000E+01  0.3000E+01
    -35.823  0.0000E+00  0.0000E+00  0.3000E+01  0.3000E+01
    -35.564  0.0000E+00  0.0000E+00  0.3000E+01  0.3000E+01
    -35.306  0.0000E+00  0.0000E+00  0.3000E+01  0.3000E+01
    -35.047  0.0000E+00  0.0000E+00  0.3000E+01  0.3000E+01
    -34.788  0.0000E+00  0.0000E+00  0.3000E+01  0.3000E+01
    -34.529  0.0000E+00  0.0000E+00  0.3000E+01  0.3000E+01
    -34.270  0.0000E+00  0.0000E+00  0.3000E+01  0.3000E+01
    -34.011  0.0000E+00  0.0000E+00  0.3000E+01  0.3000E+01
    -33.752  0.0000E+00  0.0000E+00  0.3000E+01  0.3000E+01
    -33.493  0.0000E+00  0.0000E+00  0.3000E+01  0.3000E+01
    -33.234  0.0000E+00  0.0000E+00  0.3000E+01  0.3000E+01
    -32.976  0.0000E+00  0.0000E+00  0.3000E+01  0.3000E+01
    -32.717  0.0000E+00  0.0000E+00  0.3000E+01  0.3000E+01
    -32.458  0.0000E+00  0.0000E+00  0.3000E+01  0.3000E+01
    -32.199  0.0000E+00  0.0000E+00  0.3000E+01  0.3000E+01
    -31.940  0.0000E+00  0.0000E+00  0.3000E+01  0.3000E+01
    -31.681  0.0000E+00  0.0000E+00  0.3000E+01  0.3000E+01
    -31.422  0.0000E+00  0.0000E+00  0.3000E+01  0.3000E+01
    -31.163  0.0000E+00  0.0000E+00  0.3000E+01  0.3000E+01
    -30.904  0.0000E+00  0.0000E+00  0.3000E+01  0.3000E+01
    -30.646  0.0000E+00  0.0000E+00  0.3000E+01  0.3000E+01
    -30.387  0.0000E+00  0.0000E+00  0.3000E+01  0.3000E+01
    -30.128  0.0000E+00  0.0000E+00  0.3000E+01  0.3000E+01
    -29.869  0.0000E+00  0.0000E+00  0.3000E+01  0.3000E+01
    -29.610  0.0000E+00  0.0000E+00  0.3000E+01  0.3000E+01
    -29.351  0.0000E+00  0.0000E+00  0.3000E+01  0.3000E+01
    -29.092  0.0000E+00  0.0000E+00  0.3000E+01  0.3000E+01
    -28.833  0.0000E+00  0.0000E+00  0.3000E+01  0.3000E+01
    -28.575  0.0000E+00  0.0000E+00  0.3000E+01  0.3000E+01
    -28.316  0.0000E+00  0.0000E+00  0.3000E+01  0.3000E+01
    -28.057  0.0000E+00  0.0000E+00  0.3000E+01  0.3000E+01
    -27.798  0.0000E+00  0.0000E+00  0.3000E+01  0.3000E+01
    -27.539  0.0000E+00  0.0000E+00  0.3000E+01  0.3000E+01
    -27.280  0.0000E+00  0.0000E+00  0.3000E+01  0.3000E+01
    -27.021  0.0000E+00  0.0000E+00  0.3000E+01  0.3000E+01
    -26.762  0.0000E+00  0.0000E+00  0.3000E+01  0.3000E+01
    -26.503  0.0000E+00  0.0000E+00  0.3000E+01  0.3000E+01
    -26.245  0.0000E+00  0.0000E+00  0.3000E+01  0.3000E+01
    -25.986  0.0000E+00  0.0000E+00  0.3000E+01  0.3000E+01
    -25.727  0.0000E+00  0.0000E+00  0.3000E+01  0.3000E+01
    -25.468  0.0000E+00  0.0000E+00  0.3000E+01  0.3000E+01
    -25.209  0.0000E+00  0.0000E+00  0.3000E+01  0.3000E+01
    -24.950  0.0000E+00  0.0000E+00  0.3000E+01  0.3000E+01
    -24.691  0.0000E+00  0.0000E+00  0.3000E+01  0.3000E+01
    -24.432  0.0000E+00  0.0000E+00  0.3000E+01  0.3000E+01
    -24.173  0.0000E+00  0.0000E+00  0.3000E+01  0.3000E+01
    -23.915  0.0000E+00  0.0000E+00  0.3000E+01  0.3000E+01
    -23.656  0.6937E+01  0.7091E+01  0.4055E+01  0.4060E+01
    -23.397  0.3377E+01  0.3311E+01  0.5000E+01  0.5000E+01
    -23.138  0.0000E+00  0.0000E+00  0.5000E+01  0.5000E+01
    -22.879  0.0000E+00  0.0000E+00  0.5000E+01  0.5000E+01
    -22.620  0.0000E+00  0.0000E+00  0.5000E+01  0.5000E+01
    -22.361  0.0000E+00  0.0000E+00  0.5000E+01  0.5000E+01
    -22.102  0.0000E+00  0.0000E+00  0.5000E+01  0.5000E+01
    -21.844  0.0000E+00  0.0000E+00  0.5000E+01  0.5000E+01
    -21.585  0.0000E+00  0.0000E+00  0.5000E+01  0.5000E+01
    -21.326  0.0000E+00  0.0000E+00  0.5000E+01  0.5000E+01
    -21.067  0.0000E+00  0.0000E+00  0.5000E+01  0.5000E+01
    -20.808  0.0000E+00  0.0000E+00  0.5000E+01  0.5000E+01
    -20.549  0.0000E+00  0.0000E+00  0.5000E+01  0.5000E+01
    -20.290  0.0000E+00  0.0000E+00  0.5000E+01  0.5000E+01
    -20.031  0.0000E+00  0.0000E+00  0.5000E+01  0.5000E+01
    -19.772  0.0000E+00  0.0000E+00  0.5000E+01  0.5000E+01
    -19.514  0.0000E+00  0.0000E+00  0.5000E+01  0.5000E+01
    -19.255  0.0000E+00  0.0000E+00  0.5000E+01  0.5000E+01
    -18.996  0.0000E+00  0.0000E+00  0.5000E+01  0.5000E+01
    -18.737  0.0000E+00  0.0000E+00  0.5000E+01  0.5000E+01
    -18.478  0.0000E+00  0.0000E+00  0.5000E+01  0.5000E+01
    -18.219  0.0000E+00  0.0000E+00  0.5000E+01  0.5000E+01
    -17.960  0.0000E+00  0.0000E+00  0.5000E+01  0.5000E+01
    -17.701  0.0000E+00  0.0000E+00  0.5000E+01  0.5000E+01
    -17.442  0.0000E+00  0.0000E+00  0.5000E+01  0.5000E+01
    -17.184  0.0000E+00  0.0000E+00  0.5000E+01  0.5000E+01
    -16.925  0.0000E+00  0.0000E+00  0.5000E+01  0.5000E+01
    -16.666  0.0000E+00  0.0000E+00  0.5000E+01  0.5000E+01
    -16.407  0.0000E+00  0.0000E+00  0.5000E+01  0.5000E+01
    -16.148  0.0000E+00  0.0000E+00  0.5000E+01  0.5000E+01
    -15.889  0.0000E+00  0.0000E+00  0.5000E+01  0.5000E+01
    -15.630  0.0000E+00  0.0000E+00  0.5000E+01  0.5000E+01
    -15.371  0.0000E+00  0.0000E+00  0.5000E+01  0.5000E+01
    -15.113  0.0000E+00  0.0000E+00  0.5000E+01  0.5000E+01
    -14.854  0.0000E+00  0.0000E+00  0.5000E+01  0.5000E+01
    -14.595  0.0000E+00  0.0000E+00  0.5000E+01  0.5000E+01
    -14.336  0.0000E+00  0.0000E+00  0.5000E+01  0.5000E+01
    -14.077  0.0000E+00  0.0000E+00  0.5000E+01  0.5000E+01
    -13.818  0.0000E+00  0.0000E+00  0.5000E+01  0.5000E+01
    -13.559  0.0000E+00  0.0000E+00  0.5000E+01  0.5000E+01
    -13.300  0.0000E+00  0.0000E+00  0.5000E+01  0.5000E+01
    -13.041  0.0000E+00  0.0000E+00  0.5000E+01  0.5000E+01
    -12.783  0.0000E+00  0.0000E+00  0.5000E+01  0.5000E+01
    -12.524  0.0000E+00  0.0000E+00  0.5000E+01  0.5000E+01
    -12.265  0.0000E+00  0.0000E+00  0.5000E+01  0.5000E+01
    -12.006  0.0000E+00  0.0000E+00  0.5000E+01  0.5000E+01
    -11.747  0.0000E+00  0.0000E+00  0.5000E+01  0.5000E+01
    -11.488  0.0000E+00  0.0000E+00  0.5000E+01  0.5000E+01
    -11.229  0.1943E+01  0.6731E+00  0.5209E+01  0.5005E+01
    -10.970  0.1758E+01  0.2357E+01  0.5695E+01  0.5404E+01
    -10.711  0.7087E+00  0.1477E+01  0.5950E+01  0.5842E+01
    -10.453  0.2609E+01  0.1998E+01  0.6510E+01  0.6149E+01
    -10.194  0.9311E+00  0.1697E+01  0.6826E+01  0.6679E+01
     -9.935  0.8421E+01  0.3294E+01  0.7527E+01  0.7100E+01
     -9.676  0.3969E+01  0.3897E+01  0.8428E+01  0.7992E+01
     -9.417  0.1147E+01  0.2208E+01  0.8921E+01  0.8750E+01
     -9.158  0.1182E+00  0.3904E+00  0.9000E+01  0.8999E+01
     -8.899  0.0000E+00  0.0000E+00  0.9000E+01  0.9000E+01
     -8.640  0.0000E+00  0.0000E+00  0.9000E+01  0.9000E+01
     -8.381  0.0000E+00  0.0000E+00  0.9000E+01  0.9000E+01
     -8.123  0.0000E+00  0.0000E+00  0.9000E+01  0.9000E+01
     -7.864  0.7719E-03  0.3436E-02  0.9000E+01  0.9000E+01
     -7.605  0.2897E+01  0.2896E+01  0.9318E+01  0.9320E+01
     -7.346  0.8470E+01  0.9438E+01  0.1062E+02  0.1059E+02
     -7.087  0.6198E+01  0.5960E+01  0.1218E+02  0.1213E+02
     -6.828  0.2325E+01  0.3501E+01  0.1299E+02  0.1288E+02
     -6.569  0.1180E+01  0.1017E+01  0.1313E+02  0.1309E+02
     -6.310  0.8240E+01  0.8372E+01  0.1415E+02  0.1393E+02
     -6.052  0.1472E+01  0.2391E+01  0.1500E+02  0.1500E+02
     -5.793  0.0000E+00  0.0000E+00  0.1500E+02  0.1500E+02
     -5.534  0.0000E+00  0.0000E+00  0.1500E+02  0.1500E+02
     -5.275  0.0000E+00  0.0000E+00  0.1500E+02  0.1500E+02
     -5.016  0.0000E+00  0.0000E+00  0.1500E+02  0.1500E+02
     -4.757  0.0000E+00  0.0000E+00  0.1500E+02  0.1500E+02
     -4.498  0.0000E+00  0.0000E+00  0.1500E+02  0.1500E+02
     -4.239  0.0000E+00  0.0000E+00  0.1500E+02  0.1500E+02
     -3.980  0.0000E+00  0.0000E+00  0.1500E+02  0.1500E+02
     -3.722  0.0000E+00  0.0000E+00  0.1500E+02  0.1500E+02
     -3.463  0.0000E+00  0.0000E+00  0.1500E+02  0.1500E+02
     -3.204  0.0000E+00  0.0000E+00  0.1500E+02  0.1500E+02
     -2.945  0.0000E+00  0.0000E+00  0.1500E+02  0.1500E+02
     -2.686  0.0000E+00  0.0000E+00  0.1500E+02  0.1500E+02
     -2.427  0.0000E+00  0.0000E+00  0.1500E+02  0.1500E+02
     -2.168  0.0000E+00  0.0000E+00  0.1500E+02  0.1500E+02
     -1.909  0.0000E+00  0.0000E+00  0.1500E+02  0.1500E+02
     -1.650  0.0000E+00  0.0000E+00  0.1500E+02  0.1500E+02
     -1.392  0.0000E+00  0.0000E+00  0.1500E+02  0.1500E+02
     -1.133  0.0000E+00  0.0000E+00  0.1500E+02  0.1500E+02
     -0.874  0.0000E+00  0.0000E+00  0.1500E+02  0.1500E+02
     -0.615  0.0000E+00  0.0000E+00  0.1500E+02  0.1500E+02
     -0.356  0.0000E+00  0.0000E+00  0.1500E+02  0.1500E+02
     -0.097  0.0000E+00  0.0000E+00  0.1500E+02  0.1500E+02
      0.162  0.1925E+01  0.0000E+00  0.1538E+02  0.1500E+02
      0.421  0.9904E+00  0.0000E+00  0.1565E+02  0.1500E+02
      0.679  0.7632E+00  0.0000E+00  0.1587E+02  0.1500E+02
      0.938  0.7639E+00  0.0000E+00  0.1606E+02  0.1500E+02
      1.197  0.7296E+00  0.0000E+00  0.1624E+02  0.1500E+02
      1.456  0.2381E+01  0.4008E+00  0.1654E+02  0.1506E+02
      1.715  0.1526E+01  0.4217E+00  0.1698E+02  0.1516E+02
      1.974  0.3133E+01  0.4704E+00  0.1739E+02  0.1528E+02
      2.233  0.5974E+01  0.7315E+00  0.1842E+02  0.1542E+02
      2.492  0.4847E+01  0.2325E+01  0.1946E+02  0.1588E+02
      2.751  0.2953E+01  0.4431E+01  0.2047E+02  0.1659E+02
      3.009  0.1133E+01  0.3473E+01  0.2072E+02  0.1753E+02
      3.268  0.6720E+00  0.3066E+01  0.2097E+02  0.1821E+02
      3.527  0.3156E+00  0.2395E+01  0.2107E+02  0.1876E+02
      3.786  0.1005E+01  0.3128E+01  0.2122E+02  0.1945E+02
      4.045  0.2376E+01  0.2185E+01  0.2168E+02  0.1988E+02
      4.304  0.2353E+01  0.2293E+01  0.2227E+02  0.2048E+02
      4.563  0.3442E+01  0.5575E+01  0.2283E+02  0.2125E+02
      4.822  0.7914E+01  0.7893E+01  0.2432E+02  0.2252E+02
      5.081  0.7270E+01  0.7588E+01  0.2561E+02  0.2387E+02
      5.339  0.6560E+01  0.5382E+01  0.2691E+02  0.2489E+02
      5.598  0.5252E+01  0.5261E+01  0.2815E+02  0.2618E+02
      5.857  0.5838E+01  0.5469E+01  0.2943E+02  0.2757E+02
      6.116  0.3147E+01  0.6564E+01  0.3037E+02  0.2896E+02
      6.375  0.1847E+01  0.2490E+01  0.3081E+02  0.2972E+02
      6.634  0.1486E+01  0.1210E+00  0.3125E+02  0.2985E+02
      6.893  0.1297E+01  0.4072E-01  0.3156E+02  0.2986E+02
      7.152  0.4458E+00  0.3924E-01  0.3173E+02  0.2987E+02
      7.410  0.3513E+00  0.3777E-01  0.3184E+02  0.2988E+02
      7.669  0.2299E+00  0.3630E-01  0.3191E+02  0.2989E+02
      7.928  0.1681E+00  0.3482E-01  0.3196E+02  0.2990E+02
      8.187  0.7883E-01  0.3335E-01  0.3200E+02  0.2991E+02
      8.446  0.0000E+00  0.3188E-01  0.3200E+02  0.2992E+02
      8.705  0.0000E+00  0.3040E-01  0.3200E+02  0.2993E+02
      8.964  0.0000E+00  0.2893E-01  0.3200E+02  0.2993E+02
      9.223  0.5653E-02  0.3413E-01  0.3200E+02  0.2994E+02
      9.482  0.8775E-01  0.1161E+00  0.3201E+02  0.2996E+02
      9.740  0.2047E+00  0.2286E+00  0.3205E+02  0.3000E+02
      9.999  0.3471E+00  0.3734E+00  0.3212E+02  0.3008E+02
     10.258  0.4041E+00  0.4489E+00  0.3221E+02  0.3018E+02
     10.517  0.1624E+01  0.1677E+01  0.3242E+02  0.3042E+02
     10.776  0.4646E+01  0.4583E+01  0.3320E+02  0.3123E+02
     11.035  0.1869E+02  0.1522E+02  0.3417E+02  0.3316E+02
     11.294  0.3544E+02  0.3603E+02  0.3856E+02  0.3710E+02
     11.553  0.2980E+02  0.3076E+02  0.4441E+02  0.4323E+02
     11.812  0.5438E+01  0.4326E+01  0.4613E+02  0.4491E+02
     12.070  0.2594E+01  0.1924E+01  0.4653E+02  0.4538E+02
     12.329  0.2444E+01  0.2556E+01  0.4716E+02  0.4602E+02
     12.588  0.2181E+01  0.3467E+01  0.4777E+02  0.4675E+02
     12.847  0.3292E+00  0.1796E+01  0.4800E+02  0.4738E+02
     13.106  0.0000E+00  0.1151E+01  0.4800E+02  0.4777E+02
     13.365  0.0000E+00  0.4756E+00  0.4800E+02  0.4799E+02
     13.624  0.0000E+00  0.0000E+00  0.4800E+02  0.4800E+02
     13.883  0.0000E+00  0.0000E+00  0.4800E+02  0.4800E+02
     14.141  0.0000E+00  0.0000E+00  0.4800E+02  0.4800E+02
     14.400  0.0000E+00  0.0000E+00  0.4800E+02  0.4800E+02
     14.659  0.0000E+00  0.0000E+00  0.4800E+02  0.4800E+02
     14.918  0.0000E+00  0.0000E+00  0.4800E+02  0.4800E+02
     15.177  0.0000E+00  0.0000E+00  0.4800E+02  0.4800E+02
     15.436  0.0000E+00  0.0000E+00  0.4800E+02  0.4800E+02
     15.695  0.0000E+00  0.0000E+00  0.4800E+02  0.4800E+02
     15.954  0.0000E+00  0.0000E+00  0.4800E+02  0.4800E+02
     16.213  0.0000E+00  0.0000E+00  0.4800E+02  0.4800E+02
     16.471  0.0000E+00  0.0000E+00  0.4800E+02  0.4800E+02
     16.730  0.0000E+00  0.0000E+00  0.4800E+02  0.4800E+02
     16.989  0.0000E+00  0.0000E+00  0.4800E+02  0.4800E+02
     16.98921617    -60.67623762  301      9.59883425      1.00000000
    -60.676  0.0000E+00  0.0000E+00  0.0000E+00  0.0000E+00  0.0000E+00  0.0000E+00  0.0000E+00  0.0000E+00  0.0000E+00  0.0000E+00  0.0000E+00  0.0000E+00  0.0000E+00  0.0000E+00  0.0000E+00  0.0000E+00  0.0000E+00  0.0000E+00  0.0000E+00  0.0000E+00  0.0000E+00  0.0000E+00  0.0000E+00  0.0000E+00  0.0000E+00  0.0000E+00  0.0000E+00  0.0000E+00  0.0000E+00  0.0000E+00  0.0000E+00  0.0000E+00
    -60.417  0.0000E+00  0.0000E+00  0.0000E+00  0.0000E+00  0.0000E+00  0.0000E+00  0.0000E+00  0.0000E+00  0.0000E+00  0.0000E+00  0.0000E+00  0.0000E+00  0.0000E+00  0.0000E+00  0.0000E+00  0.0000E+00  0.0000E+00  0.0000E+00  0.0000E+00  0.0000E+00  0.0000E+00  0.0000E+00  0.0000E+00  0.0000E+00  0.0000E+00  0.0000E+00  0.0000E+00  0.0000E+00  0.0000E+00  0.0000E+00  0.0000E+00  0.0000E+00
    -60.158  0.0000E+00  0.0000E+00  0.0000E+00  0.0000E+00  0.0000E+00  0.0000E+00  0.0000E+00  0.0000E+00  0.0000E+00  0.0000E+00  0.0000E+00  0.0000E+00  0.0000E+00  0.0000E+00  0.0000E+00  0.0000E+00  0.0000E+00  0.0000E+00  0.0000E+00  0.0000E+00  0.0000E+00  0.0000E+00  0.0000E+00  0.0000E+00  0.0000E+00  0.0000E+00  0.0000E+00  0.0000E+00  0.0000E+00  0.0000E+00  0.0000E+00  0.0000E+00
    -59.900  0.0000E+00  0.0000E+00  0.0000E+00  0.0000E+00  0.0000E+00  0.0000E+00  0.0000E+00  0.0000E+00  0.0000E+00  0.0000E+00  0.0000E+00  0.0000E+00  0.0000E+00  0.0000E+00  0.0000E+00  0.0000E+00  0.0000E+00  0.0000E+00  0.0000E+00  0.0000E+00  0.0000E+00  0.0000E+00  0.0000E+00  0.0000E+00  0.0000E+00  0.0000E+00  0.0000E+00  0.0000E+00  0.0000E+00  0.0000E+00  0.0000E+00  0.0000E+00
    -59.641  0.0000E+00  0.0000E+00  0.0000E+00  0.0000E+00  0.0000E+00  0.0000E+00  0.0000E+00  0.0000E+00  0.0000E+00  0.0000E+00  0.0000E+00  0.0000E+00  0.0000E+00  0.0000E+00  0.0000E+00  0.0000E+00  0.0000E+00  0.0000E+00  0.0000E+00  0.0000E+00  0.0000E+00  0.0000E+00  0.0000E+00  0.0000E+00  0.0000E+00  0.0000E+00  0.0000E+00  0.0000E+00  0.0000E+00  0.0000E+00  0.0000E+00  0.0000E+00
    -59.382  0.0000E+00  0.0000E+00  0.0000E+00  0.0000E+00  0.0000E+00  0.0000E+00  0.0000E+00  0.0000E+00  0.0000E+00  0.0000E+00  0.0000E+00  0.0000E+00  0.0000E+00  0.0000E+00  0.0000E+00  0.0000E+00  0.0000E+00  0.0000E+00  0.0000E+00  0.0000E+00  0.0000E+00  0.0000E+00  0.0000E+00  0.0000E+00  0.0000E+00  0.0000E+00  0.0000E+00  0.0000E+00  0.0000E+00  0.0000E+00  0.0000E+00  0.0000E+00
    -59.123  0.0000E+00  0.0000E+00  0.0000E+00  0.0000E+00  0.0000E+00  0.0000E+00  0.0000E+00  0.0000E+00  0.0000E+00  0.0000E+00  0.0000E+00  0.0000E+00  0.0000E+00  0.0000E+00  0.0000E+00  0.0000E+00  0.0000E+00  0.0000E+00  0.0000E+00  0.0000E+00  0.0000E+00  0.0000E+00  0.0000E+00  0.0000E+00  0.0000E+00  0.0000E+00  0.0000E+00  0.0000E+00  0.0000E+00  0.0000E+00  0.0000E+00  0.0000E+00
    -58.864  0.0000E+00  0.0000E+00  0.0000E+00  0.0000E+00  0.0000E+00  0.0000E+00  0.0000E+00  0.0000E+00  0.0000E+00  0.0000E+00  0.0000E+00  0.0000E+00  0.0000E+00  0.0000E+00  0.0000E+00  0.0000E+00  0.0000E+00  0.0000E+00  0.0000E+00  0.0000E+00  0.0000E+00  0.0000E+00  0.0000E+00  0.0000E+00  0.0000E+00  0.0000E+00  0.0000E+00  0.0000E+00  0.0000E+00  0.0000E+00  0.0000E+00  0.0000E+00
    -58.605  0.0000E+00  0.0000E+00  0.0000E+00  0.0000E+00  0.0000E+00  0.0000E+00  0.0000E+00  0.0000E+00  0.0000E+00  0.0000E+00  0.0000E+00  0.0000E+00  0.0000E+00  0.0000E+00  0.0000E+00  0.0000E+00  0.0000E+00  0.0000E+00  0.0000E+00  0.0000E+00  0.0000E+00  0.0000E+00  0.0000E+00  0.0000E+00  0.0000E+00  0.0000E+00  0.0000E+00  0.0000E+00  0.0000E+00  0.0000E+00  0.0000E+00  0.0000E+00
    -58.346  0.0000E+00  0.0000E+00  0.0000E+00  0.0000E+00  0.0000E+00  0.0000E+00  0.0000E+00  0.0000E+00  0.0000E+00  0.0000E+00  0.0000E+00  0.0000E+00  0.0000E+00  0.0000E+00  0.0000E+00  0.0000E+00  0.0000E+00  0.0000E+00  0.0000E+00  0.0000E+00  0.0000E+00  0.0000E+00  0.0000E+00  0.0000E+00  0.0000E+00  0.0000E+00  0.0000E+00  0.0000E+00  0.0000E+00  0.0000E+00  0.0000E+00  0.0000E+00
    -58.087  0.0000E+00  0.0000E+00  0.0000E+00  0.0000E+00  0.0000E+00  0.0000E+00  0.0000E+00  0.0000E+00  0.0000E+00  0.0000E+00  0.0000E+00  0.0000E+00  0.0000E+00  0.0000E+00  0.0000E+00  0.0000E+00  0.0000E+00  0.0000E+00  0.0000E+00  0.0000E+00  0.0000E+00  0.0000E+00  0.0000E+00  0.0000E+00  0.0000E+00  0.0000E+00  0.0000E+00  0.0000E+00  0.0000E+00  0.0000E+00  0.0000E+00  0.0000E+00
    -57.829  0.0000E+00  0.0000E+00  0.0000E+00  0.0000E+00  0.0000E+00  0.0000E+00  0.0000E+00  0.0000E+00  0.0000E+00  0.0000E+00  0.0000E+00  0.0000E+00  0.0000E+00  0.0000E+00  0.0000E+00  0.0000E+00  0.0000E+00  0.0000E+00  0.0000E+00  0.0000E+00  0.0000E+00  0.0000E+00  0.0000E+00  0.0000E+00  0.0000E+00  0.0000E+00  0.0000E+00  0.0000E+00  0.0000E+00  0.0000E+00  0.0000E+00  0.0000E+00
    -57.570  0.0000E+00  0.0000E+00  0.0000E+00  0.0000E+00  0.0000E+00  0.0000E+00  0.0000E+00  0.0000E+00  0.0000E+00  0.0000E+00  0.0000E+00  0.0000E+00  0.0000E+00  0.0000E+00  0.0000E+00  0.0000E+00  0.0000E+00  0.0000E+00  0.0000E+00  0.0000E+00  0.0000E+00  0.0000E+00  0.0000E+00  0.0000E+00  0.0000E+00  0.0000E+00  0.0000E+00  0.0000E+00  0.0000E+00  0.0000E+00  0.0000E+00  0.0000E+00
    -57.311  0.0000E+00  0.0000E+00  0.0000E+00  0.0000E+00  0.0000E+00  0.0000E+00  0.0000E+00  0.0000E+00  0.0000E+00  0.0000E+00  0.0000E+00  0.0000E+00  0.0000E+00  0.0000E+00  0.0000E+00  0.0000E+00  0.0000E+00  0.0000E+00  0.0000E+00  0.0000E+00  0.0000E+00  0.0000E+00  0.0000E+00  0.0000E+00  0.0000E+00  0.0000E+00  0.0000E+00  0.0000E+00  0.0000E+00  0.0000E+00  0.0000E+00  0.0000E+00
    -57.052  0.5903E-06  0.0000E+00  0.2722E-06  0.0000E+00  0.2224E-06  0.0000E+00  0.2722E-06  0.0000E+00  0.5979E-06  0.0000E+00  0.4953E-06  0.0000E+00  0.2473E-07  0.0000E+00  0.4953E-06  0.0000E+00  0.2281E-07  0.0000E+00  0.8299E-07  0.0000E+00  0.3687E-06  0.0000E+00  0.2553E-07  0.0000E+00  0.1476E-06  0.0000E+00  0.2553E-07  0.0000E+00  0.1608E-07  0.0000E+00  0.8299E-07  0.0000E+00
    -56.793  0.0000E+00  0.0000E+00  0.0000E+00  0.0000E+00  0.0000E+00  0.0000E+00  0.0000E+00  0.0000E+00  0.0000E+00  0.0000E+00  0.0000E+00  0.0000E+00  0.0000E+00  0.0000E+00  0.0000E+00  0.0000E+00  0.0000E+00  0.0000E+00  0.0000E+00  0.0000E+00  0.0000E+00  0.0000E+00  0.0000E+00  0.0000E+00  0.0000E+00  0.0000E+00  0.0000E+00  0.0000E+00  0.0000E+00  0.0000E+00  0.0000E+00  0.0000E+00
    -56.534  0.0000E+00  0.0000E+00  0.0000E+00  0.0000E+00  0.0000E+00  0.0000E+00  0.0000E+00  0.0000E+00  0.0000E+00  0.0000E+00  0.0000E+00  0.0000E+00  0.0000E+00  0.0000E+00  0.0000E+00  0.0000E+00  0.0000E+00  0.0000E+00  0.0000E+00  0.0000E+00  0.0000E+00  0.0000E+00  0.0000E+00  0.0000E+00  0.0000E+00  0.0000E+00  0.0000E+00  0.0000E+00  0.0000E+00  0.0000E+00  0.0000E+00  0.0000E+00
    -56.275  0.0000E+00  0.0000E+00  0.0000E+00  0.0000E+00  0.0000E+00  0.0000E+00  0.0000E+00  0.0000E+00  0.0000E+00  0.0000E+00  0.0000E+00  0.0000E+00  0.0000E+00  0.0000E+00  0.0000E+00  0.0000E+00  0.0000E+00  0.0000E+00  0.0000E+00  0.0000E+00  0.0000E+00  0.0000E+00  0.0000E+00  0.0000E+00  0.0000E+00  0.0000E+00  0.0000E+00  0.0000E+00  0.0000E+00  0.0000E+00  0.0000E+00  0.0000E+00
    -56.016  0.0000E+00  0.0000E+00  0.0000E+00  0.0000E+00  0.0000E+00  0.0000E+00  0.0000E+00  0.0000E+00  0.0000E+00  0.0000E+00  0.0000E+00  0.0000E+00  0.0000E+00  0.0000E+00  0.0000E+00  0.0000E+00  0.0000E+00  0.0000E+00  0.0000E+00  0.0000E+00  0.0000E+00  0.0000E+00  0.0000E+00  0.0000E+00  0.0000E+00  0.0000E+00  0.0000E+00  0.0000E+00  0.0000E+00  0.0000E+00  0.0000E+00  0.0000E+00
    -55.757  0.0000E+00  0.0000E+00  0.0000E+00  0.0000E+00  0.0000E+00  0.0000E+00  0.0000E+00  0.0000E+00  0.0000E+00  0.0000E+00  0.0000E+00  0.0000E+00  0.0000E+00  0.0000E+00  0.0000E+00  0.0000E+00  0.0000E+00  0.0000E+00  0.0000E+00  0.0000E+00  0.0000E+00  0.0000E+00  0.0000E+00  0.0000E+00  0.0000E+00  0.0000E+00  0.0000E+00  0.0000E+00  0.0000E+00  0.0000E+00  0.0000E+00  0.0000E+00
    -55.499  0.0000E+00  0.0000E+00  0.0000E+00  0.0000E+00  0.0000E+00  0.0000E+00  0.0000E+00  0.0000E+00  0.0000E+00  0.0000E+00  0.0000E+00  0.0000E+00  0.0000E+00  0.0000E+00  0.0000E+00  0.0000E+00  0.0000E+00  0.0000E+00  0.0000E+00  0.0000E+00  0.0000E+00  0.0000E+00  0.0000E+00  0.0000E+00  0.0000E+00  0.0000E+00  0.0000E+00  0.0000E+00  0.0000E+00  0.0000E+00  0.0000E+00  0.0000E+00
    -55.240  0.0000E+00  0.0000E+00  0.0000E+00  0.0000E+00  0.0000E+00  0.0000E+00  0.0000E+00  0.0000E+00  0.0000E+00  0.0000E+00  0.0000E+00  0.0000E+00  0.0000E+00  0.0000E+00  0.0000E+00  0.0000E+00  0.0000E+00  0.0000E+00  0.0000E+00  0.0000E+00  0.0000E+00  0.0000E+00  0.0000E+00  0.0000E+00  0.0000E+00  0.0000E+00  0.0000E+00  0.0000E+00  0.0000E+00  0.0000E+00  0.0000E+00  0.0000E+00
    -54.981  0.0000E+00  0.0000E+00  0.0000E+00  0.0000E+00  0.0000E+00  0.0000E+00  0.0000E+00  0.0000E+00  0.0000E+00  0.0000E+00  0.0000E+00  0.0000E+00  0.0000E+00  0.0000E+00  0.0000E+00  0.0000E+00  0.0000E+00  0.0000E+00  0.0000E+00  0.0000E+00  0.0000E+00  0.0000E+00  0.0000E+00  0.0000E+00  0.0000E+00  0.0000E+00  0.0000E+00  0.0000E+00  0.0000E+00  0.0000E+00  0.0000E+00  0.0000E+00
    -54.722  0.0000E+00  0.7838E-06  0.0000E+00  0.3599E-06  0.0000E+00  0.2947E-06  0.0000E+00  0.3599E-06  0.0000E+00  0.7209E-06  0.0000E+00  0.6013E-06  0.0000E+00  0.2936E-07  0.0000E+00  0.6013E-06  0.0000E+00  0.2762E-07  0.0000E+00  0.1023E-06  0.0000E+00  0.4522E-06  0.0000E+00  0.3119E-07  0.0000E+00  0.1606E-06  0.0000E+00  0.3119E-07  0.0000E+00  0.1738E-07  0.0000E+00  0.1023E-06
    -54.463  0.0000E+00  0.0000E+00  0.0000E+00  0.0000E+00  0.0000E+00  0.0000E+00  0.0000E+00  0.0000E+00  0.0000E+00  0.0000E+00  0.0000E+00  0.0000E+00  0.0000E+00  0.0000E+00  0.0000E+00  0.0000E+00  0.0000E+00  0.0000E+00  0.0000E+00  0.0000E+00  0.0000E+00  0.0000E+00  0.0000E+00  0.0000E+00  0.0000E+00  0.0000E+00  0.0000E+00  0.0000E+00  0.0000E+00  0.0000E+00  0.0000E+00  0.0000E+00
    -54.204  0.0000E+00  0.0000E+00  0.0000E+00  0.0000E+00  0.0000E+00  0.0000E+00  0.0000E+00  0.0000E+00  0.0000E+00  0.0000E+00  0.0000E+00  0.0000E+00  0.0000E+00  0.0000E+00  0.0000E+00  0.0000E+00  0.0000E+00  0.0000E+00  0.0000E+00  0.0000E+00  0.0000E+00  0.0000E+00  0.0000E+00  0.0000E+00  0.0000E+00  0.0000E+00  0.0000E+00  0.0000E+00  0.0000E+00  0.0000E+00  0.0000E+00  0.0000E+00
    -53.945  0.0000E+00  0.0000E+00  0.0000E+00  0.0000E+00  0.0000E+00  0.0000E+00  0.0000E+00  0.0000E+00  0.0000E+00  0.0000E+00  0.0000E+00  0.0000E+00  0.0000E+00  0.0000E+00  0.0000E+00  0.0000E+00  0.0000E+00  0.0000E+00  0.0000E+00  0.0000E+00  0.0000E+00  0.0000E+00  0.0000E+00  0.0000E+00  0.0000E+00  0.0000E+00  0.0000E+00  0.0000E+00  0.0000E+00  0.0000E+00  0.0000E+00  0.0000E+00
    -53.686  0.0000E+00  0.0000E+00  0.0000E+00  0.0000E+00  0.0000E+00  0.0000E+00  0.0000E+00  0.0000E+00  0.0000E+00  0.0000E+00  0.0000E+00  0.0000E+00  0.0000E+00  0.0000E+00  0.0000E+00  0.0000E+00  0.0000E+00  0.0000E+00  0.0000E+00  0.0000E+00  0.0000E+00  0.0000E+00  0.0000E+00  0.0000E+00  0.0000E+00  0.0000E+00  0.0000E+00  0.0000E+00  0.0000E+00  0.0000E+00  0.0000E+00  0.0000E+00
    -53.427  0.0000E+00  0.0000E+00  0.0000E+00  0.0000E+00  0.0000E+00  0.0000E+00  0.0000E+00  0.0000E+00  0.0000E+00  0.0000E+00  0.0000E+00  0.0000E+00  0.0000E+00  0.0000E+00  0.0000E+00  0.0000E+00  0.0000E+00  0.0000E+00  0.0000E+00  0.0000E+00  0.0000E+00  0.0000E+00  0.0000E+00  0.0000E+00  0.0000E+00  0.0000E+00  0.0000E+00  0.0000E+00  0.0000E+00  0.0000E+00  0.0000E+00  0.0000E+00