    7    7    1    2
  0.1377105E+02  0.3924090E-09  0.3924090E-09  0.6847566E-09  0.5000000E-15
   1.0000000000000000E-004
  CAR 
 unknown system                          
     62     60     48

  0.1262379E-14  0.1262379E-14  0.1262379E-14  0.5102041E-02
    1      -57.145963    -54.980028   1.000000   1.000000
    2      -57.056974    -54.859967   1.000000   1.000000
    3      -57.056956    -54.859224   1.000000   1.000000
    4      -23.822909    -23.823871   1.000000   1.000000
    5      -23.610378    -23.611995   1.000000   1.000000
    6      -11.409397    -11.251052   1.000000   1.000000
    7       -9.849966     -9.771887   1.000000   1.000000
    8       -9.816002     -9.503660   1.000000   1.000000
    9       -9.561577     -9.418028   1.000000   1.000000
   10       -7.289803     -7.294610   1.000000   1.000000
   11       -7.289802     -7.294610   1.000000   1.000000
   12       -7.279521     -7.283739   1.000000   1.000000
   13       -7.279521     -7.283739   1.000000   1.000000
   14       -6.551948     -6.543196   1.000000   1.000000
   15       -6.087840     -5.979653   1.000000   1.000000
   16        1.567967      3.149609   1.000000   1.000000
   17        2.374407      3.149621   1.000000   1.000000
   18        2.795010      3.527738   1.000000   1.000000
   19        2.795016      3.783493   1.000000   1.000000
   20        2.800663      3.783687   1.000000   1.000000
   21        2.961930      3.812655   1.000000   1.000000
   22        2.961931      4.163954   1.000000   1.000000
   23        3.442236      4.282402   1.000000   1.000000
   24        4.228294      5.323082   1.000000   1.000000
   25        4.879465      5.323084   1.000000   1.000000
   26        5.217262      5.361372   1.000000   1.000000
   27        5.217262      5.361390   1.000000   1.000000
   28        5.281786      6.166242   1.000000   1.000000
   29        5.281787      6.166244   1.000000   1.000000
   30        6.049141      6.496278   1.000000   1.000000
   31        6.049141      9.828473   1.000000   0.004222
   32        6.386478     10.547225   1.000000   0.000000
   33        9.823877     10.764166   0.004447   0.000000
   34       10.550764     10.797812   0.000000   0.000000
   35       10.771969     11.062597   0.000000   0.000000
   36       11.039120     11.140284   0.000000   0.000000
   37       11.133631     11.239812   0.000000   0.000000
   38       11.232898     11.239817   0.000000   0.000000
   39       11.232899     11.404536   0.000000   0.000000
   40       11.404130     11.428463   0.000000   0.000000
   41       11.425841     11.428467   0.000000   0.000000
   42       11.425841     11.433674   0.000000   0.000000
   43       11.431824     11.504172   0.000000   0.000000
   44       11.503478     11.504192   0.000000   0.000000
   45       11.503514     11.696015   0.000000   0.000000
   46       11.691591     11.696081   0.000000   0.000000
   47       11.691594     11.780566   0.000000   0.000000
   48       11.782317     12.485781   0.000000   0.000000

  0.1428571E+00  0.1262379E-14  0.1292714E-14  0.2040816E-01
    1      -57.145990    -54.980025   1.000000   1.000000
    2      -57.057090    -54.860075   1.000000   1.000000
    3      -57.056950    -54.859186   1.000000   1.000000
    4      -23.805266    -23.806292   1.000000   1.000000
    5      -23.608890    -23.610495   1.000000   1.000000
    6      -11.326266    -11.169525   1.000000   1.000000
    7      -10.078892     -9.955195   1.000000   1.000000
    8       -9.796675     -9.579959   1.000000   1.000000
    9       -9.634918     -9.488807   1.000000   1.000000
   10       -7.307241     -7.311632   1.000000   1.000000
   11       -7.297197     -7.298772   1.000000   1.000000
   12       -7.228359     -7.233104   1.000000   1.000000
   13       -7.084395     -7.065281   1.000000   1.000000
   14       -6.509731     -6.498085   1.000000   1.000000
   15       -6.178341     -6.080187   1.000000   1.000000
   16        1.430033      2.984892   1.000000   1.000000
   17        1.757213      3.056775   1.000000   1.000000
   18        2.525864      3.135060   1.000000   1.000000
   19        2.550324      3.744080   1.000000   1.000000
   20        2.772597      3.805946   1.000000   1.000000
   21        3.181260      3.907572   1.000000   1.000000
   22        3.388083      4.367148   1.000000   1.000000
   23        3.603165      4.660016   1.000000   1.000000
   24        4.443300      5.120360   1.000000   1.000000
   25        5.071250      5.200036   1.000000   1.000000
   26        5.072824      5.412951   1.000000   1.000000
   27        5.091188      5.450060   1.000000   1.000000
   28        5.327425      5.774446   1.000000   1.000000
   29        5.362564      6.062092   1.000000   1.000000
   30        5.898920      6.474051   1.000000   1.000000
   31        5.920413      9.957501   1.000000  -0.016194
   32        6.397683     10.619744   1.000000   0.000000
   33        9.951997     10.820025  -0.015562   0.000000
   34       10.626026     10.939650   0.000000   0.000000
   35       10.949705     11.173487   0.000000   0.000000
   36       11.166334     11.245453   0.000000   0.000000
   37       11.238213     11.268908   0.000000   0.000000
   38       11.256951     11.300934   0.000000   0.000000
   39       11.279072     11.401115   0.000000   0.000000
   40       11.397952     11.412935   0.000000   0.000000
   41       11.413763     11.415164   0.000000   0.000000
   42       11.415333     11.472240   0.000000   0.000000
   43       11.470846     11.492641   0.000000   0.000000
   44       11.492487     11.649472   0.000000   0.000000
   45       11.644740     11.675893   0.000000   0.000000
   46       11.673475     11.718228   0.000000   0.000000
   47       11.713743     11.831066   0.000000   0.000000
   48       11.824801     12.355167   0.000000   0.000000

  0.2857143E+00  0.1262379E-14  0.1228485E-14  0.2040816E-01
    1      -57.145858    -54.979928   1.000000   1.000000
    2      -57.057169    -54.860155   1.000000   1.000000
    3      -57.056986    -54.859226   1.000000   1.000000
    4      -23.762969    -23.764155   1.000000   1.000000
    5      -23.607778    -23.609336   1.000000   1.000000
    6      -11.141007    -10.986601   1.000000   1.000000
    7      -10.498821    -10.371817   1.000000   1.000000
    8       -9.797060     -9.716725   1.000000   1.000000
    9       -9.714442     -9.517367   1.000000   1.000000
   10       -7.328218     -7.322210   1.000000   1.000000
   11       -7.300350     -7.304571   1.000000   1.000000
   12       -7.158528     -7.163709   1.000000   1.000000
   13       -6.884778     -6.839502   1.000000   1.000000
   14       -6.361562     -6.335117   1.000000   1.000000
   15       -6.312771     -6.250229   1.000000   1.000000
   16        0.618935      2.667344   1.000000   1.000000
   17        1.646840      2.800318   1.000000   1.000000
   18        2.151607      2.886273   1.000000   1.000000
   19        2.289183      3.641974   1.000000   1.000000
   20        2.715703      3.725406   1.000000   1.000000
   21        3.343362      3.994520   1.000000   1.000000
   22        3.661675      4.537749   1.000000   1.000000
   23        3.879179      4.952268   1.000000   1.000000
   24        4.755858      5.115118   1.000000   1.000000
   25        4.832986      5.135868   1.000000   1.000000
   26        4.913942      5.161353   1.000000   1.000000
   27        5.077421      5.471803   1.000000   1.000000
   28        5.316984      5.504881   1.000000   1.000000
   29        5.457546      5.893859   1.000000   1.000000
   30        5.648068      6.384055   1.000000   1.000000
   31        6.024863     10.377907   1.000000   0.000000
   32        6.503725     10.675773   1.000000   0.000000
   33       10.377600     10.829496   0.000000   0.000000
   34       10.680962     11.021434   0.000000   0.000000
   35       11.072682     11.234390   0.000000   0.000000
   36       11.227035     11.270297   0.000000   0.000000
   37       11.261269     11.276761   0.000000   0.000000
   38       11.316529     11.363529   0.000000   0.000000
   39       11.373832     11.377557   0.000000   0.000000
   40       11.379300     11.389399   0.000000   0.000000
   41       11.401236     11.403134   0.000000   0.000000
   42       11.403437     11.431615   0.000000   0.000000
   43       11.421517     11.480410   0.000000   0.000000
   44       11.480602     11.516180   0.000000   0.000000
   45       11.577938     11.581224   0.000000   0.000000
   46       11.664189     11.747440   0.000000   0.000000
   47       11.991411     11.996709   0.000000   0.000000
   48       12.403895     12.447175   0.000000   0.000000

  0.4285714E+00  0.1262379E-14  0.1294191E-14  0.2040816E-01
    1      -57.145792    -54.979868   1.000000   1.000000
    2      -57.057372    -54.860402   1.000000   1.000000
    3      -57.056930    -54.859190   1.000000   1.000000
    4      -23.724488    -23.725815   1.000000   1.000000
    5      -23.611062    -23.612571   1.000000   1.000000
    6      -11.058094    -10.895291   1.000000   1.000000
    7      -10.701216    -10.606538   1.000000   1.000000
    8       -9.817797     -9.722082   1.000000   1.000000
    9       -9.736001     -9.588051   1.000000   1.000000
   10       -7.393585     -7.380419   1.000000   1.000000
   11       -7.286785     -7.290876   1.000000   1.000000
   12       -7.109581     -7.115126   1.000000   1.000000
   13       -6.908313     -6.856339   1.000000   1.000000
   14       -6.375889     -6.341120   1.000000   1.000000
   15       -6.151142     -6.115815   1.000000   1.000000
   16        0.065665      2.416036   1.000000   1.000000
   17        1.645177      2.724963   1.000000   1.000000
   18        1.942019      2.771698   1.000000   1.000000
   19        2.140980      3.548857   1.000000   1.000000
   20        2.663089      3.617694   1.000000   1.000000
   21        3.375029      3.895271   1.000000   1.000000
   22        3.766925      4.539194   1.000000   1.000000
   23        4.258045      4.867764   1.000000   1.000000
   24        4.571644      5.040636   1.000000   1.000000
   25        4.636088      5.096743   1.000000   1.000000
   26        4.907721      5.158800   1.000000   1.000000
   27        4.952762      5.346011   1.000000   1.000000
   28        5.232765      5.853747   1.000000   1.000000
   29        5.460313      5.900165   1.000000   1.000000
   30        5.756967      6.212960   1.000000   1.000000
   31        6.023754     10.719525   1.000000   0.000000
   32        6.757695     10.835842   1.000000   0.000000
   33       10.725312     10.847727   0.000000   0.000000
   34       10.851083     10.992648   0.000000   0.000000
   35       11.027756     11.267310   0.000000   0.000000
   36       11.258491     11.304726   0.000000   0.000000
   37       11.301315     11.311488   0.000000   0.000000
   38       11.314245     11.332318   0.000000   0.000000
   39       11.342409     11.363965   0.000000   0.000000
   40       11.361645     11.375403   0.000000   0.000000
   41       11.372356     11.379806   0.000000   0.000000
   42       11.378604     11.446050   0.000000   0.000000
   43       11.441664     11.495739   0.000000   0.000000
   44       11.495709     11.512599   0.000000   0.000000
   45       11.527084     11.528824   0.000000   0.000000
   46       11.579005     11.825225   0.000000   0.000000
   47       12.360219     12.371588   0.000000   0.000000
   48       12.627940     12.649924   0.000000   0.000000

  0.1428571E+00  0.1428571E+00  0.1293261E-14  0.1020408E-01
    1      -57.145919    -54.979984   1.000000   1.000000
    2      -57.057175    -54.860165   1.000000   1.000000
    3      -57.057134    -54.859422   1.000000   1.000000
    4      -23.784191    -23.785294   1.000000   1.000000
    5      -23.611396    -23.612967   1.000000   1.000000
    6      -11.260781    -11.109142   1.000000   1.000000
    7      -10.061228    -10.001940   1.000000   1.000000
    8       -9.989894     -9.669582   1.000000   1.000000
    9       -9.630371     -9.559506   1.000000   1.000000
   10       -7.400938     -7.401296   1.000000   1.000000
   11       -7.261826     -7.263732   1.000000   1.000000
   12       -7.149997     -7.123161   1.000000   1.000000
   13       -7.047356     -7.040879   1.000000   1.000000
   14       -6.456910     -6.440334   1.000000   1.000000
   15       -6.257566     -6.176334   1.000000   1.000000
   16        1.399443      2.615602   1.000000   1.000000
   17        1.437460      3.067952   1.000000   1.000000
   18        2.279652      3.399017   1.000000   1.000000
   19        2.464747      3.466473   1.000000   1.000000
   20        2.629201      3.558057   1.000000   1.000000
   21        2.872266      4.211400   1.000000   1.000000
   22        3.799379      4.513262   1.000000   1.000000
   23        3.975680      4.832410   1.000000   1.000000
   24        4.621833      5.003096   1.000000   1.000000
   25        4.870784      5.133285   1.000000   1.000000
   26        5.041441      5.382834   1.000000   1.000000
   27        5.075104      5.521460   1.000000   1.000000
   28        5.370856      5.620823   1.000000   1.000000
   29        5.532677      6.060780   1.000000   1.000000
   30        5.656376      6.385786   1.000000   1.000000
   31        6.248105     10.066339   1.000000  -0.038629
   32        6.369775     10.633474   1.000000   0.000000
   33       10.063644     10.892396  -0.037043   0.000000
   34       10.634031     11.038672   0.000000   0.000000
   35       11.046896     11.159903   0.000000   0.000000
   36       11.134472     11.251722   0.000000   0.000000
   37       11.253169     11.263259   0.000000   0.000000
   38       11.253714     11.295148   0.000000   0.000000
   39       11.284933     11.404000   0.000000   0.000000
   40       11.400676     11.421425   0.000000   0.000000
   41       11.423722     11.456326   0.000000   0.000000
   42       11.456216     11.481158   0.000000   0.000000
   43       11.478949     11.507238   0.000000   0.000000
   44       11.497028     11.628265   0.000000   0.000000
   45       11.620561     11.633248   0.000000   0.000000
   46       11.633888     11.870428   0.000000   0.000000
   47       11.865283     11.963257   0.000000   0.000000
   48       11.930079     12.373019   0.000000   0.000000

  0.2857143E+00  0.1428571E+00  0.1207313E-14  0.2040816E-01
    1      -57.145856    -54.979931   1.000000   1.000000
    2      -57.057152    -54.860135   1.000000   1.000000
    3      -57.057062    -54.859311   1.000000   1.000000
    4      -23.742365    -23.743617   1.000000   1.000000
    5      -23.610516    -23.612043   1.000000   1.000000
    6      -11.127244    -10.986440   1.000000   1.000000
    7      -10.389497    -10.261589   1.000000   1.000000
    8       -9.917584     -9.742336   1.000000   1.000000
    9       -9.675325     -9.589281   1.000000   1.000000
   10       -7.447147     -7.445037   1.000000   1.000000
   11       -7.356145     -7.355273   1.000000   1.000000
   12       -7.107562     -7.096584   1.000000   1.000000
   13       -6.995330     -6.955102   1.000000   1.000000
   14       -6.351659     -6.300414   1.000000   1.000000
   15       -6.297792     -6.272148   1.000000   1.000000
   16        0.605551      2.365653   1.000000   1.000000
   17        1.429741      2.795694   1.000000   1.000000
   18        2.105825      3.035314   1.000000   1.000000
   19        2.210053      3.389695   1.000000   1.000000
   20        2.583393      3.736133   1.000000   1.000000
   21        2.730477      4.256891   1.000000   1.000000
   22        3.968011      4.653254   1.000000   1.000000
   23        4.368148      4.784944   1.000000   1.000000
   24        4.742261      5.089105   1.000000   1.000000
   25        4.831986      5.149697   1.000000   1.000000
   26        4.987345      5.327518   1.000000   1.000000
   27        5.046564      5.556761   1.000000   1.000000
   28        5.392826      5.608795   1.000000   1.000000
   29        5.581189      5.953272   1.000000   1.000000
   30        5.864470      6.298899   1.000000   1.000000
   31        6.157997     10.476601   1.000000   0.000000
   32        6.645198     10.687263   1.000000   0.000000
   33       10.482036     10.921812   0.000000   0.000000
   34       10.686381     11.085024   0.000000   0.000000
   35       11.089765     11.176484   0.000000   0.000000
   36       11.158991     11.252136   0.000000   0.000000
   37       11.250576     11.289883   0.000000   0.000000
   38       11.279869     11.319787   0.000000   0.000000
   39       11.308482     11.361729   0.000000   0.000000
   40       11.356805     11.415005   0.000000   0.000000
   41       11.417623     11.446653   0.000000   0.000000
   42       11.440001     11.461146   0.000000   0.000000
   43       11.460666     11.488273   0.000000   0.000000
   44       11.486797     11.552523   0.000000   0.000000
   45       11.544129     11.653430   0.000000   0.000000
   46       11.635733     12.177656   0.000000   0.000000
   47       12.159951     12.394261   0.000000   0.000000
   48       12.374651     12.631814   0.000000   0.000000

  0.4285714E+00  0.1428571E+00  0.1365932E-14  0.2040816E-01
    1      -57.145844    -54.979932   1.000000   1.000000
    2      -57.057317    -54.860352   1.000000   1.000000
    3      -57.056983    -54.859219   1.000000   1.000000
    4      -23.710273    -23.711647   1.000000   1.000000
    5      -23.607789    -23.609279   1.000000   1.000000
    6      -11.038609    -10.896166   1.000000   1.000000
    7      -10.601158    -10.488363   1.000000   1.000000
    8       -9.878793     -9.772590   1.000000   1.000000
    9       -9.683460     -9.564226   1.000000   1.000000
   10       -7.568357     -7.566681   1.000000   1.000000
   11       -7.282604     -7.281081   1.000000   1.000000
   12       -7.205497     -7.200686   1.000000   1.000000
   13       -6.941809     -6.894939   1.000000   1.000000
   14       -6.379965     -6.346713   1.000000   1.000000
   15       -6.192702     -6.160445   1.000000   1.000000
   16        0.059616      2.293527   1.000000   1.000000
   17        1.432696      2.605236   1.000000   1.000000
   18        2.018511      2.631430   1.000000   1.000000
   19        2.040157      3.397341   1.000000   1.000000
   20        2.574413      3.891012   1.000000   1.000000
   21        2.649652      4.143512   1.000000   1.000000
   22        3.947611      4.578587   1.000000   1.000000
   23        4.518008      4.928740   1.000000   1.000000
   24        4.680881      4.983784   1.000000   1.000000
   25        4.893518      5.179996   1.000000   1.000000
   26        5.061482      5.338025   1.000000   1.000000
   27        5.133772      5.457277   1.000000   1.000000
   28        5.398112      5.772604   1.000000   1.000000
   29        5.722839      6.041649   1.000000   1.000000
   30        5.863853      6.204842   1.000000   1.000000
   31        5.984702     10.740237   1.000000   0.000000
   32        6.920216     10.864996   1.000000   0.000000
   33       10.747589     10.921601   0.000000   0.000000
   34       10.888958     11.033120   0.000000   0.000000
   35       11.041514     11.203382   0.000000   0.000000
   36       11.199100     11.252105   0.000000   0.000000
   37       11.247983     11.281960   0.000000   0.000000
   38       11.275576     11.292630   0.000000   0.000000
   39       11.279945     11.383477   0.000000   0.000000
   40       11.356791     11.404748   0.000000   0.000000
   41       11.405068     11.432960   0.000000   0.000000
   42       11.432607     11.445091   0.000000   0.000000
   43       11.437838     11.457533   0.000000   0.000000
   44       11.453694     11.536850   0.000000   0.000000
   45       11.534040     11.635375   0.000000   0.000000
   46       11.612280     12.385615   0.000000   0.000000
   47       12.381283     12.705758   0.000000   0.000000
   48       12.694126     13.002322   0.000000   0.000000

 -0.4285714E+00  0.1428571E+00  0.1256898E-14  0.2040816E-01
    1      -57.145830    -54.979902   1.000000   1.000000
    2      -57.057301    -54.860334   1.000000   1.000000
    3      -57.056986    -54.859234   1.000000   1.000000
    4      -23.717968    -23.719320   1.000000   1.000000
    5      -23.599816    -23.601331   1.000000   1.000000
    6      -10.948751    -10.784630   1.000000   1.000000
    7      -10.678271    -10.579528   1.000000   1.000000
    8       -9.904550     -9.832320   1.000000   1.000000
    9       -9.730337     -9.590002   1.000000   1.000000
   10       -7.516137     -7.514398   1.000000   1.000000
   11       -7.310358     -7.307359   1.000000   1.000000
   12       -7.166456     -7.162659   1.000000   1.000000
   13       -6.849059     -6.797237   1.000000   1.000000
   14       -6.420337     -6.383366   1.000000   1.000000
   15       -6.234313     -6.204373   1.000000   1.000000
   16        0.058740      2.191990   1.000000   1.000000
   17        1.432604      2.583702   1.000000   1.000000
   18        1.989386      2.710878   1.000000   1.000000
   19        2.020177      3.400854   1.000000   1.000000
   20        2.577314      3.870060   1.000000   1.000000
   21        2.633744      4.174812   1.000000   1.000000
   22        3.976975      4.582577   1.000000   1.000000
   23        4.546509      4.802804   1.000000   1.000000
   24        4.647251      5.047009   1.000000   1.000000
   25        4.951608      5.211211   1.000000   1.000000
   26        4.983392      5.416069   1.000000   1.000000
   27        5.177600      5.442460   1.000000   1.000000
   28        5.417172      5.711593   1.000000   1.000000
   29        5.669453      5.998109   1.000000   1.000000
   30        5.808447      6.288129   1.000000   1.000000
   31        6.125312     10.752106   1.000000   0.000000
   32        6.850065     10.877714   1.000000   0.000000
   33       10.762394     10.911360   0.000000   0.000000
   34       10.886990     11.002980   0.000000   0.000000
   35       11.030105     11.218013   0.000000   0.000000
   36       11.209898     11.261168   0.000000   0.000000
   37       11.250146     11.285725   0.000000   0.000000
   38       11.278848     11.302798   0.000000   0.000000
   39       11.289931     11.372961   0.000000   0.000000
   40       11.347904     11.395310   0.000000   0.000000
   41       11.389954     11.431681   0.000000   0.000000
   42       11.425510     11.445641   0.000000   0.000000
   43       11.443014     11.483756   0.000000   0.000000
   44       11.483764     11.524081   0.000000   0.000000
   45       11.521712     11.667158   0.000000   0.000000
   46       11.647281     12.327213   0.000000   0.000000
   47       12.336849     12.638777   0.000000   0.000000
   48       12.631689     12.998030   0.000000   0.000000

 -0.2857143E+00  0.1428571E+00  0.1293042E-14  0.2040816E-01
    1      -57.145781    -54.979878   1.000000   1.000000
    2      -57.057213    -54.860158   1.000000   1.000000
    3      -57.057025    -54.859334   1.000000   1.000000
    4      -23.755769    -23.756983   1.000000   1.000000
    5      -23.596451    -23.598017   1.000000   1.000000
    6      -11.048619    -10.893550   1.000000   1.000000
    7      -10.446648    -10.318607   1.000000   1.000000
    8       -9.875911     -9.792860   1.000000   1.000000
    9       -9.840613     -9.685450   1.000000   1.000000
   10       -7.472352     -7.474943   1.000000   1.000000
   11       -7.225311     -7.223207   1.000000   1.000000
   12       -7.120506     -7.107634   1.000000   1.000000
   13       -6.809005     -6.767464   1.000000   1.000000
   14       -6.431120     -6.361360   1.000000   1.000000
   15       -6.366264     -6.346210   1.000000   1.000000
   16        0.606802      2.251624   1.000000   1.000000
   17        1.430625      2.749566   1.000000   1.000000
   18        2.035298      3.098069   1.000000   1.000000
   19        2.182604      3.400186   1.000000   1.000000
   20        2.589249      3.732115   1.000000   1.000000
   21        2.705859      4.289022   1.000000   1.000000
   22        3.965866      4.568764   1.000000   1.000000
   23        4.442188      4.918328   1.000000   1.000000
   24        4.766113      5.050543   1.000000   1.000000
   25        4.883727      5.188212   1.000000   1.000000
   26        5.039662      5.331962   1.000000   1.000000
   27        5.082256      5.375101   1.000000   1.000000
   28        5.289763      5.654776   1.000000   1.000000
   29        5.446551      5.912632   1.000000   1.000000
   30        5.882263      6.443541   1.000000   1.000000
   31        6.303610     10.511098   1.000000   0.000000
   32        6.522981     10.689355   1.000000   0.000000
   33       10.505579     10.890959   0.000000   0.000000
   34       10.709555     11.069788   0.000000   0.000000
   35       11.089498     11.210460   0.000000   0.000000
   36       11.172648     11.254420   0.000000   0.000000
   37       11.242882     11.281316   0.000000   0.000000
   38       11.274595     11.298162   0.000000   0.000000
   39       11.293509     11.364816   0.000000   0.000000
   40       11.361490     11.424115   0.000000   0.000000
   41       11.426011     11.443094   0.000000   0.000000
   42       11.438842     11.476321   0.000000   0.000000
   43       11.472199     11.487101   0.000000   0.000000
   44       11.481204     11.588241   0.000000   0.000000
   45       11.585519     11.713954   0.000000   0.000000
   46       11.704382     12.155075   0.000000   0.000000
   47       12.150938     12.292770   0.000000   0.000000
   48       12.280679     12.658782   0.000000   0.000000

 -0.1428571E+00  0.1428571E+00  0.1269220E-14  0.1020408E-01
    1      -57.145946    -54.980017   1.000000   1.000000
    2      -57.057269    -54.860163   1.000000   1.000000
    3      -57.057067    -54.859401   1.000000   1.000000
    4      -23.793033    -23.794109   1.000000   1.000000
    5      -23.601991    -23.603593   1.000000   1.000000
    6      -11.245359    -11.089227   1.000000   1.000000
    7      -10.037582     -9.971592   1.000000   1.000000
    8       -9.988349     -9.671615   1.000000   1.000000
    9       -9.725113     -9.667421   1.000000   1.000000
   10       -7.411614     -7.416182   1.000000   1.000000
   11       -7.180152     -7.183411   1.000000   1.000000
   12       -7.142425     -7.111928   1.000000   1.000000
   13       -7.036826     -7.030120   1.000000   1.000000
   14       -6.468481     -6.456768   1.000000   1.000000
   15       -6.260792     -6.164059   1.000000   1.000000
   16        1.399853      2.571295   1.000000   1.000000
   17        1.439869      3.028233   1.000000   1.000000
   18        2.248905      3.425212   1.000000   1.000000
   19        2.446822      3.458830   1.000000   1.000000
   20        2.635083      3.571930   1.000000   1.000000
   21        2.851529      4.218951   1.000000   1.000000
   22        3.766941      4.416334   1.000000   1.000000
   23        4.004982      4.837899   1.000000   1.000000
   24        4.617850      5.225468   1.000000   1.000000
   25        4.987418      5.258004   1.000000   1.000000
   26        5.141373      5.278376   1.000000   1.000000
   27        5.154374      5.361163   1.000000   1.000000
   28        5.217422      5.522456   1.000000   1.000000
   29        5.382002      6.057864   1.000000   1.000000
   30        5.642428      6.512191   1.000000   1.000000
   31        6.250352     10.142718   1.000000   0.000000
   32        6.402097     10.640169   1.000000   0.000000
   33       10.134420     10.861355   0.000000   0.000000
   34       10.657435     11.005017   0.000000   0.000000
   35       11.017600     11.163786   0.000000   0.000000
   36       11.138029     11.255137   0.000000   0.000000
   37       11.250247     11.266446   0.000000   0.000000
   38       11.253101     11.292765   0.000000   0.000000
   39       11.281678     11.406648   0.000000   0.000000
   40       11.404767     11.425300   0.000000   0.000000
   41       11.425739     11.462118   0.000000   0.000000
   42       11.462463     11.483063   0.000000   0.000000
   43       11.480843     11.536819   0.000000   0.000000
   44       11.524967     11.638941   0.000000   0.000000
   45       11.638830     11.762766   0.000000   0.000000
   46       11.759430     11.817287   0.000000   0.000000
   47       11.808024     11.917177   0.000000   0.000000
   48       11.912175     12.269783   0.000000   0.000000

  0.2857143E+00  0.2857143E+00  0.1257718E-14  0.1020408E-01
    1      -57.145890    -54.979959   1.000000   1.000000
    2      -57.057179    -54.860131   1.000000   1.000000
    3      -57.057102    -54.859388   1.000000   1.000000
    4      -23.707414    -23.708788   1.000000   1.000000
    5      -23.604354    -23.605847   1.000000   1.000000
    6      -11.033310    -10.911572   1.000000   1.000000
    7      -10.325983    -10.123773   1.000000   1.000000
    8      -10.074467    -10.024596   1.000000   1.000000
    9       -9.587410     -9.485924   1.000000   1.000000
   10       -7.558630     -7.558463   1.000000   1.000000
   11       -7.543532     -7.544227   1.000000   1.000000
   12       -7.212050     -7.200356   1.000000   1.000000
   13       -7.024345     -6.976978   1.000000   1.000000
   14       -6.404181     -6.368609   1.000000   1.000000
   15       -6.248617     -6.221879   1.000000   1.000000
   16        0.473901      2.005924   1.000000   1.000000
   17        0.819956      2.640752   1.000000   1.000000
   18        1.988204      2.956833   1.000000   1.000000
   19        2.249173      3.151824   1.000000   1.000000
   20        2.386268      3.971274   1.000000   1.000000
   21        2.405674      4.425281   1.000000   1.000000
   22        4.162934      4.671197   1.000000   1.000000