   1   1   1   0
  0.1658294E+02  0.2862368E-09  0.2862368E-09  0.2862368E-09  0.5000000E-15
   1.0000000000000000E-004
  CAR 
 unknown system                          
    117.21436196     -8.89219206  301      8.00441097      1.00000000
     -8.892  0.0000E+00  0.0000E+00  0.0000E+00  0.0000E+00
     -8.472  0.0000E+00  0.0000E+00  0.0000E+00  0.0000E+00
     -8.051  0.0000E+00  0.0000E+00  0.0000E+00  0.0000E+00
     -7.631  0.0000E+00  0.0000E+00  0.0000E+00  0.0000E+00
     -7.211  0.0000E+00  0.0000E+00  0.0000E+00  0.0000E+00
     -6.790  0.0000E+00  0.0000E+00  0.0000E+00  0.0000E+00
     -6.370  0.0000E+00  0.0000E+00  0.0000E+00  0.0000E+00
     -5.950  0.0000E+00  0.0000E+00  0.0000E+00  0.0000E+00
     -5.529  0.0000E+00  0.0000E+00  0.0000E+00  0.0000E+00
     -5.109  0.0000E+00  0.0000E+00  0.0000E+00  0.0000E+00
     -4.689  0.0000E+00  0.0000E+00  0.0000E+00  0.0000E+00
     -4.268  0.0000E+00  0.0000E+00  0.0000E+00  0.0000E+00
     -3.848  0.0000E+00  0.0000E+00  0.0000E+00  0.0000E+00
     -3.428  0.0000E+00  0.0000E+00  0.0000E+00  0.0000E+00
     -3.007  0.1409E-01  0.1100E-01  0.7180E-03  0.4949E-03
     -2.587  0.4159E-01  0.4049E-01  0.1349E-01  0.1276E-01
     -2.167  0.5486E-01  0.5426E-01  0.3416E-01  0.3319E-01
     -1.746  0.6961E-01  0.6904E-01  0.6029E-01  0.5905E-01
     -1.326  0.7726E-01  0.7690E-01  0.9101E-01  0.8963E-01
     -0.905  0.8750E-01  0.8704E-01  0.1256E+00  0.1240E+00
     -0.485  0.9545E-01  0.9514E-01  0.1643E+00  0.1626E+00
     -0.065  0.1028E+00  0.1025E+00  0.2059E+00  0.2041E+00
      0.356  0.1110E+00  0.1106E+00  0.2508E+00  0.2489E+00
      0.776  0.1182E+00  0.1180E+00  0.2992E+00  0.2971E+00
      1.196  0.1241E+00  0.1239E+00  0.3501E+00  0.3479E+00
      1.617  0.1309E+00  0.1307E+00  0.4037E+00  0.4014E+00
      2.037  0.1386E+00  0.1382E+00  0.4602E+00  0.4578E+00
      2.457  0.1506E+00  0.1499E+00  0.5207E+00  0.5180E+00
      2.878  0.1638E+00  0.1634E+00  0.5870E+00  0.5841E+00
      3.298  0.1701E+00  0.1711E+00  0.6629E+00  0.6600E+00
      3.718  0.1468E+00  0.1472E+00  0.7275E+00  0.7249E+00
      4.139  0.1570E+00  0.1572E+00  0.7913E+00  0.7886E+00
      4.559  0.1871E+00  0.1894E+00  0.8627E+00  0.8594E+00
      4.980  0.1884E+00  0.1881E+00  0.9399E+00  0.9367E+00
      5.400  0.1813E+00  0.1816E+00  0.1021E+01  0.1018E+01
      5.820  0.1484E+00  0.1500E+00  0.1092E+01  0.1089E+01
      6.241  0.1440E+00  0.1434E+00  0.1151E+01  0.1149E+01
      6.661  0.2149E+00  0.2131E+00  0.1237E+01  0.1233E+01
      7.081  0.2092E+00  0.2093E+00  0.1329E+01  0.1325E+01
      7.502  0.1916E+00  0.1921E+00  0.1411E+01  0.1407E+01
      7.922  0.1690E+00  0.1701E+00  0.1488E+01  0.1485E+01
      8.342  0.2037E+00  0.2010E+00  0.1562E+01  0.1558E+01
      8.763  0.2515E+00  0.2503E+00  0.1661E+01  0.1657E+01
      9.183  0.2046E+00  0.2048E+00  0.1752E+01  0.1749E+01
      9.603  0.2129E+00  0.2122E+00  0.1840E+01  0.1836E+01
     10.024  0.2005E+00  0.2006E+00  0.1926E+01  0.1923E+01
     10.444  0.2344E+00  0.2339E+00  0.2024E+01  0.2020E+01
     10.865  0.2439E+00  0.2432E+00  0.2121E+01  0.2117E+01
     11.285  0.2385E+00  0.2390E+00  0.2225E+01  0.2221E+01
     11.705  0.2338E+00  0.2337E+00  0.2324E+01  0.2320E+01
     12.126  0.2431E+00  0.2414E+00  0.2425E+01  0.2420E+01
     12.546  0.2640E+00  0.2636E+00  0.2534E+01  0.2529E+01
     12.966  0.2804E+00  0.2797E+00  0.2649E+01  0.2643E+01
     13.387  0.2942E+00  0.2929E+00  0.2769E+01  0.2763E+01
     13.807  0.3056E+00  0.3043E+00  0.2896E+01  0.2890E+01
     14.227  0.2813E+00  0.2816E+00  0.3018E+01  0.3012E+01
     14.648  0.2742E+00  0.2743E+00  0.3135E+01  0.3129E+01
     15.068  0.2657E+00  0.2663E+00  0.3248E+01  0.3243E+01
     15.488  0.2603E+00  0.2605E+00  0.3359E+01  0.3353E+01
     15.909  0.2682E+00  0.2676E+00  0.3469E+01  0.3464E+01
     16.329  0.2623E+00  0.2629E+00  0.3581E+01  0.3576E+01
     16.749  0.2573E+00  0.2576E+00  0.3690E+01  0.3685E+01
     17.170  0.2565E+00  0.2565E+00  0.3798E+01  0.3793E+01
     17.590  0.2686E+00  0.2677E+00  0.3908E+01  0.3902E+01
     18.011  0.2787E+00  0.2783E+00  0.4023E+01  0.4018E+01
     18.431  0.2933E+00  0.2924E+00  0.4143E+01  0.4137E+01
     18.851  0.3085E+00  0.3093E+00  0.4271E+01  0.4265E+01
     19.272  0.3406E+00  0.3379E+00  0.4405E+01  0.4399E+01
     19.692  0.3862E+00  0.3876E+00  0.4562E+01  0.4554E+01
     20.112  0.3901E+00  0.3906E+00  0.4726E+01  0.4718E+01
     20.533  0.3177E+00  0.3259E+00  0.4888E+01  0.4882E+01
     20.953  0.2616E+00  0.2629E+00  0.5005E+01  0.5000E+01
     21.373  0.3016E+00  0.3259E+00  0.5118E+01  0.5111E+01
     21.794  0.2632E+00  0.2637E+00  0.5232E+01  0.5227E+01
     22.214  0.2629E+00  0.2577E+00  0.5339E+01  0.5334E+01
     22.634  0.3856E+00  0.3836E+00  0.5482E+01  0.5474E+01
     23.055  0.4271E+00  0.4303E+00  0.5657E+01  0.5648E+01
     23.475  0.3037E+00  0.3103E+00  0.5811E+01  0.5805E+01
     23.896  0.3032E+00  0.2976E+00  0.5931E+01  0.5925E+01
     24.316  0.3017E+00  0.3029E+00  0.6062E+01  0.6056E+01
     24.736  0.2997E+00  0.2984E+00  0.6187E+01  0.6181E+01
     25.157  0.3760E+00  0.3723E+00  0.6327E+01  0.6320E+01
     25.577  0.4537E+00  0.4545E+00  0.6508E+01  0.6498E+01
     25.997  0.4133E+00  0.4162E+00  0.6691E+01  0.6683E+01
     26.418  0.4062E+00  0.4039E+00  0.6859E+01  0.6851E+01
     26.838  0.3341E+00  0.3353E+00  0.7015E+01  0.7009E+01
     27.258  0.3137E+00  0.3146E+00  0.7152E+01  0.7146E+01
     27.679  0.2863E+00  0.2880E+00  0.7281E+01  0.7276E+01
     28.099  0.3074E+00  0.3030E+00  0.7401E+01  0.7396E+01
     28.519  0.4713E+00  0.4572E+00  0.7557E+01  0.7548E+01
     28.940  0.3873E+00  0.3917E+00  0.7757E+01  0.7749E+01
     29.360  0.4835E+00  0.4920E+00  0.7944E+01  0.7934E+01
     29.780  0.4207E+00  0.4217E+00  0.8127E+01  0.8119E+01
     30.201  0.3982E+00  0.4004E+00  0.8301E+01  0.8293E+01
     30.621  0.3453E+00  0.3468E+00  0.8456E+01  0.8449E+01
     31.042  0.3551E+00  0.3534E+00  0.8600E+01  0.8593E+01
     31.462  0.3965E+00  0.3956E+00  0.8759E+01  0.8751E+01
     31.882  0.4460E+00  0.4196E+00  0.8928E+01  0.8920E+01
     32.303  0.4967E+00  0.5041E+00  0.9159E+01  0.9150E+01
     32.723  0.3951E+00  0.3974E+00  0.9337E+01  0.9329E+01
     33.143  0.3613E+00  0.3649E+00  0.9500E+01  0.9494E+01
     33.564  0.2997E+00  0.3035E+00  0.9637E+01  0.9631E+01
     33.984  0.2526E+00  0.2541E+00  0.9751E+01  0.9746E+01
     34.404  0.2868E+00  0.2902E+00  0.9865E+01  0.9860E+01
     34.825  0.1783E+00  0.1790E+00  0.9955E+01  0.9953E+01
     35.245  0.1671E+00  0.1670E+00  0.1003E+02  0.1003E+02
     35.665  0.1745E+00  0.1740E+00  0.1010E+02  0.1010E+02
     36.086  0.1974E+00  0.1965E+00  0.1018E+02  0.1017E+02
     36.506  0.2437E+00  0.2446E+00  0.1027E+02  0.1026E+02
     36.927  0.2483E+00  0.2477E+00  0.1037E+02  0.1037E+02
     37.347  0.2668E+00  0.2661E+00  0.1048E+02  0.1047E+02
     37.767  0.2927E+00  0.2921E+00  0.1060E+02  0.1059E+02
     38.188  0.4001E+00  0.4002E+00  0.1075E+02  0.1074E+02
     38.608  0.3883E+00  0.3901E+00  0.1090E+02  0.1090E+02
     39.028  0.3043E+00  0.3050E+00  0.1105E+02  0.1104E+02
     39.449  0.3949E+00  0.3903E+00  0.1119E+02  0.1118E+02
     39.869  0.5769E+00  0.5544E+00  0.1139E+02  0.1138E+02
     40.289  0.4635E+00  0.4666E+00  0.1160E+02  0.1159E+02
     40.710  0.4254E+00  0.4260E+00  0.1178E+02  0.1178E+02
     41.130  0.4782E+00  0.4717E+00  0.1197E+02  0.1196E+02
     41.550  0.6188E+00  0.6117E+00  0.1220E+02  0.1219E+02
     41.971  0.4884E+00  0.4829E+00  0.1241E+02  0.1240E+02
     42.391  0.4691E+00  0.4785E+00  0.1263E+02  0.1262E+02
     42.811  0.5490E+00  0.5367E+00  0.1280E+02  0.1280E+02
     43.232  0.4189E+00  0.4200E+00  0.1302E+02  0.1302E+02
     43.652  0.4617E+00  0.4559E+00  0.1319E+02  0.1319E+02
     44.073  0.5013E+00  0.5021E+00  0.1340E+02  0.1339E+02
     44.493  0.4246E+00  0.4246E+00  0.1359E+02  0.1359E+02
     44.913  0.3796E+00  0.3823E+00  0.1376E+02  0.1376E+02
     45.334  0.3971E+00  0.3948E+00  0.1392E+02  0.1391E+02
     45.754  0.5183E+00  0.5162E+00  0.1411E+02  0.1410E+02
     46.174  0.5711E+00  0.5722E+00  0.1434E+02  0.1434E+02
     46.595  0.5347E+00  0.5351E+00  0.1457E+02  0.1457E+02
     47.015  0.4298E+00  0.4308E+00  0.1478E+02  0.1478E+02
     47.435  0.4295E+00  0.4253E+00  0.1495E+02  0.1495E+02
     47.856  0.4516E+00  0.4527E+00  0.1515E+02  0.1514E+02
     48.276  0.4550E+00  0.4538E+00  0.1533E+02  0.1533E+02
     48.696  0.5448E+00  0.5429E+00  0.1554E+02  0.1553E+02
     49.117  0.4252E+00  0.4284E+00  0.1575E+02  0.1575E+02
     49.537  0.3994E+00  0.3928E+00  0.1592E+02  0.1591E+02
     49.958  0.5314E+00  0.5335E+00  0.1612E+02  0.1611E+02
     50.378  0.2989E+00  0.2977E+00  0.1627E+02  0.1627E+02
     50.798  0.3717E+00  0.3671E+00  0.1641E+02  0.1640E+02
     51.219  0.5128E+00  0.5020E+00  0.1659E+02  0.1658E+02
     51.639  0.6048E+00  0.5950E+00  0.1682E+02  0.1681E+02
     52.059  0.3937E+00  0.4201E+00  0.1706E+02  0.1705E+02
     52.480  0.3854E+00  0.3888E+00  0.1722E+02  0.1721E+02
     52.900  0.4157E+00  0.4196E+00  0.1738E+02  0.1738E+02
     53.320  0.6140E+00  0.6041E+00  0.1759E+02  0.1757E+02
     53.741  0.6603E+00  0.6418E+00  0.1784E+02  0.1783E+02
     54.161  0.7208E+00  0.7102E+00  0.1812E+02  0.1810E+02
     54.581  0.7286E+00  0.7531E+00  0.1844E+02  0.1842E+02
     55.002  0.6214E+00  0.6163E+00  0.1870E+02  0.1868E+02
     55.422  0.6796E+00  0.6793E+00  0.1900E+02  0.1897E+02
     55.843  0.7798E+00  0.7770E+00  0.1931E+02  0.1928E+02
     56.263  0.7815E+00  0.8243E+00  0.1965E+02  0.1962E+02
     56.683  0.8361E+00  0.7978E+00  0.1997E+02  0.1995E+02
     57.104  0.8895E+00  0.8679E+00  0.2032E+02  0.2029E+02
     57.524  0.9946E+00  0.1018E+01  0.2073E+02  0.2070E+02
     57.944  0.8511E+00  0.8424E+00  0.2113E+02  0.2110E+02
     58.365  0.9210E+00  0.9797E+00  0.2150E+02  0.2147E+02
     58.785  0.8387E+00  0.7981E+00  0.2185E+02  0.2183E+02
     59.205  0.9576E+00  0.9470E+00  0.2227E+02  0.2224E+02
     59.626  0.9653E+00  0.9603E+00  0.2267E+02  0.2264E+02
     60.046  0.7885E+00  0.8403E+00  0.2301E+02  0.2299E+02
     60.466  0.6728E+00  0.6764E+00  0.2331E+02  0.2329E+02
     60.887  0.8826E+00  0.8725E+00  0.2364E+02  0.2361E+02
     61.307  0.8055E+00  0.8361E+00  0.2401E+02  0.2399E+02
     61.727  0.7784E+00  0.7643E+00  0.2433E+02  0.2431E+02
     62.148  0.9474E+00  0.9428E+00  0.2469E+02  0.2467E+02
     62.568  0.7343E+00  0.7451E+00  0.2504E+02  0.2502E+02
     62.989  0.4809E+00  0.4816E+00  0.2530E+02  0.2529E+02
     63.409  0.5295E+00  0.5310E+00  0.2550E+02  0.2549E+02
     63.829  0.6779E+00  0.6739E+00  0.2576E+02  0.2575E+02
     64.250  0.6731E+00  0.6774E+00  0.2607E+02  0.2605E+02
     64.670  0.5064E+00  0.5076E+00  0.2629E+02  0.2628E+02
     65.090  0.5020E+00  0.4992E+00  0.2650E+02  0.2649E+02
     65.511  0.6320E+00  0.6179E+00  0.2672E+02  0.2671E+02
     65.931  0.5023E+00  0.5041E+00  0.2696E+02  0.2695E+02
     66.351  0.5593E+00  0.5551E+00  0.2717E+02  0.2716E+02
     66.772  0.5860E+00  0.5869E+00  0.2742E+02  0.2741E+02
     67.192  0.4684E+00  0.4725E+00  0.2765E+02  0.2764E+02
     67.612  0.4052E+00  0.4077E+00  0.2783E+02  0.2782E+02
     68.033  0.4040E+00  0.4035E+00  0.2800E+02  0.2799E+02
     68.453  0.4624E+00  0.4599E+00  0.2818E+02  0.2817E+02
     68.874  0.5889E+00  0.5890E+00  0.2841E+02  0.2840E+02
     69.294  0.5240E+00  0.5472E+00  0.2865E+02  0.2864E+02
     69.714  0.5007E+00  0.5032E+00  0.2886E+02  0.2886E+02
     70.135  0.4715E+00  0.4724E+00  0.2907E+02  0.2906E+02
     70.555  0.4874E+00  0.4899E+00  0.2927E+02  0.2926E+02
     70.975  0.4983E+00  0.4965E+00  0.2947E+02  0.2947E+02
     71.396  0.5185E+00  0.5174E+00  0.2969E+02  0.2968E+02
     71.816  0.5507E+00  0.5505E+00  0.2991E+02  0.2991E+02
     72.236  0.5275E+00  0.5301E+00  0.3014E+02  0.3013E+02
     72.657  0.4783E+00  0.4711E+00  0.3035E+02  0.3034E+02
     73.077  0.4070E+00  0.4130E+00  0.3053E+02  0.3053E+02
     73.497  0.4030E+00  0.4044E+00  0.3070E+02  0.3069E+02
     73.918  0.4271E+00  0.4300E+00  0.3088E+02  0.3088E+02
     74.338  0.3964E+00  0.3964E+00  0.3105E+02  0.3104E+02
     74.758  0.4920E+00  0.4734E+00  0.3122E+02  0.3121E+02
     75.179  0.4862E+00  0.4757E+00  0.3144E+02  0.3144E+02
     75.599  0.4657E+00  0.4650E+00  0.3164E+02  0.3163E+02
     76.020  0.4820E+00  0.4810E+00  0.3183E+02  0.3183E+02
     76.440  0.6564E+00  0.6652E+00  0.3209E+02  0.3208E+02
     76.860  0.5447E+00  0.5429E+00  0.3232E+02  0.3231E+02
     77.281  0.4313E+00  0.4376E+00  0.3253E+02  0.3253E+02
     77.701  0.4220E+00  0.4195E+00  0.3270E+02  0.3270E+02
     78.121  0.6335E+00  0.6247E+00  0.3291E+02  0.3290E+02
     78.542  0.6088E+00  0.6044E+00  0.3318E+02  0.3317E+02
     78.962  0.5730E+00  0.5582E+00  0.3343E+02  0.3342E+02
     79.382  0.5145E+00  0.5388E+00  0.3368E+02  0.3368E+02
     79.803  0.4574E+00  0.4545E+00  0.3387E+02  0.3386E+02
     80.223  0.4525E+00  0.4590E+00  0.3407E+02  0.3406E+02
     80.643  0.4793E+00  0.4743E+00  0.3426E+02  0.3425E+02
     81.064  0.5905E+00  0.5887E+00  0.3449E+02  0.3448E+02
     81.484  0.6755E+00  0.6750E+00  0.3475E+02  0.3474E+02
     81.905  0.6859E+00  0.6880E+00  0.3504E+02  0.3503E+02
     82.325  0.6300E+00  0.6323E+00  0.3533E+02  0.3532E+02
     82.745  0.5385E+00  0.5435E+00  0.3557E+02  0.3556E+02
     83.166  0.4862E+00  0.4857E+00  0.3578E+02  0.3577E+02
     83.586  0.6314E+00  0.6263E+00  0.3602E+02  0.3601E+02
     84.006  0.6587E+00  0.6529E+00  0.3628E+02  0.3627E+02
     84.427  0.5871E+00  0.5901E+00  0.3655E+02  0.3654E+02
     84.847  0.4890E+00  0.4910E+00  0.3677E+02  0.3676E+02
     85.267  0.3643E+00  0.3664E+00  0.3695E+02  0.3694E+02
     85.688  0.4026E+00  0.4002E+00  0.3711E+02  0.3710E+02
     86.108  0.4727E+00  0.4757E+00  0.3729E+02  0.3728E+02
     86.528  0.4586E+00  0.4579E+00  0.3749E+02  0.3748E+02
     86.949  0.4800E+00  0.4801E+00  0.3768E+02  0.3768E+02
     87.369  0.6064E+00  0.6043E+00  0.3791E+02  0.3790E+02
     87.789  0.5547E+00  0.5567E+00  0.3816E+02  0.3815E+02
     88.210  0.5709E+00  0.5716E+00  0.3840E+02  0.3839E+02
     88.630  0.9269E+00  0.8876E+00  0.3868E+02  0.3866E+02
     89.051  0.6520E+00  0.6711E+00  0.3901E+02  0.3900E+02
     89.471  0.5307E+00  0.5304E+00  0.3925E+02  0.3924E+02
     89.891  0.6093E+00  0.6087E+00  0.3949E+02  0.3948E+02
     90.312  0.6826E+00  0.6891E+00  0.3977E+02  0.3976E+02
     90.732  0.4795E+00  0.4813E+00  0.3999E+02  0.3999E+02
     91.152  0.4898E+00  0.4937E+00  0.4020E+02  0.4019E+02
     91.573  0.4628E+00  0.4615E+00  0.4039E+02  0.4039E+02
     91.993  0.4892E+00  0.4925E+00  0.4059E+02  0.4059E+02
     92.413  0.5522E+00  0.5457E+00  0.4080E+02  0.4079E+02
     92.834  0.6246E+00  0.6245E+00  0.4106E+02  0.4105E+02
     93.254  0.4910E+00  0.4990E+00  0.4130E+02  0.4129E+02
     93.674  0.3958E+00  0.3984E+00  0.4148E+02  0.4147E+02
     94.095  0.4402E+00  0.4359E+00  0.4165E+02  0.4164E+02
     94.515  0.7135E+00  0.7053E+00  0.4188E+02  0.4187E+02
     94.936  0.6599E+00  0.6628E+00  0.4217E+02  0.4216E+02
     95.356  0.6253E+00  0.6216E+00  0.4243E+02  0.4243E+02
     95.776  0.6339E+00  0.6321E+00  0.4269E+02  0.4268E+02
     96.197  0.7587E+00  0.7488E+00  0.4298E+02  0.4297E+02
     96.617  0.6855E+00  0.6812E+00  0.4328E+02  0.4327E+02
     97.037  0.6084E+00  0.6113E+00  0.4356E+02  0.4355E+02
     97.458  0.6510E+00  0.6570E+00  0.4381E+02  0.4380E+02
     97.878  0.5626E+00  0.5678E+00  0.4406E+02  0.4406E+02
     98.298  0.4239E+00  0.4238E+00  0.4426E+02  0.4426E+02
     98.719  0.4152E+00  0.4161E+00  0.4444E+02  0.4444E+02
     99.139  0.4808E+00  0.4742E+00  0.4462E+02  0.4461E+02
     99.559  0.5246E+00  0.5097E+00  0.4484E+02  0.4483E+02
     99.980  0.6347E+00  0.6329E+00  0.4508E+02  0.4507E+02
    100.400  0.6448E+00  0.6456E+00  0.4535E+02  0.4534E+02
    100.821  0.6581E+00  0.6566E+00  0.4563E+02  0.4562E+02
    101.241  0.5707E+00  0.5833E+00  0.4590E+02  0.4589E+02
    101.661  0.5083E+00  0.5081E+00  0.4612E+02  0.4611E+02
    102.082  0.4881E+00  0.4885E+00  0.4633E+02  0.4632E+02
    102.502  0.4741E+00  0.4727E+00  0.4653E+02  0.4652E+02
    102.922  0.5471E+00  0.5475E+00  0.4675E+02  0.4674E+02
    103.343  0.5227E+00  0.5208E+00  0.4697E+02  0.4696E+02
    103.763  0.4346E+00  0.4418E+00  0.4717E+02  0.4717E+02
    104.183  0.3849E+00  0.3842E+00  0.4734E+02  0.4733E+02
    104.604  0.4460E+00  0.4489E+00  0.4752E+02  0.4751E+02
    105.024  0.3881E+00  0.3897E+00  0.4769E+02  0.4768E+02
    105.444  0.2675E+00  0.2709E+00  0.4783E+02  0.4782E+02
    105.865  0.1626E+00  0.1678E+00  0.4792E+02  0.4792E+02
    106.285  0.8033E-01  0.8528E-01  0.4796E+02  0.4796E+02
    106.705  0.1869E-01  0.1904E-01  0.4797E+02  0.4797E+02
    107.126  0.1315E-01  0.1325E-01  0.4798E+02  0.4798E+02
    107.546  0.1041E-01  0.1049E-01  0.4798E+02  0.4798E+02
    107.967  0.8131E-02  0.8196E-02  0.4799E+02  0.4799E+02
    108.387  0.6314E-02  0.6363E-02  0.4799E+02  0.4799E+02
    108.807  0.4958E-02  0.4994E-02  0.4799E+02  0.4799E+02
    109.228  0.4006E-02  0.4035E-02  0.4800E+02  0.4800E+02
    109.648  0.3148E-02  0.3176E-02  0.4800E+02  0.4800E+02
    110.068  0.2338E-02  0.2367E-02  0.4800E+02  0.4800E+02
    110.489  0.1576E-02  0.1606E-02  0.4800E+02  0.4800E+02
    110.909  0.8625E-03  0.8931E-03  0.4800E+02  0.4800E+02
    111.329  0.1972E-03  0.2293E-03  0.4800E+02  0.4800E+02
    111.750  0.0000E+00  0.0000E+00  0.4800E+02  0.4800E+02
    112.170  0.0000E+00  0.0000E+00  0.4800E+02  0.4800E+02
    112.590  0.0000E+00  0.0000E+00  0.4800E+02  0.4800E+02
    113.011  0.0000E+00  0.0000E+00  0.4800E+02  0.4800E+02
    113.431  0.0000E+00  0.0000E+00  0.4800E+02  0.4800E+02
    113.852  0.0000E+00  0.0000E+00  0.4800E+02  0.4800E+02
    114.272  0.0000E+00  0.0000E+00  0.4800E+02  0.4800E+02
    114.692  0.0000E+00  0.0000E+00  0.4800E+02  0.4800E+02
    115.113  0.0000E+00  0.0000E+00  0.4800E+02  0.4800E+02
    115.533  0.0000E+00  0.0000E+00  0.4800E+02  0.4800E+02
    115.953  0.0000E+00  0.0000E+00  0.4800E+02  0.4800E+02
    116.374  0.0000E+00  0.0000E+00  0.4800E+02  0.4800E+02
    116.794  0.0000E+00  0.0000E+00  0.4800E+02  0.4800E+02
    117.214  0.0000E+00  0.0000E+00  0.4800E+02  0.4800E+02
    117.21436196     -8.89219206  301      8.00441097      1.00000000
     -8.892  0.0000E+00  0.0000E+00  0.0000E+00  0.0000E+00  0.0000E+00  0.0000E+00  0.0000E+00  0.0000E+00  0.0000E+00  0.0000E+00  0.0000E+00  0.0000E+00  0.0000E+00  0.0000E+00  0.0000E+00  0.0000E+00  0.0000E+00  0.0000E+00
     -8.472  0.0000E+00  0.0000E+00  0.0000E+00  0.0000E+00  0.0000E+00  0.0000E+00  0.0000E+00  0.0000E+00  0.0000E+00  0.0000E+00  0.0000E+00  0.0000E+00  0.0000E+00  0.0000E+00  0.0000E+00  0.0000E+00  0.0000E+00  0.0000E+00
     -8.051  0.0000E+00  0.0000E+00  0.0000E+00  0.0000E+00  0.0000E+00  0.0000E+00  0.0000E+00  0.0000E+00  0.0000E+00  0.0000E+00  0.0000E+00  0.0000E+00  0.0000E+00  0.0000E+00  0.0000E+00  0.0000E+00  0.0000E+00  0.0000E+00
     -7.631  0.0000E+00  0.0000E+00  0.0000E+00  0.0000E+00  0.0000E+00  0.0000E+00  0.0000E+00  0.0000E+00  0.0000E+00  0.0000E+00  0.0000E+00  0.0000E+00  0.0000E+00  0.0000E+00  0.0000E+00  0.0000E+00  0.0000E+00  0.0000E+00
     -7.211  0.0000E+00  0.0000E+00  0.0000E+00  0.0000E+00  0.0000E+00  0.0000E+00  0.0000E+00  0.0000E+00  0.0000E+00  0.0000E+00  0.0000E+00  0.0000E+00  0.0000E+00  0.0000E+00  0.0000E+00  0.0000E+00  0.0000E+00  0.0000E+00
     -6.790  0.0000E+00  0.0000E+00  0.0000E+00  0.0000E+00  0.0000E+00  0.0000E+00  0.0000E+00  0.0000E+00  0.0000E+00  0.0000E+00  0.0000E+00  0.0000E+00  0.0000E+00  0.0000E+00  0.0000E+00  0.0000E+00  0.0000E+00  0.0000E+00
     -6.370  0.0000E+00  0.0000E+00  0.0000E+00  0.0000E+00  0.0000E+00  0.0000E+00  0.0000E+00  0.0000E+00  0.0000E+00  0.0000E+00  0.0000E+00  0.0000E+00  0.0000E+00  0.0000E+00  0.0000E+00  0.0000E+00  0.0000E+00  0.0000E+00
     -5.950  0.0000E+00  0.0000E+00  0.0000E+00  0.0000E+00  0.0000E+00  0.0000E+00  0.0000E+00  0.0000E+00  0.0000E+00  0.0000E+00  0.0000E+00  0.0000E+00  0.0000E+00  0.0000E+00  0.0000E+00  0.0000E+00  0.0000E+00  0.0000E+00
     -5.529  0.0000E+00  0.0000E+00  0.0000E+00  0.0000E+00  0.0000E+00  0.0000E+00  0.0000E+00  0.0000E+00  0.0000E+00  0.0000E+00  0.0000E+00  0.0000E+00  0.0000E+00  0.0000E+00  0.0000E+00  0.0000E+00  0.0000E+00  0.0000E+00
     -5.109  0.0000E+00  0.0000E+00  0.0000E+00  0.0000E+00  0.0000E+00  0.0000E+00  0.0000E+00  0.0000E+00  0.0000E+00  0.0000E+00  0.0000E+00  0.0000E+00  0.0000E+00  0.0000E+00  0.0000E+00  0.0000E+00  0.0000E+00  0.0000E+00
     -4.689  0.0000E+00  0.0000E+00  0.0000E+00  0.0000E+00  0.0000E+00  0.0000E+00  0.0000E+00  0.0000E+00  0.0000E+00  0.0000E+00  0.0000E+00  0.0000E+00  0.0000E+00  0.0000E+00  0.0000E+00  0.0000E+00  0.0000E+00  0.0000E+00
     -4.268  0.0000E+00  0.0000E+00  0.0000E+00  0.0000E+00  0.0000E+00  0.0000E+00  0.0000E+00  0.0000E+00  0.0000E+00  0.0000E+00  0.0000E+00  0.0000E+00  0.0000E+00  0.0000E+00  0.0000E+00  0.0000E+00  0.0000E+00  0.0000E+00
     -3.848  0.0000E+00  0.0000E+00  0.0000E+00  0.0000E+00  0.0000E+00  0.0000E+00  0.0000E+00  0.0000E+00  0.0000E+00  0.0000E+00  0.0000E+00  0.0000E+00  0.0000E+00  0.0000E+00  0.0000E+00  0.0000E+00  0.0000E+00  0.0000E+00
     -3.428  0.0000E+00  0.0000E+00  0.0000E+00  0.0000E+00  0.0000E+00  0.0000E+00  0.0000E+00  0.0000E+00  0.0000E+00  0.0000E+00  0.0000E+00  0.0000E+00  0.0000E+00  0.0000E+00  0.0000E+00  0.0000E+00  0.0000E+00  0.0000E+00
     -3.007  0.3743E-02  0.2918E-02  0.1783E-04  0.1391E-04  0.1783E-04  0.1391E-04  0.1783E-04  0.1391E-04  0.0000E+00  0.0000E+00  0.0000E+00  0.0000E+00  0.0000E+00  0.0000E+00  0.0000E+00  0.0000E+00  0.0000E+00  0.0000E+00
     -2.587  0.1072E-01  0.1043E-01  0.1645E-03  0.1574E-03  0.1645E-03  0.1574E-03  0.1645E-03  0.1574E-03  0.0000E+00  0.0000E+00  0.0000E+00  0.0000E+00  0.0000E+00  0.0000E+00  0.0000E+00  0.0000E+00  0.0000E+00  0.0000E+00
     -2.167  0.1363E-01  0.1348E-01  0.3902E-03  0.3804E-03  0.3902E-03  0.3804E-03  0.3902E-03  0.3804E-03  0.0000E+00  0.0000E+00  0.0000E+00  0.0000E+00  0.0000E+00  0.0000E+00  0.0000E+00  0.0000E+00  0.0000E+00  0.0000E+00
     -1.746  0.1687E-01  0.1673E-01  0.6358E-03  0.6239E-03  0.6358E-03  0.6239E-03  0.6358E-03  0.6239E-03  0.0000E+00  0.0000E+00  0.0000E+00  0.0000E+00  0.0000E+00  0.0000E+00  0.0000E+00  0.0000E+00  0.0000E+00  0.0000E+00
     -1.326  0.1793E-01  0.1785E-01  0.9637E-03  0.9494E-03  0.9637E-03  0.9494E-03  0.9637E-03  0.9494E-03  0.0000E+00  0.0000E+00  0.0000E+00  0.0000E+00  0.0000E+00  0.0000E+00  0.0000E+00  0.0000E+00  0.0000E+00  0.0000E+00
     -0.905  0.1970E-01  0.1959E-01  0.1286E-02  0.1272E-02  0.1286E-02  0.1272E-02  0.1286E-02  0.1272E-02  0.0000E+00  0.0000E+00  0.0000E+00  0.0000E+00  0.0000E+00  0.0000E+00  0.0000E+00  0.0000E+00  0.0000E+00  0.0000E+00
     -0.485  0.2065E-01  0.2059E-01  0.1668E-02  0.1650E-02  0.1668E-02  0.1650E-02  0.1668E-02  0.1650E-02  0.0000E+00  0.0000E+00  0.0000E+00  0.0000E+00  0.0000E+00  0.0000E+00  0.0000E+00  0.0000E+00  0.0000E+00  0.0000E+00
     -0.065  0.2138E-01  0.2131E-01  0.2069E-02  0.2051E-02  0.2069E-02  0.2051E-02  0.2069E-02  0.2051E-02  0.0000E+00  0.0000E+00  0.0000E+00  0.0000E+00  0.0000E+00  0.0000E+00  0.0000E+00  0.0000E+00  0.0000E+00  0.0000E+00
      0.356  0.2227E-01  0.2219E-01  0.2476E-02  0.2458E-02  0.2476E-02  0.2458E-02  0.2476E-02  0.2458E-02  0.0000E+00  0.0000E+00  0.0000E+00  0.0000E+00  0.0000E+00  0.0000E+00  0.0000E+00  0.0000E+00  0.0000E+00  0.0000E+00
      0.776  0.2276E-01  0.2272E-01  0.2924E-02  0.2902E-02  0.2924E-02  0.2902E-02  0.2924E-02  0.2902E-02  0.0000E+00  0.0000E+00  0.0000E+00  0.0000E+00  0.0000E+00  0.0000E+00  0.0000E+00  0.0000E+00  0.0000E+00  0.0000E+00
      1.196  0.2270E-01  0.2265E-01  0.3420E-02  0.3398E-02  0.3420E-02  0.3398E-02  0.3420E-02  0.3398E-02  0.0000E+00  0.0000E+00  0.0000E+00  0.0000E+00  0.0000E+00  0.0000E+00  0.0000E+00  0.0000E+00  0.0000E+00  0.0000E+00
      1.617  0.2283E-01  0.2278E-01  0.3922E-02  0.3899E-02  0.3922E-02  0.3899E-02  0.3922E-02  0.3899E-02  0.0000E+00  0.0000E+00  0.0000E+00  0.0000E+00  0.0000E+00  0.0000E+00  0.0000E+00  0.0000E+00  0.0000E+00  0.0000E+00
      2.037  0.2298E-01  0.2292E-01  0.4471E-02  0.4445E-02  0.4471E-02  0.4445E-02  0.4471E-02  0.4445E-02  0.0000E+00  0.0000E+00  0.0000E+00  0.0000E+00  0.0000E+00  0.0000E+00  0.0000E+00  0.0000E+00  0.0000E+00  0.0000E+00
      2.457  0.2330E-01  0.2321E-01  0.5304E-02  0.5258E-02  0.5304E-02  0.5258E-02  0.5304E-02  0.5258E-02  0.0000E+00  0.0000E+00  0.0000E+00  0.0000E+00  0.0000E+00  0.0000E+00  0.0000E+00  0.0000E+00  0.0000E+00  0.0000E+00
      2.878  0.2343E-01  0.2338E-01  0.6259E-02  0.6223E-02  0.6259E-02  0.6223E-02  0.6259E-02  0.6223E-02  0.0000E+00  0.0000E+00  0.0000E+00  0.0000E+00  0.0000E+00  0.0000E+00  0.0000E+00  0.0000E+00  0.0000E+00  0.0000E+00
      3.298  0.2248E-01  0.2260E-01  0.6973E-02  0.6998E-02  0.6973E-02  0.6998E-02  0.6973E-02  0.6998E-02  0.0000E+00  0.0000E+00  0.0000E+00  0.0000E+00  0.0000E+00  0.0000E+00  0.0000E+00  0.0000E+00  0.0000E+00  0.0000E+00
      3.718  0.1802E-01  0.1807E-01  0.6388E-02  0.6390E-02  0.6388E-02  0.6390E-02  0.6388E-02  0.6390E-02  0.0000E+00  0.0000E+00  0.0000E+00  0.0000E+00  0.0000E+00  0.0000E+00  0.0000E+00  0.0000E+00  0.0000E+00  0.0000E+00
      4.139  0.1754E-01  0.1752E-01  0.7297E-02  0.7293E-02  0.7297E-02  0.7293E-02  0.7297E-02  0.7293E-02  0.0000E+00  0.0000E+00  0.0000E+00  0.0000E+00  0.0000E+00  0.0000E+00  0.0000E+00  0.0000E+00  0.0000E+00  0.0000E+00
      4.559  0.1954E-01  0.1977E-01  0.9118E-02  0.9202E-02  0.9118E-02  0.9202E-02  0.9118E-02  0.9202E-02  0.0000E+00  0.0000E+00  0.0000E+00  0.0000E+00  0.0000E+00  0.0000E+00  0.0000E+00  0.0000E+00  0.0000E+00  0.0000E+00
      4.980  0.1947E-01  0.1932E-01  0.9295E-02  0.9286E-02  0.9295E-02  0.9286E-02  0.9295E-02  0.9286E-02  0.0000E+00  0.0000E+00  0.0000E+00  0.0000E+00  0.0000E+00  0.0000E+00  0.0000E+00  0.0000E+00  0.0000E+00  0.0000E+00
      5.400  0.1869E-01  0.1871E-01  0.8912E-02  0.8910E-02  0.8912E-02  0.8910E-02  0.8912E-02  0.8910E-02  0.0000E+00  0.0000E+00  0.0000E+00  0.0000E+00  0.0000E+00  0.0000E+00  0.0000E+00  0.0000E+00  0.0000E+00  0.0000E+00
      5.820  0.1563E-01  0.1568E-01  0.7178E-02  0.7265E-02  0.7178E-02  0.7265E-02  0.7178E-02  0.7265E-02  0.0000E+00  0.0000E+00  0.0000E+00  0.0000E+00  0.0000E+00  0.0000E+00  0.0000E+00  0.0000E+00  0.0000E+00  0.0000E+00
      6.241  0.1572E-01  0.1564E-01  0.6837E-02  0.6794E-02  0.6837E-02  0.6794E-02  0.6837E-02  0.6794E-02  0.0000E+00  0.0000E+00  0.0000E+00  0.0000E+00  0.0000E+00  0.0000E+00  0.0000E+00  0.0000E+00  0.0000E+00  0.0000E+00
      6.661  0.1959E-01  0.1942E-01  0.1097E-01  0.1086E-01  0.1097E-01  0.1086E-01  0.1097E-01  0.1086E-01  0.0000E+00  0.0000E+00  0.0000E+00  0.0000E+00  0.0000E+00  0.0000E+00  0.0000E+00  0.0000E+00  0.0000E+00  0.0000E+00
      7.081  0.1814E-01  0.1795E-01  0.1058E-01  0.1062E-01  0.1058E-01  0.1062E-01  0.1058E-01  0.1062E-01  0.0000E+00  0.0000E+00  0.0000E+00  0.0000E+00  0.0000E+00  0.0000E+00  0.0000E+00  0.0000E+00  0.0000E+00  0.0000E+00
      7.502  0.1727E-01  0.1736E-01  0.9293E-02  0.9279E-02  0.9293E-02  0.9279E-02  0.9293E-02  0.9279E-02  0.0000E+00  0.0000E+00  0.0000E+00  0.0000E+00  0.0000E+00  0.0000E+00  0.0000E+00  0.0000E+00  0.0000E+00  0.0000E+00
      7.922  0.1378E-01  0.1382E-01  0.8556E-02  0.8598E-02  0.8556E-02  0.8598E-02  0.8556E-02  0.8598E-02  0.0000E+00  0.0000E+00  0.0000E+00  0.0000E+00  0.0000E+00  0.0000E+00  0.0000E+00  0.0000E+00  0.0000E+00  0.0000E+00
      8.342  0.2057E-01  0.2016E-01  0.9364E-02  0.9236E-02  0.9364E-02  0.9236E-02  0.9364E-02  0.9236E-02  0.0000E+00  0.0000E+00  0.0000E+00  0.0000E+00  0.0000E+00  0.0000E+00  0.0000E+00  0.0000E+00  0.0000E+00  0.0000E+00
      8.763  0.2583E-01  0.2573E-01  0.1158E-01  0.1149E-01  0.1158E-01  0.1149E-01  0.1158E-01  0.1149E-01  0.0000E+00  0.0000E+00  0.0000E+00  0.0000E+00  0.0000E+00  0.0000E+00  0.0000E+00  0.0000E+00  0.0000E+00  0.0000E+00
      9.183  0.1900E-01  0.1901E-01  0.9784E-02  0.9762E-02  0.9784E-02  0.9762E-02  0.9784E-02  0.9762E-02  0.0000E+00  0.0000E+00  0.0000E+00  0.0000E+00  0.0000E+00  0.0000E+00  0.0000E+00  0.0000E+00  0.0000E+00  0.0000E+00
      9.603  0.1913E-01  0.1905E-01  0.1029E-01  0.1023E-01  0.1029E-01  0.1023E-01  0.1029E-01  0.1023E-01  0.0000E+00  0.0000E+00  0.0000E+00  0.0000E+00  0.0000E+00  0.0000E+00  0.0000E+00  0.0000E+00  0.0000E+00  0.0000E+00
     10.024  0.1757E-01  0.1758E-01  0.9759E-02  0.9732E-02  0.9759E-02  0.9732E-02  0.9759E-02  0.9732E-02  0.0000E+00  0.0000E+00  0.0000E+00  0.0000E+00  0.0000E+00  0.0000E+00  0.0000E+00  0.0000E+00  0.0000E+00  0.0000E+00
     10.444  0.2556E-01  0.2554E-01  0.1128E-01  0.1121E-01  0.1128E-01  0.1121E-01  0.1128E-01  0.1121E-01  0.0000E+00  0.0000E+00  0.0000E+00  0.0000E+00  0.0000E+00  0.0000E+00  0.0000E+00  0.0000E+00  0.0000E+00  0.0000E+00
     10.865  0.2325E-01  0.2319E-01  0.1223E-01  0.1215E-01  0.1223E-01  0.1215E-01  0.1223E-01  0.1215E-01  0.0000E+00  0.0000E+00  0.0000E+00  0.0000E+00  0.0000E+00  0.0000E+00  0.0000E+00  0.0000E+00  0.0000E+00  0.0000E+00
     11.285  0.2271E-01  0.2278E-01  0.1201E-01  0.1198E-01  0.1201E-01  0.1198E-01  0.1201E-01  0.1198E-01  0.0000E+00  0.0000E+00  0.0000E+00  0.0000E+00  0.0000E+00  0.0000E+00  0.0000E+00  0.0000E+00  0.0000E+00  0.0000E+00
     11.705  0.2218E-01  0.2217E-01  0.1208E-01  0.1202E-01  0.1208E-01  0.1202E-01  0.1208E-01  0.1202E-01  0.0000E+00  0.0000E+00  0.0000E+00  0.0000E+00  0.0000E+00  0.0000E+00  0.0000E+00  0.0000E+00  0.0000E+00  0.0000E+00
     12.126  0.2242E-01  0.2232E-01  0.1334E-01  0.1312E-01  0.1334E-01  0.1312E-01  0.1334E-01  0.1312E-01  0.0000E+00  0.0000E+00  0.0000E+00  0.0000E+00  0.0000E+00  0.0000E+00  0.0000E+00  0.0000E+00  0.0000E+00  0.0000E+00