 vasp.6.2.1 16May21 (build Aug 15 2022 14:47:30) complex                         
 executed on             LinuxGNU date 2025.12.15  21:34:14
 running on   48 total cores
 distrk:  each k-point on   48 cores,    1 groups
 distr:  one band on NCORE=   1 cores,   48 groups


--------------------------------------------------------------------------------------------------------


 INCAR:
   ALGO = Fast
   EDIFF = 5e-05
   ENCUT = 520.0
   ISMEAR = -5
   ISPIN = 2
   LASPH = True
   LCHARG = True
   LORBIT = 11
   LREAL = False
   LWAVE = False
   MAGMOM = 1*0.6
   NELM = 100
   NSW = 0
   PREC = Accurate
   SIGMA = 0.05

 POTCAR:    PAW_PBE Al 04Jan2001                  
 -----------------------------------------------------------------------------
|                                                                             |
|           W    W    AA    RRRRR   N    N  II  N    N   GGGG   !!!           |
|           W    W   A  A   R    R  NN   N  II  NN   N  G    G  !!!           |
|           W    W  A    A  R    R  N N  N  II  N N  N  G       !!!           |
|           W WW W  AAAAAA  RRRRR   N  N N  II  N  N N  G  GGG   !            |
|           WW  WW  A    A  R   R   N   NN  II  N   NN  G    G                |
|           W    W  A    A  R    R  N    N  II  N    N   GGGG   !!!           |
|                                                                             |
|     For optimal performance we recommend to set                             |
|       NCORE = 2 up to number-of-cores-per-socket                            |
|     NCORE specifies how many cores store one orbital (NPAR=cpu/NCORE).      |
|     This setting can greatly improve the performance of VASP for DFT.       |
|     The default, NCORE=1 might be grossly inefficient on modern             |
|     multi-core architectures or massively parallel machines. Do your        |
|     own testing! More info at https://www.vasp.at/wiki/index.php/NCORE      |
|     Unfortunately you need to use the default for GW and RPA                |
|     calculations (for HF NCORE is supported but not extensively tested      |
|     yet).                                                                   |
|                                                                             |
 -----------------------------------------------------------------------------

 POTCAR:    PAW_PBE Al 04Jan2001                  
   VRHFIN =Al: s2p1                                                                                 
   LEXCH  = PE                                                                                      
   EATOM  =    53.5387 eV,    3.9350 Ry                                                             
                                                                                                    
   TITEL  = PAW_PBE Al 04Jan2001                                                                    
   LULTRA =        F    use ultrasoft PP ?                                                          
   IUNSCR =        1    unscreen: 0-lin 1-nonlin 2-no                                               
   RPACOR =    1.500    partial core radius                                                         
   POMASS =   26.981; ZVAL   =    3.000    mass and valenz                                          
   RCORE  =    1.900    outmost cutoff radius                                                       
   RWIGS  =    2.650; RWIGS  =    1.402    wigner-seitz radius (au A)                               
   ENMAX  =  240.300; ENMIN  =  180.225 eV                                                          
   ICORE  =        2    local potential                                                             
   LCOR   =        T    correct aug charges                                                         
   LPAW   =        T    paw PP                                                                      
   EAUG   =  291.052                                                                                
   DEXC   =    0.000                                                                                
   RMAX   =    1.939    core radius for proj-oper                                                   
   RAUG   =    1.300    factor for augmentation sphere                                              
   RDEP   =    1.966    radius for radial grids                                                     
   RDEPT  =    1.856    core radius for aug-charge                                                  
                                                                                                    
   Atomic configuration                                                                             
    6 entries                                                                                       
     n  l   j            E        occ.                                                              
     1  0  0.50     -1511.1048   2.0000                                                             
     2  0  0.50      -108.1629   2.0000                                                             
     2  1  1.50       -69.6402   6.0000                                                             
     3  0  0.50        -7.7528   2.0000                                                             
     3  1  1.50        -2.7121   1.0000                                                             
     3  2  2.50        -2.7212   0.0000                                                             
   Description                                                                                      
     l       E           TYP  RCUT    TYP  RCUT                                                     
     0     -7.7528455     23  1.900                                                                 
     0     -3.3096929     23  1.900                                                                 
     1     -2.7120682     23  1.900                                                                 
     1     13.6058260     23  1.900                                                                 
     2     -2.7211652      7  1.900                                                                 
  local pseudopotential read in
  partial core-charges read in
  partial kinetic energy density read in
  atomic valenz-charges read in
  non local Contribution for L=           0  read in
    real space projection operators read in
  non local Contribution for L=           0  read in
    real space projection operators read in
  non local Contribution for L=           1  read in
    real space projection operators read in
  non local Contribution for L=           1  read in
    real space projection operators read in
    PAW grid and wavefunctions read in

   number of l-projection  operators is LMAX  =           4
   number of lm-projection operators is LMMAX =           8

  PAW_PBE Al 04Jan2001                  :
 energy of atom  1       EATOM=  -53.5387
 kinetic energy error for atom=    0.0002 (will be added to EATOM!!)


 POSCAR: # Generated by Masgent for k-point conve
  positions in direct lattice
  No initial velocities read in
 exchange correlation table for  LEXCH =        8
   RHO(1)=    0.500       N(1)  =     2000
   RHO(2)=  100.500       N(2)  =     4000

 VTST: version 4.2, (08/11/21)

 CHAIN: initializing optimizer
 
 OPT: Using VASP Dynamics algorithm
 CHAIN: Read ICHAIN            0

 POSCAR: # Generated by Masgent for k-point conve
  positions in direct lattice
  No initial velocities read in



--------------------------------------------------------------------------------------------------------


 ion  position               nearest neighbor table
   1  0.000  0.000  0.000-

  LATTYP: Found a face centered cubic cell.
 ALAT       =     4.0480000000
  
  Lattice vectors:
  
 A1 = (   0.0000000000,   2.0240000000,   2.0240000000)
 A2 = (   2.0240000000,   0.0000000000,   2.0240000000)
 A3 = (   2.0240000000,   2.0240000000,   0.0000000000)


Analysis of symmetry for initial positions (statically):
=====================================================================
 Subroutine PRICEL returns:
 Original cell was already a primitive cell.
 

 Routine SETGRP: Setting up the symmetry group for a 
 face centered cubic supercell.


 Subroutine GETGRP returns: Found 48 space group operations
 (whereof 48 operations were pure point group operations)
 out of a pool of 48 trial point group operations.


The static configuration has the point symmetry O_h .


Analysis of symmetry for dynamics (positions and initial velocities):
=====================================================================
 Subroutine PRICEL returns:
 Original cell was already a primitive cell.
 

 Routine SETGRP: Setting up the symmetry group for a 
 face centered cubic supercell.


 Subroutine GETGRP returns: Found 48 space group operations
 (whereof 48 operations were pure point group operations)
 out of a pool of 48 trial point group operations.


The dynamic configuration has the point symmetry O_h .


Analysis of structural, dynamic, and magnetic symmetry:
=====================================================================
 Subroutine PRICEL returns:
 Original cell was already a primitive cell.
 

 Routine SETGRP: Setting up the symmetry group for a 
 face centered cubic supercell.


 Subroutine GETGRP returns: Found 48 space group operations
 (whereof 48 operations were pure point group operations)
 out of a pool of 48 trial point group operations.


The overall configuration has the point symmetry O_h .


 Subroutine INISYM returns: Found 48 space group operations
 (whereof 48 operations are pure point group operations),
 and found     1 'primitive' translations


----------------------------------------------------------------------------------------

                                     Primitive cell                                     

  volume of cell :      16.5829

  direct lattice vectors                    reciprocal lattice vectors
     0.000000000  2.024000000  2.024000000    -0.247035573  0.247035573  0.247035573
     2.024000000  0.000000000  2.024000000     0.247035573 -0.247035573  0.247035573
     2.024000000  2.024000000  0.000000000     0.247035573  0.247035573 -0.247035573

  length of vectors
     2.862368250  2.862368250  2.862368250     0.427878164  0.427878164  0.427878164

  position of ions in fractional coordinates (direct lattice)
     0.000000000  0.000000000  0.000000000

  ion indices of the primitive-cell ions
   primitive index   ion index
                 1           1

----------------------------------------------------------------------------------------



 KPOINTS: # Generated by Masgent for k-point conve

Automatic generation of k-mesh.
 Grid dimensions read from file:
 generate k-points for:   18   18   18

 Generating k-lattice:

  Cartesian coordinates                     Fractional coordinates (reciprocal lattice)
    -0.013724199  0.013724199  0.013724199     0.055555556  0.000000000  0.000000000
     0.013724199 -0.013724199  0.013724199     0.000000000  0.055555556  0.000000000
     0.013724199  0.013724199 -0.013724199     0.000000000  0.000000000  0.055555556

  Length of vectors
     0.023771009  0.023771009  0.023771009

  Shift w.r.t. Gamma in fractional coordinates (k-lattice)
     0.000000000  0.000000000  0.000000000

 TETIRR: Found    806 inequivalent tetrahedra from    34992
 
 Subroutine IBZKPT returns following result:
 ===========================================
 
 Found    195 irreducible k-points:
 
 Following reciprocal coordinates:
            Coordinates               Weight
  0.000000  0.000000  0.000000      1.000000
  0.055556  0.000000  0.000000      8.000000
  0.111111  0.000000  0.000000      8.000000
  0.166667  0.000000  0.000000      8.000000
  0.222222  0.000000  0.000000      8.000000
  0.277778  0.000000  0.000000      8.000000
  0.333333  0.000000  0.000000      8.000000
  0.388889  0.000000  0.000000      8.000000
  0.444444  0.000000  0.000000      8.000000
  0.500000  0.000000  0.000000      4.000000
  0.055556  0.055556  0.000000      6.000000
  0.111111  0.055556  0.000000     24.000000
  0.166667  0.055556  0.000000     24.000000
  0.222222  0.055556  0.000000     24.000000
  0.277778  0.055556  0.000000     24.000000
  0.333333  0.055556  0.000000     24.000000
  0.388889  0.055556  0.000000     24.000000
  0.444444  0.055556  0.000000     24.000000
  0.500000  0.055556  0.000000     24.000000
 -0.444444  0.055556  0.000000     24.000000
 -0.388889  0.055556  0.000000     24.000000
 -0.333333  0.055556  0.000000     24.000000
 -0.277778  0.055556  0.000000     24.000000
 -0.222222  0.055556  0.000000     24.000000
 -0.166667  0.055556  0.000000     24.000000
 -0.111111  0.055556  0.000000     24.000000
 -0.055556  0.055556  0.000000     12.000000
  0.111111  0.111111  0.000000      6.000000
  0.166667  0.111111  0.000000     24.000000
  0.222222  0.111111  0.000000     24.000000
  0.277778  0.111111  0.000000     24.000000
  0.333333  0.111111  0.000000     24.000000
  0.388889  0.111111  0.000000     24.000000
  0.444444  0.111111  0.000000     24.000000
  0.500000  0.111111  0.000000     24.000000
 -0.444444  0.111111  0.000000     24.000000
 -0.388889  0.111111  0.000000     24.000000
 -0.333333  0.111111  0.000000     24.000000
 -0.277778  0.111111  0.000000     24.000000
 -0.222222  0.111111  0.000000     24.000000
 -0.166667  0.111111  0.000000     24.000000
 -0.111111  0.111111  0.000000     12.000000
  0.166667  0.166667  0.000000      6.000000
  0.222222  0.166667  0.000000     24.000000
  0.277778  0.166667  0.000000     24.000000
  0.333333  0.166667  0.000000     24.000000
  0.388889  0.166667  0.000000     24.000000
  0.444444  0.166667  0.000000     24.000000
  0.500000  0.166667  0.000000     24.000000
 -0.444444  0.166667  0.000000     24.000000
 -0.388889  0.166667  0.000000     24.000000
 -0.333333  0.166667  0.000000     24.000000
 -0.277778  0.166667  0.000000     24.000000
 -0.222222  0.166667  0.000000     24.000000
 -0.166667  0.166667  0.000000     12.000000
  0.222222  0.222222  0.000000      6.000000
  0.277778  0.222222  0.000000     24.000000
  0.333333  0.222222  0.000000     24.000000
  0.388889  0.222222  0.000000     24.000000
  0.444444  0.222222  0.000000     24.000000
  0.500000  0.222222  0.000000     24.000000
 -0.444444  0.222222  0.000000     24.000000
 -0.388889  0.222222  0.000000     24.000000
 -0.333333  0.222222  0.000000     24.000000
 -0.277778  0.222222  0.000000     24.000000
 -0.222222  0.222222  0.000000     12.000000
  0.277778  0.277778  0.000000      6.000000
  0.333333  0.277778  0.000000     24.000000
  0.388889  0.277778  0.000000     24.000000
  0.444444  0.277778  0.000000     24.000000
  0.500000  0.277778  0.000000     24.000000
 -0.444444  0.277778  0.000000     24.000000
 -0.388889  0.277778  0.000000     24.000000
 -0.333333  0.277778  0.000000     24.000000
 -0.277778  0.277778  0.000000     12.000000
  0.333333  0.333333  0.000000      6.000000
  0.388889  0.333333  0.000000     24.000000
  0.444444  0.333333  0.000000     24.000000
  0.500000  0.333333  0.000000     24.000000
 -0.444444  0.333333  0.000000     24.000000
 -0.388889  0.333333  0.000000     24.000000
 -0.333333  0.333333  0.000000     12.000000
  0.388889  0.388889  0.000000      6.000000
  0.444444  0.388889  0.000000     24.000000
  0.500000  0.388889  0.000000     24.000000
 -0.444444  0.388889  0.000000     24.000000
 -0.388889  0.388889  0.000000     12.000000
  0.444444  0.444444  0.000000      6.000000
  0.500000  0.444444  0.000000     24.000000
 -0.444444  0.444444  0.000000     12.000000
  0.500000  0.500000  0.000000      3.000000
  0.166667  0.111111  0.055556     24.000000
  0.222222  0.111111  0.055556     48.000000
  0.277778  0.111111  0.055556     48.000000
  0.333333  0.111111  0.055556     48.000000
  0.388889  0.111111  0.055556     48.000000
  0.444444  0.111111  0.055556     48.000000
  0.500000  0.111111  0.055556     48.000000
 -0.444444  0.111111  0.055556     24.000000
  0.222222  0.166667  0.055556     24.000000
  0.277778  0.166667  0.055556     48.000000
  0.333333  0.166667  0.055556     48.000000
  0.388889  0.166667  0.055556     48.000000
  0.444444  0.166667  0.055556     48.000000
  0.500000  0.166667  0.055556     48.000000
 -0.444444  0.166667  0.055556     48.000000
 -0.388889  0.166667  0.055556     48.000000
 -0.333333  0.166667  0.055556     48.000000
 -0.277778  0.166667  0.055556     48.000000
 -0.222222  0.166667  0.055556     48.000000
 -0.166667  0.166667  0.055556     48.000000
 -0.111111  0.166667  0.055556     24.000000
  0.277778  0.222222  0.055556     24.000000
  0.333333  0.222222  0.055556     48.000000
  0.388889  0.222222  0.055556     48.000000
  0.444444  0.222222  0.055556     48.000000
  0.500000  0.222222  0.055556     48.000000
 -0.444444  0.222222  0.055556     48.000000
 -0.388889  0.222222  0.055556     48.000000
 -0.333333  0.222222  0.055556     48.000000
 -0.277778  0.222222  0.055556     48.000000
 -0.222222  0.222222  0.055556     48.000000
 -0.166667  0.222222  0.055556     24.000000
  0.333333  0.277778  0.055556     24.000000
  0.388889  0.277778  0.055556     48.000000
  0.444444  0.277778  0.055556     48.000000
  0.500000  0.277778  0.055556     48.000000
 -0.444444  0.277778  0.055556     48.000000
 -0.388889  0.277778  0.055556     48.000000
 -0.333333  0.277778  0.055556     48.000000
 -0.277778  0.277778  0.055556     48.000000
 -0.222222  0.277778  0.055556     24.000000
  0.388889  0.333333  0.055556     24.000000
  0.444444  0.333333  0.055556     48.000000
  0.500000  0.333333  0.055556     48.000000
 -0.444444  0.333333  0.055556     48.000000
 -0.388889  0.333333  0.055556     48.000000
 -0.333333  0.333333  0.055556     48.000000
 -0.277778  0.333333  0.055556     24.000000
  0.444444  0.388889  0.055556     24.000000
  0.500000  0.388889  0.055556     48.000000
 -0.444444  0.388889  0.055556     48.000000
 -0.388889  0.388889  0.055556     48.000000
 -0.333333  0.388889  0.055556     24.000000
  0.500000  0.444444  0.055556     24.000000
 -0.444444  0.444444  0.055556     48.000000
 -0.388889  0.444444  0.055556     24.000000
 -0.444444  0.500000  0.055556     12.000000
  0.333333  0.222222  0.111111     24.000000
  0.388889  0.222222  0.111111     48.000000
  0.444444  0.222222  0.111111     48.000000
  0.500000  0.222222  0.111111     48.000000
 -0.444444  0.222222  0.111111     48.000000
 -0.388889  0.222222  0.111111     24.000000
  0.388889  0.277778  0.111111     24.000000
  0.444444  0.277778  0.111111     48.000000
  0.500000  0.277778  0.111111     48.000000
 -0.444444  0.277778  0.111111     48.000000
 -0.388889  0.277778  0.111111     48.000000
 -0.333333  0.277778  0.111111     48.000000
 -0.277778  0.277778  0.111111     48.000000
 -0.222222  0.277778  0.111111     48.000000
 -0.166667  0.277778  0.111111     24.000000
  0.444444  0.333333  0.111111     24.000000
  0.500000  0.333333  0.111111     48.000000
 -0.444444  0.333333  0.111111     48.000000
 -0.388889  0.333333  0.111111     48.000000
 -0.333333  0.333333  0.111111     48.000000
 -0.277778  0.333333  0.111111     48.000000
 -0.222222  0.333333  0.111111     24.000000
  0.500000  0.388889  0.111111     24.000000
 -0.444444  0.388889  0.111111     48.000000
 -0.388889  0.388889  0.111111     48.000000
 -0.333333  0.388889  0.111111     48.000000
 -0.277778  0.388889  0.111111     24.000000
 -0.444444  0.444444  0.111111     24.000000
 -0.388889  0.444444  0.111111     48.000000
 -0.333333  0.444444  0.111111     24.000000
 -0.388889  0.500000  0.111111     12.000000
  0.500000  0.333333  0.166667     24.000000
 -0.444444  0.333333  0.166667     48.000000
 -0.388889  0.333333  0.166667     48.000000
 -0.333333  0.333333  0.166667     24.000000
 -0.444444  0.388889  0.166667     24.000000
 -0.388889  0.388889  0.166667     48.000000
 -0.333333  0.388889  0.166667     48.000000
 -0.277778  0.388889  0.166667     48.000000
 -0.222222  0.388889  0.166667     24.000000
 -0.388889  0.444444  0.166667     24.000000
 -0.333333  0.444444  0.166667     48.000000
 -0.277778  0.444444  0.166667     24.000000
 -0.333333  0.500000  0.166667     12.000000
 -0.333333  0.444444  0.222222     24.000000
 -0.277778  0.444444  0.222222     24.000000
 -0.277778  0.500000  0.222222     12.000000
 
 Following cartesian coordinates:
            Coordinates               Weight
  0.000000  0.000000  0.000000      1.000000
 -0.013724  0.013724  0.013724      8.000000
 -0.027448  0.027448  0.027448      8.000000
 -0.041173  0.041173  0.041173      8.000000
 -0.054897  0.054897  0.054897      8.000000
 -0.068621  0.068621  0.068621      8.000000
 -0.082345  0.082345  0.082345      8.000000
 -0.096069  0.096069  0.096069      8.000000
 -0.109794  0.109794  0.109794      8.000000
 -0.123518  0.123518  0.123518      4.000000
  0.000000  0.000000  0.027448      6.000000
 -0.013724  0.013724  0.041173     24.000000
 -0.027448  0.027448  0.054897     24.000000
 -0.041173  0.041173  0.068621     24.000000
 -0.054897  0.054897  0.082345     24.000000
 -0.068621  0.068621  0.096069     24.000000
 -0.082345  0.082345  0.109794     24.000000
 -0.096069  0.096069  0.123518     24.000000
 -0.109794  0.109794  0.137242     24.000000
  0.123518 -0.123518 -0.096069     24.000000
  0.109794 -0.109794 -0.082345     24.000000
  0.096069 -0.096069 -0.068621     24.000000
  0.082345 -0.082345 -0.054897     24.000000
  0.068621 -0.068621 -0.041173     24.000000
  0.054897 -0.054897 -0.027448     24.000000
  0.041173 -0.041173 -0.013724     24.000000
  0.027448 -0.027448  0.000000     12.000000
  0.000000  0.000000  0.054897      6.000000
 -0.013724  0.013724  0.068621     24.000000
 -0.027448  0.027448  0.082345     24.000000
 -0.041173  0.041173  0.096069     24.000000
 -0.054897  0.054897  0.109794     24.000000
 -0.068621  0.068621  0.123518     24.000000
 -0.082345  0.082345  0.137242     24.000000
 -0.096069  0.096069  0.150966     24.000000
  0.137242 -0.137242 -0.082345     24.000000
  0.123518 -0.123518 -0.068621     24.000000
  0.109794 -0.109794 -0.054897     24.000000
  0.096069 -0.096069 -0.041173     24.000000
  0.082345 -0.082345 -0.027448     24.000000
  0.068621 -0.068621 -0.013724     24.000000
  0.054897 -0.054897  0.000000     12.000000
  0.000000  0.000000  0.082345      6.000000
 -0.013724  0.013724  0.096069     24.000000
 -0.027448  0.027448  0.109794     24.000000
 -0.041173  0.041173  0.123518     24.000000
 -0.054897  0.054897  0.137242     24.000000
 -0.068621  0.068621  0.150966     24.000000
 -0.082345  0.082345  0.164690     24.000000
  0.150966 -0.150966 -0.068621     24.000000
  0.137242 -0.137242 -0.054897     24.000000
  0.123518 -0.123518 -0.041173     24.000000
  0.109794 -0.109794 -0.027448     24.000000
  0.096069 -0.096069 -0.013724     24.000000
  0.082345 -0.082345  0.000000     12.000000
  0.000000  0.000000  0.109794      6.000000
 -0.013724  0.013724  0.123518     24.000000
 -0.027448  0.027448  0.137242     24.000000
 -0.041173  0.041173  0.150966     24.000000
 -0.054897  0.054897  0.164690     24.000000
 -0.068621  0.068621  0.178415     24.000000
  0.164690 -0.164690 -0.054897     24.000000
  0.150966 -0.150966 -0.041173     24.000000
  0.137242 -0.137242 -0.027448     24.000000
  0.123518 -0.123518 -0.013724     24.000000
  0.109794 -0.109794  0.000000     12.000000
  0.000000  0.000000  0.137242      6.000000
 -0.013724  0.013724  0.150966     24.000000
 -0.027448  0.027448  0.164690     24.000000
 -0.041173  0.041173  0.178415     24.000000
 -0.054897  0.054897  0.192139     24.000000
  0.178415 -0.178415 -0.041173     24.000000
  0.164690 -0.164690 -0.027448     24.000000
  0.150966 -0.150966 -0.013724     24.000000
  0.137242 -0.137242  0.000000     12.000000
  0.000000  0.000000  0.164690      6.000000
 -0.013724  0.013724  0.178415     24.000000
 -0.027448  0.027448  0.192139     24.000000
 -0.041173  0.041173  0.205863     24.000000
  0.192139 -0.192139 -0.027448     24.000000
  0.178415 -0.178415 -0.013724     24.000000
  0.164690 -0.164690  0.000000     12.000000
  0.000000  0.000000  0.192139      6.000000
 -0.013724  0.013724  0.205863     24.000000
 -0.027448  0.027448  0.219587     24.000000
  0.205863 -0.205863 -0.013724     24.000000
  0.192139 -0.192139  0.000000     12.000000
  0.000000  0.000000  0.219587      6.000000
 -0.013724  0.013724  0.233311     24.000000
  0.219587 -0.219587  0.000000     12.000000
  0.000000  0.000000  0.247036      3.000000
  0.000000  0.027448  0.054897     24.000000
 -0.013724  0.041173  0.068621     48.000000
 -0.027448  0.054897  0.082345     48.000000
 -0.041173  0.068621  0.096069     48.000000
 -0.054897  0.082345  0.109794     48.000000
 -0.068621  0.096069  0.123518     48.000000
 -0.082345  0.109794  0.137242     48.000000
  0.150966 -0.123518 -0.096069     24.000000
  0.000000  0.027448  0.082345     24.000000
 -0.013724  0.041173  0.096069     48.000000
 -0.027448  0.054897  0.109794     48.000000
 -0.041173  0.068621  0.123518     48.000000
 -0.054897  0.082345  0.137242     48.000000
 -0.068621  0.096069  0.150966     48.000000
  0.164690 -0.137242 -0.082345     48.000000
  0.150966 -0.123518 -0.068621     48.000000
  0.137242 -0.109794 -0.054897     48.000000
  0.123518 -0.096069 -0.041173     48.000000
  0.109794 -0.082345 -0.027448     48.000000
  0.096069 -0.068621 -0.013724     48.000000
  0.082345 -0.054897 -0.000000     24.000000
  0.000000  0.027448  0.109794     24.000000
 -0.013724  0.041173  0.123518     48.000000
 -0.027448  0.054897  0.137242     48.000000
 -0.041173  0.068621  0.150966     48.000000
 -0.054897  0.082345  0.164690     48.000000
  0.178415 -0.150966 -0.068621     48.000000
  0.164690 -0.137242 -0.054897     48.000000
  0.150966 -0.123518 -0.041173     48.000000
  0.137242 -0.109794 -0.027448     48.000000
  0.123518 -0.096069 -0.013724     48.000000
  0.109794 -0.082345  0.000000     24.000000
  0.000000  0.027448  0.137242     24.000000
 -0.013724  0.041173  0.150966     48.000000
 -0.027448  0.054897  0.164690     48.000000
 -0.041173  0.068621  0.178415     48.000000
  0.192139 -0.164690 -0.054897     48.000000
  0.178415 -0.150966 -0.041173     48.000000
  0.164690 -0.137242 -0.027448     48.000000
  0.150966 -0.123518 -0.013724     48.000000
  0.137242 -0.109794  0.000000     24.000000
  0.000000  0.027448  0.164690     24.000000
 -0.013724  0.041173  0.178415     48.000000
 -0.027448  0.054897  0.192139     48.000000
  0.205863 -0.178415 -0.041173     48.000000
  0.192139 -0.164690 -0.027448     48.000000
  0.178415 -0.150966 -0.013724     48.000000
  0.164690 -0.137242  0.000000     24.000000
  0.000000  0.027448  0.192139     24.000000
 -0.013724  0.041173  0.205863     48.000000
  0.219587 -0.192139 -0.027448     48.000000
  0.205863 -0.178415 -0.013724     48.000000
  0.192139 -0.164690 -0.000000     24.000000
  0.000000  0.027448  0.219587     24.000000
  0.233311 -0.205863 -0.013724     48.000000
  0.219587 -0.192139  0.000000     24.000000
  0.247036 -0.219587  0.000000     12.000000
  0.000000  0.054897  0.109794     24.000000
 -0.013724  0.068621  0.123518     48.000000
 -0.027448  0.082345  0.137242     48.000000
 -0.041173  0.096069  0.150966     48.000000
  0.192139 -0.137242 -0.082345     48.000000
  0.178415 -0.123518 -0.068621     24.000000
  0.000000  0.054897  0.137242     24.000000
 -0.013724  0.068621  0.150966     48.000000
 -0.027448  0.082345  0.164690     48.000000
  0.205863 -0.150966 -0.068621     48.000000
  0.192139 -0.137242 -0.054897     48.000000
  0.178415 -0.123518 -0.041173     48.000000
  0.164690 -0.109794 -0.027448     48.000000
  0.150966 -0.096069 -0.013724     48.000000
  0.137242 -0.082345  0.000000     24.000000
  0.000000  0.054897  0.164690     24.000000
 -0.013724  0.068621  0.178415     48.000000
  0.219587 -0.164690 -0.054897     48.000000
  0.205863 -0.150966 -0.041173     48.000000
  0.192139 -0.137242 -0.027448     48.000000
  0.178415 -0.123518 -0.013724     48.000000
  0.164690 -0.109794  0.000000     24.000000
  0.000000  0.054897  0.192139     24.000000
  0.233311 -0.178415 -0.041173     48.000000
  0.219587 -0.164690 -0.027448     48.000000
  0.205863 -0.150966 -0.013724     48.000000
  0.192139 -0.137242 -0.000000     24.000000
  0.247036 -0.192139 -0.027448     24.000000
  0.233311 -0.178415 -0.013724     48.000000
  0.219587 -0.164690 -0.000000     24.000000
  0.247036 -0.192139  0.000000     12.000000
  0.000000  0.082345  0.164690     24.000000
  0.233311 -0.150966 -0.068621     48.000000
  0.219587 -0.137242 -0.054897     48.000000
  0.205863 -0.123518 -0.041173     24.000000
  0.247036 -0.164690 -0.054897     24.000000
  0.233311 -0.150966 -0.041173     48.000000
  0.219587 -0.137242 -0.027448     48.000000
  0.205863 -0.123518 -0.013724     48.000000
  0.192139 -0.109794  0.000000     24.000000
  0.247036 -0.164690 -0.027448     24.000000
  0.233311 -0.150966 -0.013724     48.000000
  0.219587 -0.137242  0.000000     24.000000
  0.247036 -0.164690  0.000000     12.000000
  0.247036 -0.137242 -0.027448     24.000000
  0.233311 -0.123518 -0.013724     24.000000
  0.247036 -0.137242  0.000000     12.000000
 


--------------------------------------------------------------------------------------------------------




 Dimension of arrays:
   k-points           NKPTS =    195   k-points in BZ     NKDIM =    195   number of bands    NBANDS=     48
   number of dos      NEDOS =    301   number of ions     NIONS =      1
   non local maximal  LDIM  =      4   non local SUM 2l+1 LMDIM =      8
   total plane-waves  NPLWV =  13824
   max r-space proj   IRMAX =      1   max aug-charges    IRDMAX=  32640
   dimension x,y,z NGX =    24 NGY =   24 NGZ =   24
   dimension x,y,z NGXF=    48 NGYF=   48 NGZF=   48
   support grid    NGXF=    48 NGYF=   48 NGZF=   48
   ions per type =               1
   NGX,Y,Z   is equivalent  to a cutoff of  13.94, 13.94, 13.94 a.u.
   NGXF,Y,Z  is equivalent  to a cutoff of  27.88, 27.88, 27.88 a.u.

 SYSTEM =  unknown system                          
 POSCAR =  # Generated by Masgent for k-point conve

 Startparameter for this run:
   NWRITE =      2    write-flag & timer
   PREC   = accura    normal or accurate (medium, high low for compatibility)
   ISTART =      0    job   : 0-new  1-cont  2-samecut
   ICHARG =      2    charge: 1-file 2-atom 10-const
   ISPIN  =      2    spin polarized calculation?
   LNONCOLLINEAR =      F non collinear calculations
   LSORBIT =      F    spin-orbit coupling
   INIWAV =      1    electr: 0-lowe 1-rand  2-diag
   LASPH  =      T    aspherical Exc in radial PAW
 Electronic Relaxation 1
   ENCUT  =  520.0 eV  38.22 Ry    6.18 a.u.   5.32  5.32  5.32*2*pi/ulx,y,z
   ENINI  =  520.0     initial cutoff
   ENAUG  =  291.1 eV  augmentation charge cutoff
   NELM   =    100;   NELMIN=  2; NELMDL= -5     # of ELM steps 
   EDIFF  = 0.5E-04   stopping-criterion for ELM
   LREAL  =      F    real-space projection
   NLSPLINE    = F    spline interpolate recip. space projectors
   LCOMPAT=      F    compatible to vasp.4.4
   GGA_COMPAT  = T    GGA compatible to vasp.4.4-vasp.4.6
   LMAXPAW     = -100 max onsite density
   LMAXMIX     =    2 max onsite mixed and CHGCAR
   VOSKOWN=      0    Vosko Wilk Nusair interpolation
   ROPT   =    0.00000
 Ionic relaxation
   EDIFFG = 0.5E-03   stopping-criterion for IOM
   NSW    =      0    number of steps for IOM
   NBLOCK =      1;   KBLOCK =      1    inner block; outer block 
   IBRION =     -1    ionic relax: 0-MD 1-quasi-New 2-CG
   NFREE  =      0    steps in history (QN), initial steepest desc. (CG)
   ISIF   =      2    stress and relaxation
   IWAVPR =     10    prediction:  0-non 1-charg 2-wave 3-comb
   ISYM   =      2    0-nonsym 1-usesym 2-fastsym
   LCORR  =      T    Harris-Foulkes like correction to forces

   POTIM  = 0.5000    time-step for ionic-motion
   TEIN   =    0.0    initial temperature
   TEBEG  =    0.0;   TEEND  =   0.0 temperature during run
   SMASS  =  -3.00    Nose mass-parameter (am)
   estimated Nose-frequenzy (Omega)   =  0.10E-29 period in steps = 0.13E+47 mass=  -0.187E-27a.u.
   SCALEE = 1.0000    scale energy and forces
   NPACO  =    256;   APACO  = 16.0  distance and # of slots for P.C.
   PSTRESS=    0.0 pullay stress

  Mass of Ions in am
   POMASS =  26.98
  Ionic Valenz
   ZVAL   =   3.00
  Atomic Wigner-Seitz radii
   RWIGS  =  -1.00
  virtual crystal weights 
   VCA    =   1.00
   NELECT =       3.0000    total number of electrons
   NUPDOWN=      -1.0000    fix difference up-down

 DOS related values:
   EMIN   =  10.00;   EMAX   =-10.00  energy-range for DOS
   EFERMI =   0.00
   ISMEAR =    -5;   SIGMA  =   0.05  broadening in eV -4-tet -1-fermi 0-gaus

 Electronic relaxation 2 (details)
   IALGO  =     68    algorithm
   LDIAG  =      T    sub-space diagonalisation (order eigenvalues)
   LSUBROT=      F    optimize rotation matrix (better conditioning)
   TURBO    =      0    0=normal 1=particle mesh
   IRESTART =      0    0=no restart 2=restart with 2 vectors
   NREBOOT  =      0    no. of reboots
   NMIN     =      0    reboot dimension
   EREF     =   0.00    reference energy to select bands
   IMIX   =      4    mixing-type and parameters
     AMIX     =   0.40;   BMIX     =  1.00
     AMIX_MAG =   1.60;   BMIX_MAG =  1.00
     AMIN     =   0.10
     WC   =   100.;   INIMIX=   1;  MIXPRE=   1;  MAXMIX= -45

 Intra band minimization:
   WEIMIN = 0.0000     energy-eigenvalue tresh-hold
   EBREAK =  0.26E-06  absolut break condition
   DEPER  =   0.30     relativ break condition  

   TIME   =   0.40     timestep for ELM

  volume/ion in A,a.u.               =      16.58       111.91
  Fermi-wavevector in a.u.,A,eV,Ry     =   0.925894  1.749687 11.664006  0.857280
  Thomas-Fermi vector in A             =   2.051798

 Write flags
   LWAVE        =      F    write WAVECAR
   LDOWNSAMPLE  =      F    k-point downsampling of WAVECAR
   LCHARG       =      T    write CHGCAR
   LVTOT        =      F    write LOCPOT, total local potential
   LVHAR        =      F    write LOCPOT, Hartree potential only
   LELF         =      F    write electronic localiz. function (ELF)
   LORBIT       =     11    0 simple, 1 ext, 2 COOP (PROOUT), +10 PAW based schemes


 Dipole corrections
   LMONO  =      F    monopole corrections only (constant potential shift)
   LDIPOL =      F    correct potential (dipole corrections)
   IDIPOL =      0    1-x, 2-y, 3-z, 4-all directions 
   EPSILON=  1.0000000 bulk dielectric constant

 Exchange correlation treatment:
   GGA     =    --    GGA type
   LEXCH   =     8    internal setting for exchange type
   VOSKOWN=      0    Vosko Wilk Nusair interpolation
   LHFCALC =     F    Hartree Fock is set to
   LHFONE  =     F    Hartree Fock one center treatment
   AEXX    =    0.0000 exact exchange contribution

 Linear response parameters
   LEPSILON=     F    determine dielectric tensor
   LRPA    =     F    only Hartree local field effects (RPA)
   LNABLA  =     F    use nabla operator in PAW spheres
   LVEL    =     F    velocity operator in full k-point grid
   LINTERFAST=   F  fast interpolation
   KINTER  =     0    interpolate to denser k-point grid
   CSHIFT  =0.1000    complex shift for real part using Kramers Kronig
   OMEGAMAX=  -1.0    maximum frequency
   DEG_THRESHOLD= 0.2000000E-02 threshold for treating states as degnerate
   RTIME   =   -0.100 relaxation time in fs
  (WPLASMAI=    0.000 imaginary part of plasma frequency in eV, 0.658/RTIME)
   DFIELD  = 0.0000000 0.0000000 0.0000000 field for delta impulse in time

 Orbital magnetization related:
   ORBITALMAG=     F  switch on orbital magnetization
   LCHIMAG   =     F  perturbation theory with respect to B field
   DQ        =  0.001000  dq finite difference perturbation B field
   LLRAUG    =     F  two centre corrections for induced B field



--------------------------------------------------------------------------------------------------------


 Static calculation
 charge density and potential will be updated during run
 spin polarized calculation
 RMM-DIIS sequential band-by-band and
  variant of blocked Davidson during initial phase
 perform sub-space diagonalisation
    before iterative eigenvector-optimisation
 modified Broyden-mixing scheme, WC =      100.0
 initial mixing is a Kerker type mixing with AMIX =  0.4000 and BMIX =      1.0000
 Hartree-type preconditioning will be used
 using additional bands           46
 reciprocal scheme for non local part
 use partial core corrections
 calculate Harris-corrections to forces   (improved forces if not selfconsistent)
 use gradient corrections 
 use of overlap-Matrix (Vanderbilt PP)
 Fermi weights with tetrahedron method with Bloechl corrections


--------------------------------------------------------------------------------------------------------


  energy-cutoff  :      520.00
  volume of cell :       16.58
      direct lattice vectors                 reciprocal lattice vectors
     0.000000000  2.024000000  2.024000000    -0.247035573  0.247035573  0.247035573
     2.024000000  0.000000000  2.024000000     0.247035573 -0.247035573  0.247035573
     2.024000000  2.024000000  0.000000000     0.247035573  0.247035573 -0.247035573

  length of vectors
     2.862368250  2.862368250  2.862368250     0.427878164  0.427878164  0.427878164



 k-points in units of 2pi/SCALE and weight: # Generated by Masgent for k-point conve
   0.00000000  0.00000000  0.00000000       0.000
  -0.01372420  0.01372420  0.01372420       0.001
  -0.02744840  0.02744840  0.02744840       0.001
  -0.04117260  0.04117260  0.04117260       0.001
  -0.05489679  0.05489679  0.05489679       0.001
  -0.06862099  0.06862099  0.06862099       0.001
  -0.08234519  0.08234519  0.08234519       0.001
  -0.09606939  0.09606939  0.09606939       0.001
  -0.10979359  0.10979359  0.10979359       0.001
  -0.12351779  0.12351779  0.12351779       0.001
   0.00000000  0.00000000  0.02744840       0.001
  -0.01372420  0.01372420  0.04117260       0.004
  -0.02744840  0.02744840  0.05489679       0.004
  -0.04117260  0.04117260  0.06862099       0.004
  -0.05489679  0.05489679  0.08234519       0.004
  -0.06862099  0.06862099  0.09606939       0.004
  -0.08234519  0.08234519  0.10979359       0.004
  -0.09606939  0.09606939  0.12351779       0.004
  -0.10979359  0.10979359  0.13724199       0.004
   0.12351779 -0.12351779 -0.09606939       0.004
   0.10979359 -0.10979359 -0.08234519       0.004
   0.09606939 -0.09606939 -0.06862099       0.004
   0.08234519 -0.08234519 -0.05489679       0.004
   0.06862099 -0.06862099 -0.04117260       0.004
   0.05489679 -0.05489679 -0.02744840       0.004
   0.04117260 -0.04117260 -0.01372420       0.004
   0.02744840 -0.02744840  0.00000000       0.002
   0.00000000  0.00000000  0.05489679       0.001
  -0.01372420  0.01372420  0.06862099       0.004
  -0.02744840  0.02744840  0.08234519       0.004
  -0.04117260  0.04117260  0.09606939       0.004
  -0.05489679  0.05489679  0.10979359       0.004
  -0.06862099  0.06862099  0.12351779       0.004
  -0.08234519  0.08234519  0.13724199       0.004
  -0.09606939  0.09606939  0.15096618       0.004
   0.13724199 -0.13724199 -0.08234519       0.004
   0.12351779 -0.12351779 -0.06862099       0.004
   0.10979359 -0.10979359 -0.05489679       0.004
   0.09606939 -0.09606939 -0.04117260       0.004
   0.08234519 -0.08234519 -0.02744840       0.004
   0.06862099 -0.06862099 -0.01372420       0.004
   0.05489679 -0.05489679  0.00000000       0.002
   0.00000000  0.00000000  0.08234519       0.001
  -0.01372420  0.01372420  0.09606939       0.004
  -0.02744840  0.02744840  0.10979359       0.004
  -0.04117260  0.04117260  0.12351779       0.004
  -0.05489679  0.05489679  0.13724199       0.004
  -0.06862099  0.06862099  0.15096618       0.004
  -0.08234519  0.08234519  0.16469038       0.004
   0.15096618 -0.15096618 -0.06862099       0.004
   0.13724199 -0.13724199 -0.05489679       0.004
   0.12351779 -0.12351779 -0.04117260       0.004
   0.10979359 -0.10979359 -0.02744840       0.004
   0.09606939 -0.09606939 -0.01372420       0.004
   0.08234519 -0.08234519  0.00000000       0.002
   0.00000000  0.00000000  0.10979359       0.001
  -0.01372420  0.01372420  0.12351779       0.004
  -0.02744840  0.02744840  0.13724199       0.004
  -0.04117260  0.04117260  0.15096618       0.004
  -0.05489679  0.05489679  0.16469038       0.004
  -0.06862099  0.06862099  0.17841458       0.004
   0.16469038 -0.16469038 -0.05489679       0.004
   0.15096618 -0.15096618 -0.04117260       0.004
   0.13724199 -0.13724199 -0.02744840       0.004
   0.12351779 -0.12351779 -0.01372420       0.004
   0.10979359 -0.10979359  0.00000000       0.002
   0.00000000  0.00000000  0.13724199       0.001
  -0.01372420  0.01372420  0.15096618       0.004
  -0.02744840  0.02744840  0.16469038       0.004
  -0.04117260  0.04117260  0.17841458       0.004
  -0.05489679  0.05489679  0.19213878       0.004
   0.17841458 -0.17841458 -0.04117260       0.004
   0.16469038 -0.16469038 -0.02744840       0.004
   0.15096618 -0.15096618 -0.01372420       0.004
   0.13724199 -0.13724199  0.00000000       0.002
   0.00000000  0.00000000  0.16469038       0.001
  -0.01372420  0.01372420  0.17841458       0.004
  -0.02744840  0.02744840  0.19213878       0.004
  -0.04117260  0.04117260  0.20586298       0.004
   0.19213878 -0.19213878 -0.02744840       0.004
   0.17841458 -0.17841458 -0.01372420       0.004
   0.16469038 -0.16469038  0.00000000       0.002
   0.00000000  0.00000000  0.19213878       0.001
  -0.01372420  0.01372420  0.20586298       0.004
  -0.02744840  0.02744840  0.21958718       0.004
   0.20586298 -0.20586298 -0.01372420       0.004
   0.19213878 -0.19213878  0.00000000       0.002
   0.00000000  0.00000000  0.21958718       0.001
  -0.01372420  0.01372420  0.23331137       0.004
   0.21958718 -0.21958718  0.00000000       0.002
   0.00000000  0.00000000  0.24703557       0.001
   0.00000000  0.02744840  0.05489679       0.004
  -0.01372420  0.04117260  0.06862099       0.008
  -0.02744840  0.05489679  0.08234519       0.008
  -0.04117260  0.06862099  0.09606939       0.008
  -0.05489679  0.08234519  0.10979359       0.008
  -0.06862099  0.09606939  0.12351779       0.008
  -0.08234519  0.10979359  0.13724199       0.008
   0.15096618 -0.12351779 -0.09606939       0.004
   0.00000000  0.02744840  0.08234519       0.004
  -0.01372420  0.04117260  0.09606939       0.008
  -0.02744840  0.05489679  0.10979359       0.008
  -0.04117260  0.06862099  0.12351779       0.008
  -0.05489679  0.08234519  0.13724199       0.008
  -0.06862099  0.09606939  0.15096618       0.008
   0.16469038 -0.13724199 -0.08234519       0.008
   0.15096618 -0.12351779 -0.06862099       0.008
   0.13724199 -0.10979359 -0.05489679       0.008
   0.12351779 -0.09606939 -0.04117260       0.008
   0.10979359 -0.08234519 -0.02744840       0.008
   0.09606939 -0.06862099 -0.01372420       0.008
   0.08234519 -0.05489679 -0.00000000       0.004
   0.00000000  0.02744840  0.10979359       0.004
  -0.01372420  0.04117260  0.12351779       0.008
  -0.02744840  0.05489679  0.13724199       0.008
  -0.04117260  0.06862099  0.15096618       0.008
  -0.05489679  0.08234519  0.16469038       0.008
   0.17841458 -0.15096618 -0.06862099       0.008
   0.16469038 -0.13724199 -0.05489679       0.008
   0.15096618 -0.12351779 -0.04117260       0.008
   0.13724199 -0.10979359 -0.02744840       0.008
   0.12351779 -0.09606939 -0.01372420       0.008
   0.10979359 -0.08234519  0.00000000       0.004
   0.00000000  0.02744840  0.13724199       0.004
  -0.01372420  0.04117260  0.15096618       0.008
  -0.02744840  0.05489679  0.16469038       0.008
  -0.04117260  0.06862099  0.17841458       0.008
   0.19213878 -0.16469038 -0.05489679       0.008
   0.17841458 -0.15096618 -0.04117260       0.008
   0.16469038 -0.13724199 -0.02744840       0.008
   0.15096618 -0.12351779 -0.01372420       0.008
   0.13724199 -0.10979359  0.00000000       0.004
   0.00000000  0.02744840  0.16469038       0.004
  -0.01372420  0.04117260  0.17841458       0.008
  -0.02744840  0.05489679  0.19213878       0.008
   0.20586298 -0.17841458 -0.04117260       0.008
   0.19213878 -0.16469038 -0.02744840       0.008
   0.17841458 -0.15096618 -0.01372420       0.008
   0.16469038 -0.13724199  0.00000000       0.004
   0.00000000  0.02744840  0.19213878       0.004
  -0.01372420  0.04117260  0.20586298       0.008
   0.21958718 -0.19213878 -0.02744840       0.008
   0.20586298 -0.17841458 -0.01372420       0.008
   0.19213878 -0.16469038 -0.00000000       0.004
   0.00000000  0.02744840  0.21958718       0.004
   0.23331137 -0.20586298 -0.01372420       0.008
   0.21958718 -0.19213878  0.00000000       0.004
   0.24703557 -0.21958718  0.00000000       0.002
   0.00000000  0.05489679  0.10979359       0.004
  -0.01372420  0.06862099  0.12351779       0.008
  -0.02744840  0.08234519  0.13724199       0.008
  -0.04117260  0.09606939  0.15096618       0.008
   0.19213878 -0.13724199 -0.08234519       0.008
   0.17841458 -0.12351779 -0.06862099       0.004
   0.00000000  0.05489679  0.13724199       0.004
  -0.01372420  0.06862099  0.15096618       0.008
  -0.02744840  0.08234519  0.16469038       0.008
   0.20586298 -0.15096618 -0.06862099       0.008
   0.19213878 -0.13724199 -0.05489679       0.008
   0.17841458 -0.12351779 -0.04117260       0.008
   0.16469038 -0.10979359 -0.02744840       0.008
   0.15096618 -0.09606939 -0.01372420       0.008
   0.13724199 -0.08234519  0.00000000       0.004
   0.00000000  0.05489679  0.16469038       0.004
  -0.01372420  0.06862099  0.17841458       0.008
   0.21958718 -0.16469038 -0.05489679       0.008
   0.20586298 -0.15096618 -0.04117260       0.008
   0.19213878 -0.13724199 -0.02744840       0.008
   0.17841458 -0.12351779 -0.01372420       0.008
   0.16469038 -0.10979359  0.00000000       0.004
   0.00000000  0.05489679  0.19213878       0.004
   0.23331137 -0.17841458 -0.04117260       0.008
   0.21958718 -0.16469038 -0.02744840       0.008
   0.20586298 -0.15096618 -0.01372420       0.008
   0.19213878 -0.13724199 -0.00000000       0.004
   0.24703557 -0.19213878 -0.02744840       0.004
   0.23331137 -0.17841458 -0.01372420       0.008
   0.21958718 -0.16469038 -0.00000000       0.004
   0.24703557 -0.19213878  0.00000000       0.002
   0.00000000  0.08234519  0.16469038       0.004
   0.23331137 -0.15096618 -0.06862099       0.008
   0.21958718 -0.13724199 -0.05489679       0.008
   0.20586298 -0.12351779 -0.04117260       0.004
   0.24703557 -0.16469038 -0.05489679       0.004
   0.23331137 -0.15096618 -0.04117260       0.008
   0.21958718 -0.13724199 -0.02744840       0.008
   0.20586298 -0.12351779 -0.01372420       0.008
   0.19213878 -0.10979359  0.00000000       0.004
   0.24703557 -0.16469038 -0.02744840       0.004
   0.23331137 -0.15096618 -0.01372420       0.008
   0.21958718 -0.13724199  0.00000000       0.004
   0.24703557 -0.16469038  0.00000000       0.002
   0.24703557 -0.13724199 -0.02744840       0.004
   0.23331137 -0.12351779 -0.01372420       0.004
   0.24703557 -0.13724199  0.00000000       0.002

 k-points in reciprocal lattice and weights: # Generated by Masgent for k-point conve
   0.00000000  0.00000000  0.00000000       0.000
   0.05555556  0.00000000  0.00000000       0.001
   0.11111111  0.00000000  0.00000000       0.001
   0.16666667  0.00000000  0.00000000       0.001
   0.22222222  0.00000000  0.00000000       0.001
   0.27777778  0.00000000  0.00000000       0.001
   0.33333333  0.00000000  0.00000000       0.001
   0.38888889  0.00000000  0.00000000       0.001
   0.44444444  0.00000000  0.00000000       0.001
   0.50000000  0.00000000  0.00000000       0.001
   0.05555556  0.05555556  0.00000000       0.001
   0.11111111  0.05555556  0.00000000       0.004
   0.16666667  0.05555556  0.00000000       0.004
   0.22222222  0.05555556  0.00000000       0.004
   0.27777778  0.05555556  0.00000000       0.004
   0.33333333  0.05555556  0.00000000       0.004
   0.38888889  0.05555556  0.00000000       0.004
   0.44444444  0.05555556  0.00000000       0.004
   0.50000000  0.05555556  0.00000000       0.004
  -0.44444444  0.05555556  0.00000000       0.004
  -0.38888889  0.05555556  0.00000000       0.004
  -0.33333333  0.05555556  0.00000000       0.004
  -0.27777778  0.05555556  0.00000000       0.004
  -0.22222222  0.05555556  0.00000000       0.004
  -0.16666667  0.05555556  0.00000000       0.004
  -0.11111111  0.05555556  0.00000000       0.004
  -0.05555556  0.05555556  0.00000000       0.002
   0.11111111  0.11111111  0.00000000       0.001
   0.16666667  0.11111111  0.00000000       0.004
   0.22222222  0.11111111  0.00000000       0.004
   0.27777778  0.11111111  0.00000000       0.004
   0.33333333  0.11111111  0.00000000       0.004
   0.38888889  0.11111111  0.00000000       0.004
   0.44444444  0.11111111  0.00000000       0.004
   0.50000000  0.11111111  0.00000000       0.004
  -0.44444444  0.11111111  0.00000000       0.004
  -0.38888889  0.11111111  0.00000000       0.004
  -0.33333333  0.11111111  0.00000000       0.004
  -0.27777778  0.11111111  0.00000000       0.004
  -0.22222222  0.11111111  0.00000000       0.004
  -0.16666667  0.11111111  0.00000000       0.004
  -0.11111111  0.11111111  0.00000000       0.002
   0.16666667  0.16666667  0.00000000       0.001
   0.22222222  0.16666667  0.00000000       0.004
   0.27777778  0.16666667  0.00000000       0.004
   0.33333333  0.16666667  0.00000000       0.004
   0.38888889  0.16666667  0.00000000       0.004
   0.44444444  0.16666667  0.00000000       0.004
   0.50000000  0.16666667  0.00000000       0.004
  -0.44444444  0.16666667  0.00000000       0.004
  -0.38888889  0.16666667  0.00000000       0.004
  -0.33333333  0.16666667  0.00000000       0.004
  -0.27777778  0.16666667  0.00000000       0.004
  -0.22222222  0.16666667  0.00000000       0.004
  -0.16666667  0.16666667  0.00000000       0.002
   0.22222222  0.22222222  0.00000000       0.001
   0.27777778  0.22222222  0.00000000       0.004
   0.33333333  0.22222222  0.00000000       0.004
   0.38888889  0.22222222  0.00000000       0.004
   0.44444444  0.22222222  0.00000000       0.004
   0.50000000  0.22222222  0.00000000       0.004
  -0.44444444  0.22222222  0.00000000       0.004
  -0.38888889  0.22222222  0.00000000       0.004
  -0.33333333  0.22222222  0.00000000       0.004
  -0.27777778  0.22222222  0.00000000       0.004
  -0.22222222  0.22222222  0.00000000       0.002
   0.27777778  0.27777778  0.00000000       0.001
   0.33333333  0.27777778  0.00000000       0.004
   0.38888889  0.27777778  0.00000000       0.004
   0.44444444  0.27777778  0.00000000       0.004
   0.50000000  0.27777778  0.00000000       0.004
  -0.44444444  0.27777778  0.00000000       0.004
  -0.38888889  0.27777778  0.00000000       0.004
  -0.33333333  0.27777778  0.00000000       0.004
  -0.27777778  0.27777778  0.00000000       0.002
   0.33333333  0.33333333  0.00000000       0.001
   0.38888889  0.33333333  0.00000000       0.004
   0.44444444  0.33333333  0.00000000       0.004
   0.50000000  0.33333333  0.00000000       0.004
  -0.44444444  0.33333333  0.00000000       0.004
  -0.38888889  0.33333333  0.00000000       0.004
  -0.33333333  0.33333333  0.00000000       0.002
   0.38888889  0.38888889  0.00000000       0.001
   0.44444444  0.38888889  0.00000000       0.004
   0.50000000  0.38888889  0.00000000       0.004
  -0.44444444  0.38888889  0.00000000       0.004
  -0.38888889  0.38888889  0.00000000       0.002
   0.44444444  0.44444444  0.00000000       0.001
   0.50000000  0.44444444  0.00000000       0.004
  -0.44444444  0.44444444  0.00000000       0.002
   0.50000000  0.50000000  0.00000000       0.001
   0.16666667  0.11111111  0.05555556       0.004
   0.22222222  0.11111111  0.05555556       0.008
   0.27777778  0.11111111  0.05555556       0.008
   0.33333333  0.11111111  0.05555556       0.008
   0.38888889  0.11111111  0.05555556       0.008
   0.44444444  0.11111111  0.05555556       0.008
   0.50000000  0.11111111  0.05555556       0.008
  -0.44444444  0.11111111  0.05555556       0.004
   0.22222222  0.16666667  0.05555556       0.004
   0.27777778  0.16666667  0.05555556       0.008
   0.33333333  0.16666667  0.05555556       0.008
   0.38888889  0.16666667  0.05555556       0.008
   0.44444444  0.16666667  0.05555556       0.008
   0.50000000  0.16666667  0.05555556       0.008
  -0.44444444  0.16666667  0.05555556       0.008
  -0.38888889  0.16666667  0.05555556       0.008
  -0.33333333  0.16666667  0.05555556       0.008
  -0.27777778  0.16666667  0.05555556       0.008
  -0.22222222  0.16666667  0.05555556       0.008
  -0.16666667  0.16666667  0.05555556       0.008
  -0.11111111  0.16666667  0.05555556       0.004
   0.27777778  0.22222222  0.05555556       0.004
   0.33333333  0.22222222  0.05555556       0.008
   0.38888889  0.22222222  0.05555556       0.008
   0.44444444  0.22222222  0.05555556       0.008
   0.50000000  0.22222222  0.05555556       0.008
  -0.44444444  0.22222222  0.05555556       0.008
  -0.38888889  0.22222222  0.05555556       0.008
  -0.33333333  0.22222222  0.05555556       0.008
  -0.27777778  0.22222222  0.05555556       0.008
  -0.22222222  0.22222222  0.05555556       0.008
  -0.16666667  0.22222222  0.05555556       0.004
   0.33333333  0.27777778  0.05555556       0.004
   0.38888889  0.27777778  0.05555556       0.008
   0.44444444  0.27777778  0.05555556       0.008
   0.50000000  0.27777778  0.05555556       0.008
  -0.44444444  0.27777778  0.05555556       0.008
  -0.38888889  0.27777778  0.05555556       0.008
  -0.33333333  0.27777778  0.05555556       0.008
  -0.27777778  0.27777778  0.05555556       0.008
  -0.22222222  0.27777778  0.05555556       0.004
   0.38888889  0.33333333  0.05555556       0.004
   0.44444444  0.33333333  0.05555556       0.008
   0.50000000  0.33333333  0.05555556       0.008
  -0.44444444  0.33333333  0.05555556       0.008
  -0.38888889  0.33333333  0.05555556       0.008
  -0.33333333  0.33333333  0.05555556       0.008
  -0.27777778  0.33333333  0.05555556       0.004
   0.44444444  0.38888889  0.05555556       0.004
   0.50000000  0.38888889  0.05555556       0.008
  -0.44444444  0.38888889  0.05555556       0.008
  -0.38888889  0.38888889  0.05555556       0.008
  -0.33333333  0.38888889  0.05555556       0.004
   0.50000000  0.44444444  0.05555556       0.004
  -0.44444444  0.44444444  0.05555556       0.008
  -0.38888889  0.44444444  0.05555556       0.004
  -0.44444444  0.50000000  0.05555556       0.002
   0.33333333  0.22222222  0.11111111       0.004
   0.38888889  0.22222222  0.11111111       0.008
   0.44444444  0.22222222  0.11111111       0.008
   0.50000000  0.22222222  0.11111111       0.008
  -0.44444444  0.22222222  0.11111111       0.008
  -0.38888889  0.22222222  0.11111111       0.004
   0.38888889  0.27777778  0.11111111       0.004
   0.44444444  0.27777778  0.11111111       0.008
   0.50000000  0.27777778  0.11111111       0.008
  -0.44444444  0.27777778  0.11111111       0.008
  -0.38888889  0.27777778  0.11111111       0.008
  -0.33333333  0.27777778  0.11111111       0.008
  -0.27777778  0.27777778  0.11111111       0.008
  -0.22222222  0.27777778  0.11111111       0.008
  -0.16666667  0.27777778  0.11111111       0.004
   0.44444444  0.33333333  0.11111111       0.004
   0.50000000  0.33333333  0.11111111       0.008
  -0.44444444  0.33333333  0.11111111       0.008
  -0.38888889  0.33333333  0.11111111       0.008
  -0.33333333  0.33333333  0.11111111       0.008
  -0.27777778  0.33333333  0.11111111       0.008
  -0.22222222  0.33333333  0.11111111       0.004
   0.50000000  0.38888889  0.11111111       0.004
  -0.44444444  0.38888889  0.11111111       0.008
  -0.38888889  0.38888889  0.11111111       0.008
  -0.33333333  0.38888889  0.11111111       0.008
  -0.27777778  0.38888889  0.11111111       0.004
  -0.44444444  0.44444444  0.11111111       0.004
  -0.38888889  0.44444444  0.11111111       0.008
  -0.33333333  0.44444444  0.11111111       0.004
  -0.38888889  0.50000000  0.11111111       0.002
   0.50000000  0.33333333  0.16666667       0.004
  -0.44444444  0.33333333  0.16666667       0.008
  -0.38888889  0.33333333  0.16666667       0.008
  -0.33333333  0.33333333  0.16666667       0.004
  -0.44444444  0.38888889  0.16666667       0.004
  -0.38888889  0.38888889  0.16666667       0.008
  -0.33333333  0.38888889  0.16666667       0.008
  -0.27777778  0.38888889  0.16666667       0.008
  -0.22222222  0.38888889  0.16666667       0.004
  -0.38888889  0.44444444  0.16666667       0.004
  -0.33333333  0.44444444  0.16666667       0.008
  -0.27777778  0.44444444  0.16666667       0.004
  -0.33333333  0.50000000  0.16666667       0.002
  -0.33333333  0.44444444  0.22222222       0.004
  -0.27777778  0.44444444  0.22222222       0.004
  -0.27777778  0.50000000  0.22222222       0.002

 position of ions in fractional coordinates (direct lattice) 
   0.00000000  0.00000000  0.00000000

 position of ions in cartesian coordinates  (Angst):
   0.00000000  0.00000000  0.00000000



--------------------------------------------------------------------------------------------------------


 k-point   1 :   0.0000 0.0000 0.0000  plane waves:     459
 k-point   2 :   0.0556 0.0000 0.0000  plane waves:     447
 k-point   3 :   0.1111 0.0000 0.0000  plane waves:     450
 k-point   4 :   0.1667 0.0000 0.0000  plane waves:     456
 k-point   5 :   0.2222 0.0000 0.0000  plane waves:     459
 k-point   6 :   0.2778 0.0000 0.0000  plane waves:     456
 k-point   7 :   0.3333 0.0000 0.0000  plane waves:     450
 k-point   8 :   0.3889 0.0000 0.0000  plane waves:     443
 k-point   9 :   0.4444 0.0000 0.0000  plane waves:     449
 k-point  10 :   0.5000 0.0000 0.0000  plane waves:     434
 k-point  11 :   0.0556 0.0556 0.0000  plane waves:     443
 k-point  12 :   0.1111 0.0556 0.0000  plane waves:     447
 k-point  13 :   0.1667 0.0556 0.0000  plane waves:     456
 k-point  14 :   0.2222 0.0556 0.0000  plane waves:     458
 k-point  15 :   0.2778 0.0556 0.0000  plane waves:     447
 k-point  16 :   0.3333 0.0556 0.0000  plane waves:     447
 k-point  17 :   0.3889 0.0556 0.0000  plane waves:     443
 k-point  18 :   0.4444 0.0556 0.0000  plane waves:     445
 k-point  19 :   0.5000 0.0556 0.0000  plane waves:     449
 k-point  20 :  -0.4444 0.0556 0.0000  plane waves:     447
 k-point  21 :  -0.3889 0.0556 0.0000  plane waves:     447
 k-point  22 :  -0.3333 0.0556 0.0000  plane waves:     443
 k-point  23 :  -0.2778 0.0556 0.0000  plane waves:     449
 k-point  24 :  -0.2222 0.0556 0.0000  plane waves:     456
 k-point  25 :  -0.1667 0.0556 0.0000  plane waves:     455
 k-point  26 :  -0.1111 0.0556 0.0000  plane waves:     449
 k-point  27 :  -0.0556 0.0556 0.0000  plane waves:     443
 k-point  28 :   0.1111 0.1111 0.0000  plane waves:     443
 k-point  29 :   0.1667 0.1111 0.0000  plane waves:     454
 k-point  30 :   0.2222 0.1111 0.0000  plane waves:     454
 k-point  31 :   0.2778 0.1111 0.0000  plane waves:     447
 k-point  32 :   0.3333 0.1111 0.0000  plane waves:     451
 k-point  33 :   0.3889 0.1111 0.0000  plane waves:     445
 k-point  34 :   0.4444 0.1111 0.0000  plane waves:     447
 k-point  35 :   0.5000 0.1111 0.0000  plane waves:     445
 k-point  36 :  -0.4444 0.1111 0.0000  plane waves:     447
 k-point  37 :  -0.3889 0.1111 0.0000  plane waves:     447
 k-point  38 :  -0.3333 0.1111 0.0000  plane waves:     444
 k-point  39 :  -0.2778 0.1111 0.0000  plane waves:     449
 k-point  40 :  -0.2222 0.1111 0.0000  plane waves:     453
 k-point  41 :  -0.1667 0.1111 0.0000  plane waves:     454
 k-point  42 :  -0.1111 0.1111 0.0000  plane waves:     453
 k-point  43 :   0.1667 0.1667 0.0000  plane waves:     451
 k-point  44 :   0.2222 0.1667 0.0000  plane waves:     455
 k-point  45 :   0.2778 0.1667 0.0000  plane waves:     448
 k-point  46 :   0.3333 0.1667 0.0000  plane waves:     445
 k-point  47 :   0.3889 0.1667 0.0000  plane waves:     446
 k-point  48 :   0.4444 0.1667 0.0000  plane waves:     444
 k-point  49 :   0.5000 0.1667 0.0000  plane waves:     440
 k-point  50 :  -0.4444 0.1667 0.0000  plane waves:     449
 k-point  51 :  -0.3889 0.1667 0.0000  plane waves:     445
 k-point  52 :  -0.3333 0.1667 0.0000  plane waves:     446
 k-point  53 :  -0.2778 0.1667 0.0000  plane waves:     445
 k-point  54 :  -0.2222 0.1667 0.0000  plane waves:     449
 k-point  55 :  -0.1667 0.1667 0.0000  plane waves:     457
 k-point  56 :   0.2222 0.2222 0.0000  plane waves:     455
 k-point  57 :   0.2778 0.2222 0.0000  plane waves:     445
 k-point  58 :   0.3333 0.2222 0.0000  plane waves:     449
 k-point  59 :   0.3889 0.2222 0.0000  plane waves:     447
 k-point  60 :   0.4444 0.2222 0.0000  plane waves:     448
 k-point  61 :   0.5000 0.2222 0.0000  plane waves:     445
 k-point  62 :  -0.4444 0.2222 0.0000  plane waves:     445
 k-point  63 :  -0.3889 0.2222 0.0000  plane waves:     447
 k-point  64 :  -0.3333 0.2222 0.0000  plane waves:     444
 k-point  65 :  -0.2778 0.2222 0.0000  plane waves:     440
 k-point  66 :  -0.2222 0.2222 0.0000  plane waves:     441
 k-point  67 :   0.2778 0.2778 0.0000  plane waves:     444
 k-point  68 :   0.3333 0.2778 0.0000  plane waves:     445
 k-point  69 :   0.3889 0.2778 0.0000  plane waves:     443
 k-point  70 :   0.4444 0.2778 0.0000  plane waves:     445
 k-point  71 :   0.5000 0.2778 0.0000  plane waves:     443
 k-point  72 :  -0.4444 0.2778 0.0000  plane waves:     448
 k-point  73 :  -0.3889 0.2778 0.0000  plane waves:     449
 k-point  74 :  -0.3333 0.2778 0.0000  plane waves:     445
 k-point  75 :  -0.2778 0.2778 0.0000  plane waves:     441
 k-point  76 :   0.3333 0.3333 0.0000  plane waves:     444
 k-point  77 :   0.3889 0.3333 0.0000  plane waves:     444
 k-point  78 :   0.4444 0.3333 0.0000  plane waves:     448
 k-point  79 :   0.5000 0.3333 0.0000  plane waves:     445
 k-point  80 :  -0.4444 0.3333 0.0000  plane waves:     444
 k-point  81 :  -0.3889 0.3333 0.0000  plane waves:     446
 k-point  82 :  -0.3333 0.3333 0.0000  plane waves:     443
 k-point  83 :   0.3889 0.3889 0.0000  plane waves:     448
 k-point  84 :   0.4444 0.3889 0.0000  plane waves:     451
 k-point  85 :   0.5000 0.3889 0.0000  plane waves:     452
 k-point  86 :  -0.4444 0.3889 0.0000  plane waves:     449
 k-point  87 :  -0.3889 0.3889 0.0000  plane waves:     436
 k-point  88 :   0.4444 0.4444 0.0000  plane waves:     452
 k-point  89 :   0.5000 0.4444 0.0000  plane waves:     450
 k-point  90 :  -0.4444 0.4444 0.0000  plane waves:     450
 k-point  91 :   0.5000 0.5000 0.0000  plane waves:     444
 k-point  92 :   0.1667 0.1111 0.0556  plane waves:     457
 k-point  93 :   0.2222 0.1111 0.0556  plane waves:     457
 k-point  94 :   0.2778 0.1111 0.0556  plane waves:     458
 k-point  95 :   0.3333 0.1111 0.0556  plane waves:     450
 k-point  96 :   0.3889 0.1111 0.0556  plane waves:     445
 k-point  97 :   0.4444 0.1111 0.0556  plane waves:     443
 k-point  98 :   0.5000 0.1111 0.0556  plane waves:     449
 k-point  99 :  -0.4444 0.1111 0.0556  plane waves:     446
 k-point 100 :   0.2222 0.1667 0.0556  plane waves:     456
 k-point 101 :   0.2778 0.1667 0.0556  plane waves:     454
 k-point 102 :   0.3333 0.1667 0.0556  plane waves:     448
 k-point 103 :   0.3889 0.1667 0.0556  plane waves:     448
 k-point 104 :   0.4444 0.1667 0.0556  plane waves:     444
 k-point 105 :   0.5000 0.1667 0.0556  plane waves:     444
 k-point 106 :  -0.4444 0.1667 0.0556  plane waves:     445
 k-point 107 :  -0.3889 0.1667 0.0556  plane waves:     444
 k-point 108 :  -0.3333 0.1667 0.0556  plane waves:     445
 k-point 109 :  -0.2778 0.1667 0.0556  plane waves:     443
 k-point 110 :  -0.2222 0.1667 0.0556  plane waves:     444
 k-point 111 :  -0.1667 0.1667 0.0556  plane waves:     453
 k-point 112 :  -0.1111 0.1667 0.0556  plane waves:     453
 k-point 113 :   0.2778 0.2222 0.0556  plane waves:     446
 k-point 114 :   0.3333 0.2222 0.0556  plane waves:     449
 k-point 115 :   0.3889 0.2222 0.0556  plane waves:     446
 k-point 116 :   0.4444 0.2222 0.0556  plane waves:     442
 k-point 117 :   0.5000 0.2222 0.0556  plane waves:     442
 k-point 118 :  -0.4444 0.2222 0.0556  plane waves:     445
 k-point 119 :  -0.3889 0.2222 0.0556  plane waves:     446
 k-point 120 :  -0.3333 0.2222 0.0556  plane waves:     442
 k-point 121 :  -0.2778 0.2222 0.0556  plane waves:     442
 k-point 122 :  -0.2222 0.2222 0.0556  plane waves:     445
 k-point 123 :  -0.1667 0.2222 0.0556  plane waves:     447
 k-point 124 :   0.3333 0.2778 0.0556  plane waves:     443
 k-point 125 :   0.3889 0.2778 0.0556  plane waves:     448
 k-point 126 :   0.4444 0.2778 0.0556  plane waves:     449
 k-point 127 :   0.5000 0.2778 0.0556  plane waves:     447
 k-point 128 :  -0.4444 0.2778 0.0556  plane waves:     444
 k-point 129 :  -0.3889 0.2778 0.0556  plane waves:     443
 k-point 130 :  -0.3333 0.2778 0.0556  plane waves:     444
 k-point 131 :  -0.2778 0.2778 0.0556  plane waves:     442
 k-point 132 :  -0.2222 0.2778 0.0556  plane waves:     444
 k-point 133 :   0.3889 0.3333 0.0556  plane waves:     445
 k-point 134 :   0.4444 0.3333 0.0556  plane waves:     447
 k-point 135 :   0.5000 0.3333 0.0556  plane waves:     446
 k-point 136 :  -0.4444 0.3333 0.0556  plane waves:     446
 k-point 137 :  -0.3889 0.3333 0.0556  plane waves:     448
 k-point 138 :  -0.3333 0.3333 0.0556  plane waves:     445
 k-point 139 :  -0.2778 0.3333 0.0556  plane waves:     444
 k-point 140 :   0.4444 0.3889 0.0556  plane waves:     452
 k-point 141 :   0.5000 0.3889 0.0556  plane waves:     449
 k-point 142 :  -0.4444 0.3889 0.0556  plane waves:     446
 k-point 143 :  -0.3889 0.3889 0.0556  plane waves:     442
 k-point 144 :  -0.3333 0.3889 0.0556  plane waves:     445
 k-point 145 :   0.5000 0.4444 0.0556  plane waves:     452
 k-point 146 :  -0.4444 0.4444 0.0556  plane waves:     451
 k-point 147 :  -0.3889 0.4444 0.0556  plane waves:     449
 k-point 148 :  -0.4444 0.5000 0.0556  plane waves:     454
 k-point 149 :   0.3333 0.2222 0.1111  plane waves:     449
 k-point 150 :   0.3889 0.2222 0.1111  plane waves:     449
 k-point 151 :   0.4444 0.2222 0.1111  plane waves:     445
 k-point 152 :   0.5000 0.2222 0.1111  plane waves:     442
 k-point 153 :  -0.4444 0.2222 0.1111  plane waves:     443
 k-point 154 :  -0.3889 0.2222 0.1111  plane waves:     448
 k-point 155 :   0.3889 0.2778 0.1111  plane waves:     447
 k-point 156 :   0.4444 0.2778 0.1111  plane waves:     446
 k-point 157 :   0.5000 0.2778 0.1111  plane waves:     444
 k-point 158 :  -0.4444 0.2778 0.1111  plane waves:     446
 k-point 159 :  -0.3889 0.2778 0.1111  plane waves:     443
 k-point 160 :  -0.3333 0.2778 0.1111  plane waves:     443
 k-point 161 :  -0.2778 0.2778 0.1111  plane waves:     440
 k-point 162 :  -0.2222 0.2778 0.1111  plane waves:     443
 k-point 163 :  -0.1667 0.2778 0.1111  plane waves:     446
 k-point 164 :   0.4444 0.3333 0.1111  plane waves:     447
 k-point 165 :   0.5000 0.3333 0.1111  plane waves:     448
 k-point 166 :  -0.4444 0.3333 0.1111  plane waves:     443
 k-point 167 :  -0.3889 0.3333 0.1111  plane waves:     443
 k-point 168 :  -0.3333 0.3333 0.1111  plane waves:     443
 k-point 169 :  -0.2778 0.3333 0.1111  plane waves:     441
 k-point 170 :  -0.2222 0.3333 0.1111  plane waves:     444
 k-point 171 :   0.5000 0.3889 0.1111  plane waves:     446
 k-point 172 :  -0.4444 0.3889 0.1111  plane waves:     446
 k-point 173 :  -0.3889 0.3889 0.1111  plane waves:     444
 k-point 174 :  -0.3333 0.3889 0.1111  plane waves:     447
 k-point 175 :  -0.2778 0.3889 0.1111  plane waves:     447
 k-point 176 :  -0.4444 0.4444 0.1111  plane waves:     446
 k-point 177 :  -0.3889 0.4444 0.1111  plane waves:     445
 k-point 178 :  -0.3333 0.4444 0.1111  plane waves:     445
 k-point 179 :  -0.3889 0.5000 0.1111  plane waves:     450
 k-point 180 :   0.5000 0.3333 0.1667  plane waves:     452
 k-point 181 :  -0.4444 0.3333 0.1667  plane waves:     443
 k-point 182 :  -0.3889 0.3333 0.1667  plane waves:     443
 k-point 183 :  -0.3333 0.3333 0.1667  plane waves:     442
 k-point 184 :  -0.4444 0.3889 0.1667  plane waves:     448
 k-point 185 :  -0.3889 0.3889 0.1667  plane waves:     448
 k-point 186 :  -0.3333 0.3889 0.1667  plane waves:     445
 k-point 187 :  -0.2778 0.3889 0.1667  plane waves:     443
 k-point 188 :  -0.2222 0.3889 0.1667  plane waves:     448
 k-point 189 :  -0.3889 0.4444 0.1667  plane waves:     443
 k-point 190 :  -0.3333 0.4444 0.1667  plane waves:     446
 k-point 191 :  -0.2778 0.4444 0.1667  plane waves:     444
 k-point 192 :  -0.3333 0.5000 0.1667  plane waves:     444
 k-point 193 :  -0.3333 0.4444 0.2222  plane waves:     449
 k-point 194 :  -0.2778 0.4444 0.2222  plane waves:     448
 k-point 195 :  -0.2778 0.5000 0.2222  plane waves:     446

 maximum and minimum number of plane-waves per node :       459      434

 maximum number of plane-waves:       459
 maximum index in each direction: 
   IXMAX=    5   IYMAX=    5   IZMAX=    5
   IXMIN=   -5   IYMIN=   -5   IZMIN=   -5


 serial   3D FFT for wavefunctions
 parallel 3D FFT for charge:
    minimum data exchange during FFTs selected (reduces bandwidth)


 total amount of memory used by VASP MPI-rank0    40743. kBytes
=======================================================================

   base      :      30000. kBytes
   nonl-proj :       5998. kBytes
   fftplans  :        150. kBytes
   grid      :       1295. kBytes
   one-center:          6. kBytes
   wavefun   :       3294. kBytes

     INWAV:  cpu time    0.0000: real time    0.0001
 Broyden mixing: mesh for mixing (old mesh)
   NGX = 11   NGY = 11   NGZ = 11
  (NGX  = 48   NGY  = 48   NGZ  = 48)
  gives a total of   1331 points

 initial charge density was supplied:
 charge density of overlapping atoms calculated
 number of electron       3.0000000 magnetization       0.6000000
 keeping initial charge density in first step


--------------------------------------------------------------------------------------------------------


 Maximum index for augmentation-charges         1111 (set IRDMAX)


--------------------------------------------------------------------------------------------------------


 First call to EWALD:  gamma=   0.695
 Maximum number of real-space cells 3x 3x 3
 Maximum number of reciprocal cells 3x 3x 3

    FEWALD:  cpu time    0.0005: real time    0.0007


--------------------------------------- Iteration      1(   1)  ---------------------------------------


    POTLOK:  cpu time    0.1261: real time    0.1263
    SETDIJ:  cpu time    0.1628: real time    0.1628
     EDDAV:  cpu time   29.6904: real time   29.6911
 BZINTS: Fermi energy:    8.027000;    3.000000 electrons
         Band energy: 0.107684E+02;  BLOECHL correction:   -0.049901
       DOS:  cpu time    0.1786: real time    0.1788
    --------------------------------------------
      LOOP:  cpu time   30.1579: real time   30.1590

 eigenvalue-minimisations  : 53232
 total energy-change (2. order) :-0.3633639E+01  (-0.8868303E+02)
 number of electron       3.0000000 magnetization       0.6000000
 augmentation part        3.0000000 magnetization       0.6000000

 Free energy of the ion-electron system (eV)
  ---------------------------------------------------
  alpha Z        PSCENC =        -0.20254611
  Ewald energy   TEWEN  =       -73.39295237
  -Hartree energ DENC   =        -0.10329695
  -exchange      EXHF   =         0.00000000
  -V(xc)+E(xc)   XCENC  =       -26.19545267
  PAW double counting   =        66.16230985      -34.20858819
  entropy T*S    EENTRO =         0.00000000
  eigenvalues    EBANDS =        10.76843007
  atomic energy  EATOM  =        53.53845706
  Solvation  Ediel_sol  =         0.00000000
  ---------------------------------------------------
  free energy    TOTEN  =        -3.63363931 eV

  energy without entropy =       -3.63363931  energy(sigma->0) =       -3.63363931


--------------------------------------------------------------------------------------------------------




--------------------------------------- Iteration      1(   2)  ---------------------------------------


     EDDAV:  cpu time   25.2466: real time   25.2468
 BZINTS: Fermi energy:    8.004878;    3.000000 electrons
         Band energy: 0.107195E+02;  BLOECHL correction:   -0.049686
       DOS:  cpu time    0.1908: real time    0.1910
    --------------------------------------------
      LOOP:  cpu time   25.4374: real time   25.4377

 eigenvalue-minimisations  : 47712
 total energy-change (2. order) :-0.4895572E-01  (-0.4892410E-01)
 number of electron       3.0000000 magnetization       0.6000000
 augmentation part        3.0000000 magnetization       0.6000000

 Free energy of the ion-electron system (eV)
  ---------------------------------------------------
  alpha Z        PSCENC =        -0.20254611
  Ewald energy   TEWEN  =       -73.39295237
  -Hartree energ DENC   =        -0.10329695
  -exchange      EXHF   =         0.00000000
  -V(xc)+E(xc)   XCENC  =       -26.19545267
  PAW double counting   =        66.16230985      -34.20858819
  entropy T*S    EENTRO =         0.00000000
  eigenvalues    EBANDS =        10.71947435
  atomic energy  EATOM  =        53.53845706
  Solvation  Ediel_sol  =         0.00000000
  ---------------------------------------------------
  free energy    TOTEN  =        -3.68259503 eV

  energy without entropy =       -3.68259503  energy(sigma->0) =       -3.68259503


--------------------------------------------------------------------------------------------------------




--------------------------------------- Iteration      1(   3)  ---------------------------------------


     EDDAV:  cpu time   40.9322: real time   40.9323
 BZINTS: Fermi energy:    8.004876;    3.000000 electrons
         Band energy: 0.107195E+02;  BLOECHL correction:   -0.049686
       DOS:  cpu time    0.1889: real time    0.1890
    --------------------------------------------
      LOOP:  cpu time   41.1210: real time   41.1213

 eigenvalue-minimisations  : 56592
 total energy-change (2. order) :-0.2183533E-05  (-0.2185877E-05)
 number of electron       3.0000000 magnetization       0.6000000
 augmentation part        3.0000000 magnetization       0.6000000

 Free energy of the ion-electron system (eV)
  ---------------------------------------------------
  alpha Z        PSCENC =        -0.20254611
  Ewald energy   TEWEN  =       -73.39295237
  -Hartree energ DENC   =        -0.10329695
  -exchange      EXHF   =         0.00000000
  -V(xc)+E(xc)   XCENC  =       -26.19545267
  PAW double counting   =        66.16230985      -34.20858819
  entropy T*S    EENTRO =         0.00000000
  eigenvalues    EBANDS =        10.71947217
  atomic energy  EATOM  =        53.53845706
  Solvation  Ediel_sol  =         0.00000000
  ---------------------------------------------------
  free energy    TOTEN  =        -3.68259721 eV

  energy without entropy =       -3.68259721  energy(sigma->0) =       -3.68259721


--------------------------------------------------------------------------------------------------------




--------------------------------------- Iteration      1(   4)  ---------------------------------------


     EDDAV:  cpu time   36.0581: real time   36.0583
 BZINTS: Fermi energy:    8.004876;    3.000000 electrons
         Band energy: 0.107195E+02;  BLOECHL correction:   -0.049686
       DOS:  cpu time    0.1893: real time    0.1894
    --------------------------------------------
      LOOP:  cpu time   36.2474: real time   36.2477

 eigenvalue-minimisations  : 53472
 total energy-change (2. order) : 0.7640040E-09  (-0.9658594E-11)
 number of electron       3.0000000 magnetization       0.6000000
 augmentation part        3.0000000 magnetization       0.6000000

 Free energy of the ion-electron system (eV)
  ---------------------------------------------------
  alpha Z        PSCENC =        -0.20254611
  Ewald energy   TEWEN  =       -73.39295237
  -Hartree energ DENC   =        -0.10329695
  -exchange      EXHF   =         0.00000000
  -V(xc)+E(xc)   XCENC  =       -26.19545267
  PAW double counting   =        66.16230985      -34.20858819
  entropy T*S    EENTRO =         0.00000000
  eigenvalues    EBANDS =        10.71947217
  atomic energy  EATOM  =        53.53845706
  Solvation  Ediel_sol  =         0.00000000
  ---------------------------------------------------
  free energy    TOTEN  =        -3.68259721 eV

  energy without entropy =       -3.68259721  energy(sigma->0) =       -3.68259721


--------------------------------------------------------------------------------------------------------




--------------------------------------- Iteration      1(   5)  ---------------------------------------


     EDDAV:  cpu time   37.9959: real time   37.9962
 BZINTS: Fermi energy:    8.004876;    3.000000 electrons
         Band energy: 0.107195E+02;  BLOECHL correction:   -0.049686
       DOS:  cpu time    0.1856: real time    0.1857
    CHARGE:  cpu time    0.1253: real time    0.1258
    MIXING:  cpu time    0.0007: real time    0.0008
    --------------------------------------------
      LOOP:  cpu time   38.3075: real time   38.3085

 eigenvalue-minimisations  : 54240
 total energy-change (2. order) :-0.1093241E-08  (-0.5551953E-13)
 number of electron       3.0000000 magnetization      -0.0451910
 augmentation part       -0.0371041 magnetization      -0.1862994

 Broyden mixing:
  rms(total) = 0.17378E+00    rms(broyden)= 0.17378E+00
  rms(prec ) = 0.38020E+00
  weight for this iteration     100.00

 Free energy of the ion-electron system (eV)
  ---------------------------------------------------
  alpha Z        PSCENC =        -0.20254611
  Ewald energy   TEWEN  =       -73.39295237
  -Hartree energ DENC   =        -0.10329695
  -exchange      EXHF   =         0.00000000
  -V(xc)+E(xc)   XCENC  =       -26.19545267
  PAW double counting   =        66.16230985      -34.20858819
  entropy T*S    EENTRO =         0.00000000
  eigenvalues    EBANDS =        10.71947217
  atomic energy  EATOM  =        53.53845706
  Solvation  Ediel_sol  =         0.00000000
  ---------------------------------------------------
  free energy    TOTEN  =        -3.68259721 eV

  energy without entropy =       -3.68259721  energy(sigma->0) =       -3.68259721


--------------------------------------------------------------------------------------------------------




--------------------------------------- Iteration      1(   6)  ---------------------------------------


    POTLOK:  cpu time    0.0068: real time    0.0070
    SETDIJ:  cpu time    0.1584: real time    0.1584
    EDDIAG:  cpu time    1.2162: real time    1.2180
  RMM-DIIS:  cpu time    0.7268: real time    0.7270
    ORTHCH:  cpu time    0.1577: real time    0.1577
 BZINTS: Fermi energy:    7.987928;    3.000000 electrons
         Band energy: 0.106497E+02;  BLOECHL correction:   -0.048194
       DOS:  cpu time    0.1848: real time    0.1850
    CHARGE:  cpu time    0.1200: real time    0.1200
    MIXING:  cpu time    0.0004: real time    0.0004
    --------------------------------------------
      LOOP:  cpu time    2.5711: real time    2.5735

 eigenvalue-minimisations  : 37451
 total energy-change (2. order) :-0.7246276E-01  (-0.2345838E-03)
 number of electron       3.0000000 magnetization       0.0497760
 augmentation part       -0.0373650 magnetization       0.0570884

 Broyden mixing:
  rms(total) = 0.82334E-01    rms(broyden)= 0.82334E-01
  rms(prec ) = 0.23060E+00
  weight for this iteration     100.00

 eigenvalues of (default mixing * dielectric matrix)
[...]
     15      44.9433      0.00000
     16      46.8473      0.00000
     17      50.7507      0.00000
     18      53.1981      0.00000
     19      53.9915      0.00000
     20      54.9123      0.00000
     21      55.3242      0.00000
     22      56.1019      0.00000
     23      57.8204      0.00000
     24      58.2597      0.00000
     25      59.7664      0.00000
     26      61.6303      0.00000
     27      62.4907      0.00000
     28      62.9858      0.00000
     29      65.2392      0.00000
     30      66.2093      0.00000
     31      68.5373      0.00000
     32      72.5928      0.00000
     33      74.5395      0.00000
     34      78.3797      0.00000
     35      80.2982      0.00000
     36      82.7969      0.00000
     37      87.7521      0.00000
     38      88.1288      0.00000
     39      90.9263      0.00000
     40      91.7066      0.00000
     41      95.4046      0.00000
     42      95.9468      0.00000
     43      97.3267      0.00000
     44      99.0025      0.00000
     45     100.2398      0.00000
     46     101.2515      0.00000
     47     102.3767      0.00000
     48     104.6356      0.00000

 k-point   191 :      -0.2778    0.4444    0.1667
  band No.  band energies     occupation 
      1       6.3712      1.00000
      2       6.7745      1.00000
      3       8.1967      0.00354
      4      10.5195      0.00000
      5      21.3541      0.00000
      6      24.7991      0.00000
      7      25.1944      0.00000
      8      26.9781      0.00000
      9      34.1217      0.00000
     10      38.0374      0.00000
     11      41.0924      0.00000
     12      41.5243      0.00000
     13      43.0776      0.00000
     14      44.6421      0.00000
     15      45.3745      0.00000
     16      47.2734      0.00000
     17      51.5274      0.00000
     18      52.5220      0.00000
     19      54.3272      0.00000
     20      55.2180      0.00000
     21      56.4369      0.00000
     22      56.9959      0.00000
     23      58.2568      0.00000
     24      58.5491      0.00000
     25      59.7287      0.00000
     26      60.0546      0.00000
     27      62.4739      0.00000
     28      62.5224      0.00000
     29      64.4448      0.00000
     30      66.7182      0.00000
     31      67.2634      0.00000
     32      72.5197      0.00000
     33      73.4801      0.00000
     34      78.9479      0.00000
     35      79.3419      0.00000
     36      84.2360      0.00000
     37      87.8671      0.00000
     38      88.2326      0.00000
     39      90.2905      0.00000
     40      92.8643      0.00000
     41      96.2149      0.00000
     42      96.3377      0.00000
     43      98.1394      0.00000
     44      98.8477      0.00000
     45     100.2560      0.00000
     46     100.9937      0.00000
     47     102.5806      0.00000
     48     103.8430      0.00000

 k-point   192 :      -0.3333    0.5000    0.1667
  band No.  band energies     occupation 
      1       5.9554      1.00000
      2       7.2962      1.02494
      3       8.7239     -0.01650
      4      10.2814      0.00000
      5      19.8434      0.00000
      6      21.6703      0.00000
      7      27.9422      0.00000
      8      28.9710      0.00000
      9      34.9411      0.00000
     10      39.7680      0.00000
     11      41.7510      0.00000
     12      41.9708      0.00000
     13      43.0102      0.00000
     14      44.1124      0.00000
     15      44.6977      0.00000
     16      45.4338      0.00000
     17      49.9825      0.00000
     18      53.4592      0.00000
     19      53.9809      0.00000
     20      54.0210      0.00000
     21      55.7327      0.00000
     22      55.9251      0.00000
     23      56.0079      0.00000
     24      56.4515      0.00000
     25      59.3631      0.00000
     26      61.9283      0.00000
     27      62.7370      0.00000
     28      64.7341      0.00000
     29      66.4727      0.00000
     30      66.7215      0.00000
     31      70.3613      0.00000
     32      72.6382      0.00000
     33      76.0160      0.00000
     34      79.0865      0.00000
     35      79.2038      0.00000
     36      81.9599      0.00000
     37      87.5827      0.00000
     38      87.9556      0.00000
     39      88.4787      0.00000
     40      91.1991      0.00000
     41      93.6229      0.00000
     42      96.1286      0.00000
     43      96.2706      0.00000
     44      99.9827      0.00000
     45     100.3514      0.00000
     46     103.4206      0.00000
     47     104.1561      0.00000
     48     104.7157      0.00000

 k-point   193 :      -0.3333    0.4444    0.2222
  band No.  band energies     occupation 
      1       5.4441      1.00000
      2       7.6972      0.98723
      3       8.9524     -0.00050
      4       9.7703      0.00000
      5      22.4862      0.00000
      6      23.5084      0.00000
      7      24.4964      0.00000
      8      27.8310      0.00000
      9      34.3049      0.00000
     10      38.2806      0.00000
     11      40.9981      0.00000
     12      41.1001      0.00000
     13      42.9824      0.00000
     14      43.9068      0.00000
     15      45.8130      0.00000
     16      47.7547      0.00000
     17      51.3132      0.00000
     18      52.6905      0.00000
     19      54.3881      0.00000
     20      54.7977      0.00000
     21      55.2112      0.00000
     22      56.4189      0.00000
     23      58.0182      0.00000
     24      59.5800      0.00000
     25      60.5300      0.00000
     26      61.7979      0.00000
     27      62.2297      0.00000
     28      63.9712      0.00000
     29      64.4947      0.00000
     30      65.0847      0.00000
     31      66.4048      0.00000
     32      71.8364      0.00000
     33      74.4363      0.00000
     34      79.0130      0.00000
     35      79.4099      0.00000
     36      83.9326      0.00000
     37      88.0290      0.00000
     38      89.0408      0.00000
     39      92.6737      0.00000
     40      93.4543      0.00000
     41      93.8969      0.00000
     42      95.8541      0.00000
     43      96.3080      0.00000
     44      97.2466      0.00000
     45      99.9540      0.00000
     46     100.5003      0.00000
     47     102.8688      0.00000
     48     105.2795      0.00000

 k-point   194 :      -0.2778    0.4444    0.2222
  band No.  band energies     occupation 
      1       6.6006      1.00000
      2       6.7596      1.00000
      3       8.7369     -0.00443
      4       9.4679      0.00000
      5      23.1758      0.00000
      6      23.4894      0.00000
      7      24.8909      0.00000
      8      26.5831      0.00000
      9      34.6018      0.00000
     10      38.7547      0.00000
     11      41.5719      0.00000
     12      42.2067      0.00000
     13      42.7919      0.00000
     14      43.4014      0.00000
     15      44.9273      0.00000
     16      46.5640      0.00000
     17      52.1128      0.00000
     18      52.4761      0.00000
     19      54.3824      0.00000
     20      54.8467      0.00000
     21      57.0899      0.00000
     22      57.1421      0.00000
     23      58.7160      0.00000
     24      59.1494      0.00000
     25      59.6994      0.00000
     26      60.2986      0.00000
     27      62.5337      0.00000
     28      63.2052      0.00000
     29      64.3711      0.00000
     30      65.1623      0.00000
     31      65.2842      0.00000
     32      72.9840      0.00000
     33      73.8522      0.00000
     34      78.1333      0.00000
     35      80.3991      0.00000
     36      82.6230      0.00000
     37      88.8140      0.00000
     38      88.9503      0.00000
     39      93.5499      0.00000
     40      93.5782      0.00000
     41      94.9675      0.00000
     42      95.7740      0.00000
     43      97.6908      0.00000
     44      98.3580      0.00000
     45      99.6247      0.00000
     46      99.6291      0.00000
     47     102.9164      0.00000
     48     103.2251      0.00000

 k-point   195 :      -0.2778    0.5000    0.2222
  band No.  band energies     occupation 
      1       6.6720      1.00000
      2       7.5947      1.00000
      3       7.9435      0.01304
      4       9.2551      0.00000
      5      22.3891      0.00000
      6      23.7153      0.00000
      7      25.1021      0.00000
      8      26.8415      0.00000
      9      34.9908      0.00000
     10      39.7906      0.00000
     11      42.1342      0.00000
     12      42.4889      0.00000
     13      42.8135      0.00000
     14      43.6151      0.00000
     15      43.9134      0.00000
     16      44.9916      0.00000
     17      51.6945      0.00000
     18      53.2417      0.00000
     19      54.0753      0.00000
     20      54.8807      0.00000
     21      57.1130      0.00000
     22      57.4908      0.00000
     23      58.0392      0.00000
     24      58.6029      0.00000
     25      60.6385      0.00000
     26      60.7855      0.00000
     27      61.5618      0.00000
     28      62.5933      0.00000
     29      64.6648      0.00000
     30      65.0125      0.00000
     31      65.9327      0.00000
     32      72.9634      0.00000
     33      74.9889      0.00000
     34      79.2900      0.00000
     35      79.3516      0.00000
     36      81.1122      0.00000
     37      88.7325      0.00000
     38      89.4601      0.00000
     39      92.9022      0.00000
     40      93.7950      0.00000
     41      96.4340      0.00000
     42      96.5928      0.00000
     43      96.7008      0.00000
     44      97.5948      0.00000
     45     100.2960      0.00000
     46     100.3545      0.00000
     47     102.0292      0.00000
     48     102.5635      0.00000


--------------------------------------------------------------------------------------------------------


 soft charge-density along one line, spin component           1
         0         1         2         3         4         5         6         7         8         9
 total charge-density along one line

 soft charge-density along one line, spin component           2
         0         1         2         3         4         5         6         7         8         9
 total charge-density along one line

 pseudopotential strength for first ion, spin component:           1
  8.445  14.393   0.000  -0.000   0.000   0.000  -0.000   0.000
 14.393  24.530   0.000  -0.000   0.000   0.000  -0.000   0.000
  0.000   0.000   1.987  -0.000  -0.000   5.730  -0.000  -0.000
 -0.000  -0.000  -0.000   1.987  -0.000  -0.000   5.730  -0.000
  0.000   0.000  -0.000  -0.000   1.987  -0.000  -0.000   5.730
  0.000   0.000   5.730  -0.000  -0.000  16.434  -0.000  -0.000
 -0.000  -0.000  -0.000   5.730  -0.000  -0.000  16.434  -0.000
  0.000   0.000  -0.000  -0.000   5.730  -0.000  -0.000  16.434
 pseudopotential strength for first ion, spin component:           2
  8.445  14.393   0.000  -0.000   0.000  -0.000  -0.000   0.000
 14.393  24.531  -0.000  -0.000   0.000   0.000  -0.000   0.000
  0.000  -0.000   1.987  -0.000  -0.000   5.730  -0.000  -0.000
 -0.000  -0.000  -0.000   1.987  -0.000  -0.000   5.730  -0.000
  0.000   0.000  -0.000  -0.000   1.987  -0.000  -0.000   5.730
 -0.000   0.000   5.730  -0.000  -0.000  16.434  -0.000  -0.000
 -0.000  -0.000  -0.000   5.730  -0.000  -0.000  16.434  -0.000
  0.000   0.000  -0.000  -0.000   5.730  -0.000  -0.000  16.434
 total augmentation occupancy for first ion, spin component:           1
  3.357  -0.828   0.000   0.000   0.000   0.000   0.000   0.000
 -0.828   0.269   0.000   0.000   0.000   0.000   0.000   0.000
  0.000   0.000   1.101   0.000   0.000  -0.070   0.000   0.000
  0.000   0.000   0.000   1.101   0.000  -0.000  -0.070  -0.000
  0.000   0.000   0.000   0.000   1.101   0.000  -0.000  -0.070
  0.000   0.000  -0.070  -0.000   0.000   0.005  -0.000   0.000
  0.000   0.000  -0.000  -0.070   0.000   0.000   0.005   0.000
  0.000   0.000  -0.000  -0.000  -0.070  -0.000   0.000   0.005
 total augmentation occupancy for first ion, spin component:           2
  0.017  -0.006   0.000   0.000   0.000   0.000   0.000   0.000
 -0.006   0.002   0.000   0.000   0.000   0.000   0.000   0.000
  0.000   0.000   0.002   0.000   0.000  -0.000   0.000   0.000
  0.000   0.000   0.000   0.002   0.000   0.000  -0.000   0.000
  0.000   0.000   0.000   0.000   0.002   0.000   0.000  -0.000
  0.000   0.000  -0.000   0.000   0.000   0.000   0.000   0.000
  0.000   0.000   0.000  -0.000   0.000   0.000   0.000   0.000
  0.000   0.000   0.000   0.000  -0.000   0.000   0.000   0.000


------------------------ aborting loop because EDIFF is reached ----------------------------------------





 total charge

# of ion       s       p       d       tot
------------------------------------------
    1        0.426   0.339   0.000   0.765



 magnetization (x)

# of ion       s       p       d       tot
------------------------------------------
    1       -0.000  -0.000   0.000  -0.000

    CHARGE:  cpu time    0.1196: real time    0.1196
    FORLOC:  cpu time    0.0002: real time    0.0002
    FORNL :  cpu time    0.0185: real time    0.0185
    STRESS:  cpu time    0.2831: real time    0.2832
    FORCOR:  cpu time    0.0053: real time    0.0053
    FORHAR:  cpu time    0.0007: real time    0.0008
    MIXING:  cpu time    0.0003: real time    0.0003
    OFIELD:  cpu time    0.0000: real time    0.0000

  FORCE on cell =-STRESS in cart. coord.  units (eV):
  Direction    XX          YY          ZZ          XY          YZ          ZX
  --------------------------------------------------------------------------------------
  Alpha Z    -0.20255    -0.20255    -0.20255
  Ewald     -24.46432   -24.46432   -24.46432    -0.00000    -0.00000     0.00000
  Hartree     0.03522     0.03522     0.03522     0.00000     0.00000     0.00000
  E(xc)      -8.54959    -8.54959    -8.54959     0.00000     0.00000     0.00000
  Local       0.34055     0.34055     0.34055    -0.00000    -0.00000    -0.00000
  n-local    18.89108    18.54609    18.99730     0.47172    -0.58779     0.52147
  augment    -1.02459    -1.02459    -1.02459     0.00000     0.00000     0.00000
  Kinetic    12.42170    10.98502    21.50435    -9.64258     8.39492    -6.21614
  Fock        0.00000     0.00000     0.00000     0.00000     0.00000     0.00000
  -------------------------------------------------------------------------------------
  Total      -0.08343    -0.08343    -0.08343     0.00000     0.00000    -0.00000
  in kB      -8.06040    -8.06040    -8.06040     0.00000     0.00000    -0.00000
  external pressure =       -8.06 kB  Pullay stress =        0.00 kB


 VOLUME and BASIS-vectors are now :
 -----------------------------------------------------------------------------
  energy-cutoff  :      520.00
  volume of cell :       16.58
      direct lattice vectors                 reciprocal lattice vectors
     0.000000000  2.024000000  2.024000000    -0.247035573  0.247035573  0.247035573
     2.024000000  0.000000000  2.024000000     0.247035573 -0.247035573  0.247035573
     2.024000000  2.024000000  0.000000000     0.247035573  0.247035573 -0.247035573

  length of vectors
     2.862368250  2.862368250  2.862368250     0.427878164  0.427878164  0.427878164


 FORCES acting on ions
    electron-ion (+dipol)            ewald-force                    non-local-force                 convergence-correction
 -----------------------------------------------------------------------------------------------
   0.833E-15 0.119E-14 0.300E-14   0.817E-16 0.470E-16 -.229E-15   0.000E+00 -.129E-25 -.323E-26   0.858E-18 0.223E-17 -.247E-17
 -----------------------------------------------------------------------------------------------
   0.833E-15 0.119E-14 0.300E-14   0.817E-16 0.470E-16 -.229E-15   0.000E+00 -.129E-25 -.323E-26   0.858E-18 0.223E-17 -.247E-17


 POSITION                                       TOTAL-FORCE (eV/Angst)
 -----------------------------------------------------------------------------------
      0.00000      0.00000      0.00000         0.000000     -0.000000      0.000000
 -----------------------------------------------------------------------------------
    total drift:                                0.000000      0.000000      0.000000


--------------------------------------------------------------------------------------------------------



  FREE ENERGIE OF THE ION-ELECTRON SYSTEM (eV)
  ---------------------------------------------------
  free  energy   TOTEN  =        -3.74625347 eV

  energy  without entropy=       -3.74625347  energy(sigma->0) =       -3.74625347



--------------------------------------------------------------------------------------------------------


    POTLOK:  cpu time    0.1638: real time    0.1850


--------------------------------------------------------------------------------------------------------


 stress matrix after NEB project (eV)
     -0.08343      0.00000     -0.00000
      0.00000     -0.08343      0.00000
      0.00000      0.00000     -0.08343
  FORCES: max atom, RMS     0.000000    0.000000
  FORCE total and by dimension    0.000000    0.000000
  Stress total and by dimension    0.144500    0.083427
     LOOP+:  cpu time  182.8955: real time  182.9304
 -----------------------------------------------------------------------------
|                                                                             |
|           W    W    AA    RRRRR   N    N  II  N    N   GGGG   !!!           |
|           W    W   A  A   R    R  NN   N  II  NN   N  G    G  !!!           |
|           W    W  A    A  R    R  N N  N  II  N N  N  G       !!!           |
|           W WW W  AAAAAA  RRRRR   N  N N  II  N  N N  G  GGG   !            |
|           WW  WW  A    A  R   R   N   NN  II  N   NN  G    G                |
|           W    W  A    A  R    R  N    N  II  N    N   GGGG   !!!           |
|                                                                             |
|     Tetrahedron method does not include variations of the Fermi             |
|     occupations, so forces and stress will be inaccurate. We suggest        |
|     using a different smearing scheme ISMEAR = 1 or 2 for metals in         |
|     relaxations.                                                            |
|                                                                             |
 -----------------------------------------------------------------------------

    4ORBIT:  cpu time    0.0000: real time    0.0000



 total charge

# of ion       s       p       d       tot
------------------------------------------
    1        0.426   0.339   0.000   0.765



 magnetization (x)

# of ion       s       p       d       tot
------------------------------------------
    1       -0.000  -0.000   0.000  -0.000

 BZINTS: Fermi energy:    7.972271;    3.000000 electrons
         Band energy: 0.106112E+02;  BLOECHL correction:   -0.048414

 total amount of memory used by VASP MPI-rank0    40743. kBytes
=======================================================================

   base      :      30000. kBytes
   nonl-proj :       5998. kBytes
   fftplans  :        150. kBytes
   grid      :       1295. kBytes
   one-center:          6. kBytes
   wavefun   :       3294. kBytes

  
  
 General timing and accounting informations for this job:
 ========================================================
  
                  Total CPU time used (sec):      187.167
                            User time (sec):      185.023
                          System time (sec):        2.144
                         Elapsed time (sec):      187.455
  
                   Maximum memory used (kb):       61072.
                   Average memory used (kb):          N/A
  
                          Minor page faults:        51289
                          Major page faults:          618
                 Voluntary context switches:         2195
