   7   7   1   0
  0.1349563E+02  0.3897753E-09  0.3897753E-09  0.6801608E-09  0.5000000E-15
   1.0000000000000000E-004
  CAR 
 unknown system                          
     17.32549336    -60.41951490  301      9.82554797      1.00000000
    -60.420  0.0000E+00  0.0000E+00  0.0000E+00  0.0000E+00
    -60.160  0.0000E+00  0.0000E+00  0.0000E+00  0.0000E+00
    -59.901  0.0000E+00  0.0000E+00  0.0000E+00  0.0000E+00
    -59.642  0.0000E+00  0.0000E+00  0.0000E+00  0.0000E+00
    -59.383  0.0000E+00  0.0000E+00  0.0000E+00  0.0000E+00
    -59.124  0.0000E+00  0.0000E+00  0.0000E+00  0.0000E+00
    -58.865  0.0000E+00  0.0000E+00  0.0000E+00  0.0000E+00
    -58.605  0.0000E+00  0.0000E+00  0.0000E+00  0.0000E+00
    -58.346  0.0000E+00  0.0000E+00  0.0000E+00  0.0000E+00
    -58.087  0.0000E+00  0.0000E+00  0.0000E+00  0.0000E+00
    -57.828  0.0000E+00  0.0000E+00  0.0000E+00  0.0000E+00
    -57.569  0.0000E+00  0.0000E+00  0.0000E+00  0.0000E+00
    -57.310  0.0000E+00  0.0000E+00  0.0000E+00  0.0000E+00
    -57.051  0.0000E+00  0.0000E+00  0.0000E+00  0.0000E+00
    -56.791  0.1158E+02  0.0000E+00  0.3000E+01  0.0000E+00
    -56.532  0.0000E+00  0.0000E+00  0.3000E+01  0.0000E+00
    -56.273  0.0000E+00  0.0000E+00  0.3000E+01  0.0000E+00
    -56.014  0.0000E+00  0.0000E+00  0.3000E+01  0.0000E+00
    -55.755  0.0000E+00  0.0000E+00  0.3000E+01  0.0000E+00
    -55.496  0.0000E+00  0.0000E+00  0.3000E+01  0.0000E+00
    -55.237  0.0000E+00  0.0000E+00  0.3000E+01  0.0000E+00
    -54.977  0.0000E+00  0.0000E+00  0.3000E+01  0.0000E+00
    -54.718  0.0000E+00  0.3859E+01  0.3000E+01  0.1000E+01
    -54.459  0.0000E+00  0.7718E+01  0.3000E+01  0.3000E+01
    -54.200  0.0000E+00  0.0000E+00  0.3000E+01  0.3000E+01
    -53.941  0.0000E+00  0.0000E+00  0.3000E+01  0.3000E+01
    -53.682  0.0000E+00  0.0000E+00  0.3000E+01  0.3000E+01
    -53.422  0.0000E+00  0.0000E+00  0.3000E+01  0.3000E+01
    -53.163  0.0000E+00  0.0000E+00  0.3000E+01  0.3000E+01
    -52.904  0.0000E+00  0.0000E+00  0.3000E+01  0.3000E+01
    -52.645  0.0000E+00  0.0000E+00  0.3000E+01  0.3000E+01
    -52.386  0.0000E+00  0.0000E+00  0.3000E+01  0.3000E+01
    -52.127  0.0000E+00  0.0000E+00  0.3000E+01  0.3000E+01
    -51.868  0.0000E+00  0.0000E+00  0.3000E+01  0.3000E+01
    -51.608  0.0000E+00  0.0000E+00  0.3000E+01  0.3000E+01
    -51.349  0.0000E+00  0.0000E+00  0.3000E+01  0.3000E+01
    -51.090  0.0000E+00  0.0000E+00  0.3000E+01  0.3000E+01
    -50.831  0.0000E+00  0.0000E+00  0.3000E+01  0.3000E+01
    -50.572  0.0000E+00  0.0000E+00  0.3000E+01  0.3000E+01
    -50.313  0.0000E+00  0.0000E+00  0.3000E+01  0.3000E+01
    -50.054  0.0000E+00  0.0000E+00  0.3000E+01  0.3000E+01
    -49.794  0.0000E+00  0.0000E+00  0.3000E+01  0.3000E+01
    -49.535  0.0000E+00  0.0000E+00  0.3000E+01  0.3000E+01
    -49.276  0.0000E+00  0.0000E+00  0.3000E+01  0.3000E+01
    -49.017  0.0000E+00  0.0000E+00  0.3000E+01  0.3000E+01
    -48.758  0.0000E+00  0.0000E+00  0.3000E+01  0.3000E+01
    -48.499  0.0000E+00  0.0000E+00  0.3000E+01  0.3000E+01
    -48.239  0.0000E+00  0.0000E+00  0.3000E+01  0.3000E+01
    -47.980  0.0000E+00  0.0000E+00  0.3000E+01  0.3000E+01
    -47.721  0.0000E+00  0.0000E+00  0.3000E+01  0.3000E+01
    -47.462  0.0000E+00  0.0000E+00  0.3000E+01  0.3000E+01
    -47.203  0.0000E+00  0.0000E+00  0.3000E+01  0.3000E+01
    -46.944  0.0000E+00  0.0000E+00  0.3000E+01  0.3000E+01
    -46.685  0.0000E+00  0.0000E+00  0.3000E+01  0.3000E+01
    -46.425  0.0000E+00  0.0000E+00  0.3000E+01  0.3000E+01
    -46.166  0.0000E+00  0.0000E+00  0.3000E+01  0.3000E+01
    -45.907  0.0000E+00  0.0000E+00  0.3000E+01  0.3000E+01
    -45.648  0.0000E+00  0.0000E+00  0.3000E+01  0.3000E+01
    -45.389  0.0000E+00  0.0000E+00  0.3000E+01  0.3000E+01
    -45.130  0.0000E+00  0.0000E+00  0.3000E+01  0.3000E+01
    -44.871  0.0000E+00  0.0000E+00  0.3000E+01  0.3000E+01
    -44.611  0.0000E+00  0.0000E+00  0.3000E+01  0.3000E+01
    -44.352  0.0000E+00  0.0000E+00  0.3000E+01  0.3000E+01
    -44.093  0.0000E+00  0.0000E+00  0.3000E+01  0.3000E+01
    -43.834  0.0000E+00  0.0000E+00  0.3000E+01  0.3000E+01
    -43.575  0.0000E+00  0.0000E+00  0.3000E+01  0.3000E+01
    -43.316  0.0000E+00  0.0000E+00  0.3000E+01  0.3000E+01
    -43.056  0.0000E+00  0.0000E+00  0.3000E+01  0.3000E+01
    -42.797  0.0000E+00  0.0000E+00  0.3000E+01  0.3000E+01
    -42.538  0.0000E+00  0.0000E+00  0.3000E+01  0.3000E+01
    -42.279  0.0000E+00  0.0000E+00  0.3000E+01  0.3000E+01
    -42.020  0.0000E+00  0.0000E+00  0.3000E+01  0.3000E+01
    -41.761  0.0000E+00  0.0000E+00  0.3000E+01  0.3000E+01
    -41.502  0.0000E+00  0.0000E+00  0.3000E+01  0.3000E+01
    -41.242  0.0000E+00  0.0000E+00  0.3000E+01  0.3000E+01
    -40.983  0.0000E+00  0.0000E+00  0.3000E+01  0.3000E+01
    -40.724  0.0000E+00  0.0000E+00  0.3000E+01  0.3000E+01
    -40.465  0.0000E+00  0.0000E+00  0.3000E+01  0.3000E+01
    -40.206  0.0000E+00  0.0000E+00  0.3000E+01  0.3000E+01
    -39.947  0.0000E+00  0.0000E+00  0.3000E+01  0.3000E+01
    -39.688  0.0000E+00  0.0000E+00  0.3000E+01  0.3000E+01
    -39.428  0.0000E+00  0.0000E+00  0.3000E+01  0.3000E+01
    -39.169  0.0000E+00  0.0000E+00  0.3000E+01  0.3000E+01
    -38.910  0.0000E+00  0.0000E+00  0.3000E+01  0.3000E+01
    -38.651  0.0000E+00  0.0000E+00  0.3000E+01  0.3000E+01
    -38.392  0.0000E+00  0.0000E+00  0.3000E+01  0.3000E+01
    -38.133  0.0000E+00  0.0000E+00  0.3000E+01  0.3000E+01
    -37.873  0.0000E+00  0.0000E+00  0.3000E+01  0.3000E+01
    -37.614  0.0000E+00  0.0000E+00  0.3000E+01  0.3000E+01
    -37.355  0.0000E+00  0.0000E+00  0.3000E+01  0.3000E+01
    -37.096  0.0000E+00  0.0000E+00  0.3000E+01  0.3000E+01
    -36.837  0.0000E+00  0.0000E+00  0.3000E+01  0.3000E+01
    -36.578  0.0000E+00  0.0000E+00  0.3000E+01  0.3000E+01
    -36.319  0.0000E+00  0.0000E+00  0.3000E+01  0.3000E+01
    -36.059  0.0000E+00  0.0000E+00  0.3000E+01  0.3000E+01
    -35.800  0.0000E+00  0.0000E+00  0.3000E+01  0.3000E+01
    -35.541  0.0000E+00  0.0000E+00  0.3000E+01  0.3000E+01
    -35.282  0.0000E+00  0.0000E+00  0.3000E+01  0.3000E+01
    -35.023  0.0000E+00  0.0000E+00  0.3000E+01  0.3000E+01
    -34.764  0.0000E+00  0.0000E+00  0.3000E+01  0.3000E+01
    -34.505  0.0000E+00  0.0000E+00  0.3000E+01  0.3000E+01
    -34.245  0.0000E+00  0.0000E+00  0.3000E+01  0.3000E+01
    -33.986  0.0000E+00  0.0000E+00  0.3000E+01  0.3000E+01
    -33.727  0.0000E+00  0.0000E+00  0.3000E+01  0.3000E+01
    -33.468  0.0000E+00  0.0000E+00  0.3000E+01  0.3000E+01
    -33.209  0.0000E+00  0.0000E+00  0.3000E+01  0.3000E+01
    -32.950  0.0000E+00  0.0000E+00  0.3000E+01  0.3000E+01
    -32.690  0.0000E+00  0.0000E+00  0.3000E+01  0.3000E+01
    -32.431  0.0000E+00  0.0000E+00  0.3000E+01  0.3000E+01
    -32.172  0.0000E+00  0.0000E+00  0.3000E+01  0.3000E+01
    -31.913  0.0000E+00  0.0000E+00  0.3000E+01  0.3000E+01
    -31.654  0.0000E+00  0.0000E+00  0.3000E+01  0.3000E+01
    -31.395  0.0000E+00  0.0000E+00  0.3000E+01  0.3000E+01
    -31.136  0.0000E+00  0.0000E+00  0.3000E+01  0.3000E+01
    -30.876  0.0000E+00  0.0000E+00  0.3000E+01  0.3000E+01
    -30.617  0.0000E+00  0.0000E+00  0.3000E+01  0.3000E+01
    -30.358  0.0000E+00  0.0000E+00  0.3000E+01  0.3000E+01
    -30.099  0.0000E+00  0.0000E+00  0.3000E+01  0.3000E+01
    -29.840  0.0000E+00  0.0000E+00  0.3000E+01  0.3000E+01
    -29.581  0.0000E+00  0.0000E+00  0.3000E+01  0.3000E+01
    -29.322  0.0000E+00  0.0000E+00  0.3000E+01  0.3000E+01
    -29.062  0.0000E+00  0.0000E+00  0.3000E+01  0.3000E+01
    -28.803  0.0000E+00  0.0000E+00  0.3000E+01  0.3000E+01
    -28.544  0.0000E+00  0.0000E+00  0.3000E+01  0.3000E+01
    -28.285  0.0000E+00  0.0000E+00  0.3000E+01  0.3000E+01
    -28.026  0.0000E+00  0.0000E+00  0.3000E+01  0.3000E+01
    -27.767  0.0000E+00  0.0000E+00  0.3000E+01  0.3000E+01
    -27.507  0.0000E+00  0.0000E+00  0.3000E+01  0.3000E+01
    -27.248  0.0000E+00  0.0000E+00  0.3000E+01  0.3000E+01
    -26.989  0.0000E+00  0.0000E+00  0.3000E+01  0.3000E+01
    -26.730  0.0000E+00  0.0000E+00  0.3000E+01  0.3000E+01
    -26.471  0.0000E+00  0.0000E+00  0.3000E+01  0.3000E+01
    -26.212  0.0000E+00  0.0000E+00  0.3000E+01  0.3000E+01
    -25.953  0.0000E+00  0.0000E+00  0.3000E+01  0.3000E+01
    -25.693  0.0000E+00  0.0000E+00  0.3000E+01  0.3000E+01
    -25.434  0.0000E+00  0.0000E+00  0.3000E+01  0.3000E+01
    -25.175  0.0000E+00  0.0000E+00  0.3000E+01  0.3000E+01
    -24.916  0.0000E+00  0.0000E+00  0.3000E+01  0.3000E+01
    -24.657  0.0000E+00  0.0000E+00  0.3000E+01  0.3000E+01
    -24.398  0.0000E+00  0.0000E+00  0.3000E+01  0.3000E+01
    -24.139  0.0000E+00  0.0000E+00  0.3000E+01  0.3000E+01
    -23.879  0.0000E+00  0.0000E+00  0.3000E+01  0.3000E+01
    -23.620  0.0000E+00  0.0000E+00  0.3000E+01  0.3000E+01
    -23.361  0.6517E+01  0.6605E+01  0.4051E+01  0.4054E+01
    -23.102  0.3373E+01  0.3373E+01  0.5000E+01  0.5000E+01
    -22.843  0.0000E+00  0.0000E+00  0.5000E+01  0.5000E+01
    -22.584  0.0000E+00  0.0000E+00  0.5000E+01  0.5000E+01
    -22.324  0.0000E+00  0.0000E+00  0.5000E+01  0.5000E+01
    -22.065  0.0000E+00  0.0000E+00  0.5000E+01  0.5000E+01
    -21.806  0.0000E+00  0.0000E+00  0.5000E+01  0.5000E+01
    -21.547  0.0000E+00  0.0000E+00  0.5000E+01  0.5000E+01
    -21.288  0.0000E+00  0.0000E+00  0.5000E+01  0.5000E+01
    -21.029  0.0000E+00  0.0000E+00  0.5000E+01  0.5000E+01
    -20.770  0.0000E+00  0.0000E+00  0.5000E+01  0.5000E+01
    -20.510  0.0000E+00  0.0000E+00  0.5000E+01  0.5000E+01
    -20.251  0.0000E+00  0.0000E+00  0.5000E+01  0.5000E+01
    -19.992  0.0000E+00  0.0000E+00  0.5000E+01  0.5000E+01
    -19.733  0.0000E+00  0.0000E+00  0.5000E+01  0.5000E+01
    -19.474  0.0000E+00  0.0000E+00  0.5000E+01  0.5000E+01
    -19.215  0.0000E+00  0.0000E+00  0.5000E+01  0.5000E+01
    -18.956  0.0000E+00  0.0000E+00  0.5000E+01  0.5000E+01
    -18.696  0.0000E+00  0.0000E+00  0.5000E+01  0.5000E+01
    -18.437  0.0000E+00  0.0000E+00  0.5000E+01  0.5000E+01
    -18.178  0.0000E+00  0.0000E+00  0.5000E+01  0.5000E+01
    -17.919  0.0000E+00  0.0000E+00  0.5000E+01  0.5000E+01
    -17.660  0.0000E+00  0.0000E+00  0.5000E+01  0.5000E+01
    -17.401  0.0000E+00  0.0000E+00  0.5000E+01  0.5000E+01
    -17.141  0.0000E+00  0.0000E+00  0.5000E+01  0.5000E+01
    -16.882  0.0000E+00  0.0000E+00  0.5000E+01  0.5000E+01
    -16.623  0.0000E+00  0.0000E+00  0.5000E+01  0.5000E+01
    -16.364  0.0000E+00  0.0000E+00  0.5000E+01  0.5000E+01
    -16.105  0.0000E+00  0.0000E+00  0.5000E+01  0.5000E+01
    -15.846  0.0000E+00  0.0000E+00  0.5000E+01  0.5000E+01
    -15.587  0.0000E+00  0.0000E+00  0.5000E+01  0.5000E+01
    -15.327  0.0000E+00  0.0000E+00  0.5000E+01  0.5000E+01
    -15.068  0.0000E+00  0.0000E+00  0.5000E+01  0.5000E+01
    -14.809  0.0000E+00  0.0000E+00  0.5000E+01  0.5000E+01
    -14.550  0.0000E+00  0.0000E+00  0.5000E+01  0.5000E+01
    -14.291  0.0000E+00  0.0000E+00  0.5000E+01  0.5000E+01
    -14.032  0.0000E+00  0.0000E+00  0.5000E+01  0.5000E+01
    -13.773  0.0000E+00  0.0000E+00  0.5000E+01  0.5000E+01
    -13.513  0.0000E+00  0.0000E+00  0.5000E+01  0.5000E+01
    -13.254  0.0000E+00  0.0000E+00  0.5000E+01  0.5000E+01
    -12.995  0.0000E+00  0.0000E+00  0.5000E+01  0.5000E+01
    -12.736  0.0000E+00  0.0000E+00  0.5000E+01  0.5000E+01
    -12.477  0.0000E+00  0.0000E+00  0.5000E+01  0.5000E+01
    -12.218  0.0000E+00  0.0000E+00  0.5000E+01  0.5000E+01
    -11.958  0.0000E+00  0.0000E+00  0.5000E+01  0.5000E+01
    -11.699  0.0000E+00  0.0000E+00  0.5000E+01  0.5000E+01
    -11.440  0.0000E+00  0.0000E+00  0.5000E+01  0.5000E+01
    -11.181  0.1588E+01  0.0000E+00  0.5132E+01  0.5000E+01
    -10.922  0.2493E+01  0.2209E+01  0.5587E+01  0.5303E+01
    -10.663  0.8295E+00  0.1364E+01  0.5902E+01  0.5767E+01
    -10.404  0.3860E+01  0.1665E+01  0.6354E+01  0.6040E+01
    -10.144  0.1075E+01  0.1940E+01  0.6757E+01  0.6561E+01
     -9.885  0.3990E+01  0.1338E+01  0.7081E+01  0.6897E+01
     -9.626  0.5279E+01  0.3572E+01  0.8129E+01  0.7717E+01
     -9.367  0.1866E+01  0.3680E+01  0.8795E+01  0.8503E+01
     -9.108  0.2140E+00  0.1077E+01  0.9000E+01  0.8948E+01
     -8.849  0.0000E+00  0.0000E+00  0.9000E+01  0.9000E+01
     -8.590  0.0000E+00  0.0000E+00  0.9000E+01  0.9000E+01
     -8.330  0.0000E+00  0.0000E+00  0.9000E+01  0.9000E+01
     -8.071  0.0000E+00  0.0000E+00  0.9000E+01  0.9000E+01
     -7.812  0.0000E+00  0.0000E+00  0.9000E+01  0.9000E+01
     -7.553  0.6407E+00  0.6690E+00  0.9017E+01  0.9019E+01
     -7.294  0.3040E+01  0.3005E+01  0.9449E+01  0.9447E+01
     -7.035  0.8166E+01  0.7888E+01  0.1083E+02  0.1080E+02
     -6.775  0.5741E+01  0.5423E+01  0.1223E+02  0.1217E+02
     -6.516  0.1777E+01  0.2865E+01  0.1300E+02  0.1292E+02
     -6.257  0.1271E+01  0.9927E+00  0.1315E+02  0.1311E+02
     -5.998  0.8685E+01  0.7373E+01  0.1422E+02  0.1400E+02
     -5.739  0.1286E+01  0.2074E+01  0.1500E+02  0.1500E+02
     -5.480  0.0000E+00  0.0000E+00  0.1500E+02  0.1500E+02
     -5.221  0.0000E+00  0.0000E+00  0.1500E+02  0.1500E+02
     -4.961  0.0000E+00  0.0000E+00  0.1500E+02  0.1500E+02
     -4.702  0.0000E+00  0.0000E+00  0.1500E+02  0.1500E+02
     -4.443  0.0000E+00  0.0000E+00  0.1500E+02  0.1500E+02
     -4.184  0.0000E+00  0.0000E+00  0.1500E+02  0.1500E+02
     -3.925  0.0000E+00  0.0000E+00  0.1500E+02  0.1500E+02
     -3.666  0.0000E+00  0.0000E+00  0.1500E+02  0.1500E+02
     -3.407  0.0000E+00  0.0000E+00  0.1500E+02  0.1500E+02
     -3.147  0.0000E+00  0.0000E+00  0.1500E+02  0.1500E+02
     -2.888  0.0000E+00  0.0000E+00  0.1500E+02  0.1500E+02
     -2.629  0.0000E+00  0.0000E+00  0.1500E+02  0.1500E+02
     -2.370  0.0000E+00  0.0000E+00  0.1500E+02  0.1500E+02
     -2.111  0.0000E+00  0.0000E+00  0.1500E+02  0.1500E+02
     -1.852  0.0000E+00  0.0000E+00  0.1500E+02  0.1500E+02
     -1.592  0.0000E+00  0.0000E+00  0.1500E+02  0.1500E+02
     -1.333  0.0000E+00  0.0000E+00  0.1500E+02  0.1500E+02
     -1.074  0.0000E+00  0.0000E+00  0.1500E+02  0.1500E+02
     -0.815  0.0000E+00  0.0000E+00  0.1500E+02  0.1500E+02
     -0.556  0.0000E+00  0.0000E+00  0.1500E+02  0.1500E+02
     -0.297  0.0000E+00  0.0000E+00  0.1500E+02  0.1500E+02
     -0.038  0.0000E+00  0.0000E+00  0.1500E+02  0.1500E+02
      0.222  0.1944E+01  0.0000E+00  0.1531E+02  0.1500E+02
      0.481  0.9800E+00  0.0000E+00  0.1556E+02  0.1500E+02
      0.740  0.9590E+00  0.0000E+00  0.1579E+02  0.1500E+02
      0.999  0.6850E+00  0.0000E+00  0.1598E+02  0.1500E+02
      1.258  0.6682E+00  0.0000E+00  0.1615E+02  0.1500E+02
      1.517  0.7041E+00  0.3602E+00  0.1633E+02  0.1504E+02
      1.776  0.1918E+01  0.4471E+00  0.1674E+02  0.1514E+02
      2.036  0.1399E+01  0.4404E+00  0.1718E+02  0.1525E+02
      2.295  0.4245E+01  0.5452E+00  0.1781E+02  0.1537E+02
      2.554  0.5245E+01  0.2471E+01  0.1894E+02  0.1568E+02
      2.813  0.6078E+01  0.3298E+01  0.1991E+02  0.1624E+02
      3.072  0.1233E+01  0.4084E+01  0.2062E+02  0.1713E+02
      3.331  0.1092E+01  0.2867E+01  0.2088E+02  0.1794E+02
      3.591  0.1541E+00  0.2634E+01  0.2104E+02  0.1845E+02
      3.850  0.5684E+00  0.3797E+01  0.2113E+02  0.1906E+02
      4.109  0.2008E+01  0.1868E+01  0.2144E+02  0.1972E+02
      4.368  0.2331E+01  0.2350E+01  0.2200E+02  0.2024E+02
      4.627  0.2246E+01  0.3125E+01  0.2258E+02  0.2086E+02
      4.886  0.7873E+01  0.5432E+01  0.2356E+02  0.2192E+02
      5.145  0.6144E+01  0.4619E+01  0.2500E+02  0.2313E+02
      5.405  0.4899E+01  0.5527E+01  0.2626E+02  0.2452E+02
      5.664  0.5434E+01  0.5898E+01  0.2752E+02  0.2558E+02
      5.923  0.4488E+01  0.6288E+01  0.2875E+02  0.2679E+02
      6.182  0.4820E+01  0.8314E+01  0.2987E+02  0.2805E+02
      6.441  0.1887E+01  0.4024E+01  0.3057E+02  0.2927E+02
      6.700  0.1774E+01  0.9526E+00  0.3097E+02  0.2984E+02
      6.959  0.1074E+01  0.4134E-01  0.3133E+02  0.2985E+02
      7.219  0.8860E+00  0.3989E-01  0.3163E+02  0.2986E+02
      7.478  0.4118E+00  0.3845E-01  0.3175E+02  0.2987E+02
      7.737  0.3246E+00  0.3701E-01  0.3185E+02  0.2988E+02
      7.996  0.2162E+00  0.3556E-01  0.3191E+02  0.2989E+02
      8.255  0.1575E+00  0.3412E-01  0.3196E+02  0.2990E+02
      8.514  0.7875E-01  0.3268E-01  0.3200E+02  0.2991E+02
      8.774  0.0000E+00  0.3123E-01  0.3200E+02  0.2992E+02
      9.033  0.0000E+00  0.2979E-01  0.3200E+02  0.2993E+02
      9.292  0.0000E+00  0.2834E-01  0.3200E+02  0.2993E+02
      9.551  0.2944E-01  0.5862E-01  0.3200E+02  0.2994E+02
      9.810  0.1398E+00  0.1666E+00  0.3202E+02  0.2997E+02
     10.069  0.2511E+00  0.2718E+00  0.3207E+02  0.3003E+02
     10.328  0.3192E+00  0.3452E+00  0.3215E+02  0.3011E+02
     10.588  0.4522E+00  0.5733E+00  0.3225E+02  0.3022E+02
     10.847  0.2013E+01  0.2140E+01  0.3252E+02  0.3053E+02
     11.106  0.4306E+01  0.6612E+01  0.3335E+02  0.3145E+02
     11.365  0.1325E+02  0.1211E+02  0.3455E+02  0.3347E+02
     11.624  0.2882E+02  0.3310E+02  0.3883E+02  0.3747E+02
     11.883  0.2939E+02  0.2993E+02  0.4445E+02  0.4328E+02
     12.142  0.4891E+01  0.4302E+01  0.4613E+02  0.4493E+02
     12.402  0.2692E+01  0.2112E+01  0.4655E+02  0.4541E+02
     12.661  0.3704E+01  0.2451E+01  0.4719E+02  0.4605E+02
     12.920  0.1894E+01  0.3403E+01  0.4779E+02  0.4678E+02
     13.179  0.2200E+00  0.1719E+01  0.4800E+02  0.4739E+02
     13.438  0.0000E+00  0.1148E+01  0.4800E+02  0.4777E+02
     13.697  0.0000E+00  0.4681E+00  0.4800E+02  0.4799E+02
     13.957  0.0000E+00  0.0000E+00  0.4800E+02  0.4800E+02
     14.216  0.0000E+00  0.0000E+00  0.4800E+02  0.4800E+02
     14.475  0.0000E+00  0.0000E+00  0.4800E+02  0.4800E+02
     14.734  0.0000E+00  0.0000E+00  0.4800E+02  0.4800E+02
     14.993  0.0000E+00  0.0000E+00  0.4800E+02  0.4800E+02
     15.252  0.0000E+00  0.0000E+00  0.4800E+02  0.4800E+02
     15.511  0.0000E+00  0.0000E+00  0.4800E+02  0.4800E+02
     15.771  0.0000E+00  0.0000E+00  0.4800E+02  0.4800E+02
     16.030  0.0000E+00  0.0000E+00  0.4800E+02  0.4800E+02
     16.289  0.0000E+00  0.0000E+00  0.4800E+02  0.4800E+02
     16.548  0.0000E+00  0.0000E+00  0.4800E+02  0.4800E+02
     16.807  0.0000E+00  0.0000E+00  0.4800E+02  0.4800E+02
     17.066  0.0000E+00  0.0000E+00  0.4800E+02  0.4800E+02
     17.325  0.0000E+00  0.0000E+00  0.4800E+02  0.4800E+02
     17.32549336    -60.41951490  301      9.82554797      1.00000000
    -60.420  0.0000E+00  0.0000E+00  0.0000E+00  0.0000E+00  0.0000E+00  0.0000E+00  0.0000E+00  0.0000E+00  0.0000E+00  0.0000E+00  0.0000E+00  0.0000E+00  0.0000E+00  0.0000E+00  0.0000E+00  0.0000E+00  0.0000E+00  0.0000E+00  0.0000E+00  0.0000E+00  0.0000E+00  0.0000E+00  0.0000E+00  0.0000E+00  0.0000E+00  0.0000E+00  0.0000E+00  0.0000E+00  0.0000E+00  0.0000E+00  0.0000E+00  0.0000E+00
    -60.160  0.0000E+00  0.0000E+00  0.0000E+00  0.0000E+00  0.0000E+00  0.0000E+00  0.0000E+00  0.0000E+00  0.0000E+00  0.0000E+00  0.0000E+00  0.0000E+00  0.0000E+00  0.0000E+00  0.0000E+00  0.0000E+00  0.0000E+00  0.0000E+00  0.0000E+00  0.0000E+00  0.0000E+00  0.0000E+00  0.0000E+00  0.0000E+00  0.0000E+00  0.0000E+00  0.0000E+00  0.0000E+00  0.0000E+00  0.0000E+00  0.0000E+00  0.0000E+00
    -59.901  0.0000E+00  0.0000E+00  0.0000E+00  0.0000E+00  0.0000E+00  0.0000E+00  0.0000E+00  0.0000E+00  0.0000E+00  0.0000E+00  0.0000E+00  0.0000E+00  0.0000E+00  0.0000E+00  0.0000E+00  0.0000E+00  0.0000E+00  0.0000E+00  0.0000E+00  0.0000E+00  0.0000E+00  0.0000E+00  0.0000E+00  0.0000E+00  0.0000E+00  0.0000E+00  0.0000E+00  0.0000E+00  0.0000E+00  0.0000E+00  0.0000E+00  0.0000E+00
    -59.642  0.0000E+00  0.0000E+00  0.0000E+00  0.0000E+00  0.0000E+00  0.0000E+00  0.0000E+00  0.0000E+00  0.0000E+00  0.0000E+00  0.0000E+00  0.0000E+00  0.0000E+00  0.0000E+00  0.0000E+00  0.0000E+00  0.0000E+00  0.0000E+00  0.0000E+00  0.0000E+00  0.0000E+00  0.0000E+00  0.0000E+00  0.0000E+00  0.0000E+00  0.0000E+00  0.0000E+00  0.0000E+00  0.0000E+00  0.0000E+00  0.0000E+00  0.0000E+00
    -59.383  0.0000E+00  0.0000E+00  0.0000E+00  0.0000E+00  0.0000E+00  0.0000E+00  0.0000E+00  0.0000E+00  0.0000E+00  0.0000E+00  0.0000E+00  0.0000E+00  0.0000E+00  0.0000E+00  0.0000E+00  0.0000E+00  0.0000E+00  0.0000E+00  0.0000E+00  0.0000E+00  0.0000E+00  0.0000E+00  0.0000E+00  0.0000E+00  0.0000E+00  0.0000E+00  0.0000E+00  0.0000E+00  0.0000E+00  0.0000E+00  0.0000E+00  0.0000E+00
    -59.124  0.0000E+00  0.0000E+00  0.0000E+00  0.0000E+00  0.0000E+00  0.0000E+00  0.0000E+00  0.0000E+00  0.0000E+00  0.0000E+00  0.0000E+00  0.0000E+00  0.0000E+00  0.0000E+00  0.0000E+00  0.0000E+00  0.0000E+00  0.0000E+00  0.0000E+00  0.0000E+00  0.0000E+00  0.0000E+00  0.0000E+00  0.0000E+00  0.0000E+00  0.0000E+00  0.0000E+00  0.0000E+00  0.0000E+00  0.0000E+00  0.0000E+00  0.0000E+00
    -58.865  0.0000E+00  0.0000E+00  0.0000E+00  0.0000E+00  0.0000E+00  0.0000E+00  0.0000E+00  0.0000E+00  0.0000E+00  0.0000E+00  0.0000E+00  0.0000E+00  0.0000E+00  0.0000E+00  0.0000E+00  0.0000E+00  0.0000E+00  0.0000E+00  0.0000E+00  0.0000E+00  0.0000E+00  0.0000E+00  0.0000E+00  0.0000E+00  0.0000E+00  0.0000E+00  0.0000E+00  0.0000E+00  0.0000E+00  0.0000E+00  0.0000E+00  0.0000E+00
    -58.605  0.0000E+00  0.0000E+00  0.0000E+00  0.0000E+00  0.0000E+00  0.0000E+00  0.0000E+00  0.0000E+00  0.0000E+00  0.0000E+00  0.0000E+00  0.0000E+00  0.0000E+00  0.0000E+00  0.0000E+00  0.0000E+00  0.0000E+00  0.0000E+00  0.0000E+00  0.0000E+00  0.0000E+00  0.0000E+00  0.0000E+00  0.0000E+00  0.0000E+00  0.0000E+00  0.0000E+00  0.0000E+00  0.0000E+00  0.0000E+00  0.0000E+00  0.0000E+00
    -58.346  0.0000E+00  0.0000E+00  0.0000E+00  0.0000E+00  0.0000E+00  0.0000E+00  0.0000E+00  0.0000E+00  0.0000E+00  0.0000E+00  0.0000E+00  0.0000E+00  0.0000E+00  0.0000E+00  0.0000E+00  0.0000E+00  0.0000E+00  0.0000E+00  0.0000E+00  0.0000E+00  0.0000E+00  0.0000E+00  0.0000E+00  0.0000E+00  0.0000E+00  0.0000E+00  0.0000E+00  0.0000E+00  0.0000E+00  0.0000E+00  0.0000E+00  0.0000E+00
    -58.087  0.0000E+00  0.0000E+00  0.0000E+00  0.0000E+00  0.0000E+00  0.0000E+00  0.0000E+00  0.0000E+00  0.0000E+00  0.0000E+00  0.0000E+00  0.0000E+00  0.0000E+00  0.0000E+00  0.0000E+00  0.0000E+00  0.0000E+00  0.0000E+00  0.0000E+00  0.0000E+00  0.0000E+00  0.0000E+00  0.0000E+00  0.0000E+00  0.0000E+00  0.0000E+00  0.0000E+00  0.0000E+00  0.0000E+00  0.0000E+00  0.0000E+00  0.0000E+00
    -57.828  0.0000E+00  0.0000E+00  0.0000E+00  0.0000E+00  0.0000E+00  0.0000E+00  0.0000E+00  0.0000E+00  0.0000E+00  0.0000E+00  0.0000E+00  0.0000E+00  0.0000E+00  0.0000E+00  0.0000E+00  0.0000E+00  0.0000E+00  0.0000E+00  0.0000E+00  0.0000E+00  0.0000E+00  0.0000E+00  0.0000E+00  0.0000E+00  0.0000E+00  0.0000E+00  0.0000E+00  0.0000E+00  0.0000E+00  0.0000E+00  0.0000E+00  0.0000E+00
    -57.569  0.0000E+00  0.0000E+00  0.0000E+00  0.0000E+00  0.0000E+00  0.0000E+00  0.0000E+00  0.0000E+00  0.0000E+00  0.0000E+00  0.0000E+00  0.0000E+00  0.0000E+00  0.0000E+00  0.0000E+00  0.0000E+00  0.0000E+00  0.0000E+00  0.0000E+00  0.0000E+00  0.0000E+00  0.0000E+00  0.0000E+00  0.0000E+00  0.0000E+00  0.0000E+00  0.0000E+00  0.0000E+00  0.0000E+00  0.0000E+00  0.0000E+00  0.0000E+00
    -57.310  0.0000E+00  0.0000E+00  0.0000E+00  0.0000E+00  0.0000E+00  0.0000E+00  0.0000E+00  0.0000E+00  0.0000E+00  0.0000E+00  0.0000E+00  0.0000E+00  0.0000E+00  0.0000E+00  0.0000E+00  0.0000E+00  0.0000E+00  0.0000E+00  0.0000E+00  0.0000E+00  0.0000E+00  0.0000E+00  0.0000E+00  0.0000E+00  0.0000E+00  0.0000E+00  0.0000E+00  0.0000E+00  0.0000E+00  0.0000E+00  0.0000E+00  0.0000E+00
    -57.051  0.0000E+00  0.0000E+00  0.0000E+00  0.0000E+00  0.0000E+00  0.0000E+00  0.0000E+00  0.0000E+00  0.0000E+00  0.0000E+00  0.0000E+00  0.0000E+00  0.0000E+00  0.0000E+00  0.0000E+00  0.0000E+00  0.0000E+00  0.0000E+00  0.0000E+00  0.0000E+00  0.0000E+00  0.0000E+00  0.0000E+00  0.0000E+00  0.0000E+00  0.0000E+00  0.0000E+00  0.0000E+00  0.0000E+00  0.0000E+00  0.0000E+00  0.0000E+00
    -56.791  0.7244E-06  0.0000E+00  0.3315E-06  0.0000E+00  0.2712E-06  0.0000E+00  0.3315E-06  0.0000E+00  0.6784E-06  0.0000E+00  0.5605E-06  0.0000E+00  0.3024E-07  0.0000E+00  0.5605E-06  0.0000E+00  0.3011E-07  0.0000E+00  0.1018E-06  0.0000E+00  0.4487E-06  0.0000E+00  0.3231E-07  0.0000E+00  0.1778E-06  0.0000E+00  0.3231E-07  0.0000E+00  0.1889E-07  0.0000E+00  0.1018E-06  0.0000E+00
    -56.532  0.0000E+00  0.0000E+00  0.0000E+00  0.0000E+00  0.0000E+00  0.0000E+00  0.0000E+00  0.0000E+00  0.0000E+00  0.0000E+00  0.0000E+00  0.0000E+00  0.0000E+00  0.0000E+00  0.0000E+00  0.0000E+00  0.0000E+00  0.0000E+00  0.0000E+00  0.0000E+00  0.0000E+00  0.0000E+00  0.0000E+00  0.0000E+00  0.0000E+00  0.0000E+00  0.0000E+00  0.0000E+00  0.0000E+00  0.0000E+00  0.0000E+00  0.0000E+00
    -56.273  0.0000E+00  0.0000E+00  0.0000E+00  0.0000E+00  0.0000E+00  0.0000E+00  0.0000E+00  0.0000E+00  0.0000E+00  0.0000E+00  0.0000E+00  0.0000E+00  0.0000E+00  0.0000E+00  0.0000E+00  0.0000E+00  0.0000E+00  0.0000E+00  0.0000E+00  0.0000E+00  0.0000E+00  0.0000E+00  0.0000E+00  0.0000E+00  0.0000E+00  0.0000E+00  0.0000E+00  0.0000E+00  0.0000E+00  0.0000E+00  0.0000E+00  0.0000E+00
    -56.014  0.0000E+00  0.0000E+00  0.0000E+00  0.0000E+00  0.0000E+00  0.0000E+00  0.0000E+00  0.0000E+00  0.0000E+00  0.0000E+00  0.0000E+00  0.0000E+00  0.0000E+00  0.0000E+00  0.0000E+00  0.0000E+00  0.0000E+00  0.0000E+00  0.0000E+00  0.0000E+00  0.0000E+00  0.0000E+00  0.0000E+00  0.0000E+00  0.0000E+00  0.0000E+00  0.0000E+00  0.0000E+00  0.0000E+00  0.0000E+00  0.0000E+00  0.0000E+00
    -55.755  0.0000E+00  0.0000E+00  0.0000E+00  0.0000E+00  0.0000E+00  0.0000E+00  0.0000E+00  0.0000E+00  0.0000E+00  0.0000E+00  0.0000E+00  0.0000E+00  0.0000E+00  0.0000E+00  0.0000E+00  0.0000E+00  0.0000E+00  0.0000E+00  0.0000E+00  0.0000E+00  0.0000E+00  0.0000E+00  0.0000E+00  0.0000E+00  0.0000E+00  0.0000E+00  0.0000E+00  0.0000E+00  0.0000E+00  0.0000E+00  0.0000E+00  0.0000E+00
    -55.496  0.0000E+00  0.0000E+00  0.0000E+00  0.0000E+00  0.0000E+00  0.0000E+00  0.0000E+00  0.0000E+00  0.0000E+00  0.0000E+00  0.0000E+00  0.0000E+00  0.0000E+00  0.0000E+00  0.0000E+00  0.0000E+00  0.0000E+00  0.0000E+00  0.0000E+00  0.0000E+00  0.0000E+00  0.0000E+00  0.0000E+00  0.0000E+00  0.0000E+00  0.0000E+00  0.0000E+00  0.0000E+00  0.0000E+00  0.0000E+00  0.0000E+00  0.0000E+00
    -55.237  0.0000E+00  0.0000E+00  0.0000E+00  0.0000E+00  0.0000E+00  0.0000E+00  0.0000E+00  0.0000E+00  0.0000E+00  0.0000E+00  0.0000E+00  0.0000E+00  0.0000E+00  0.0000E+00  0.0000E+00  0.0000E+00  0.0000E+00  0.0000E+00  0.0000E+00  0.0000E+00  0.0000E+00  0.0000E+00  0.0000E+00  0.0000E+00  0.0000E+00  0.0000E+00  0.0000E+00  0.0000E+00  0.0000E+00  0.0000E+00  0.0000E+00  0.0000E+00
    -54.977  0.0000E+00  0.0000E+00  0.0000E+00  0.0000E+00  0.0000E+00  0.0000E+00  0.0000E+00  0.0000E+00  0.0000E+00  0.0000E+00  0.0000E+00  0.0000E+00  0.0000E+00  0.0000E+00  0.0000E+00  0.0000E+00  0.0000E+00  0.0000E+00  0.0000E+00  0.0000E+00  0.0000E+00  0.0000E+00  0.0000E+00  0.0000E+00  0.0000E+00  0.0000E+00  0.0000E+00  0.0000E+00  0.0000E+00  0.0000E+00  0.0000E+00  0.0000E+00
    -54.718  0.0000E+00  0.2481E-06  0.0000E+00  0.1274E-06  0.0000E+00  0.5549E-07  0.0000E+00  0.1274E-06  0.0000E+00  0.2875E-06  0.0000E+00  0.1308E-06  0.0000E+00  0.3530E-07  0.0000E+00  0.1308E-06  0.0000E+00  0.3162E-09  0.0000E+00  0.4576E-07  0.0000E+00  0.1318E-06  0.0000E+00  0.4150E-09  0.0000E+00  0.6467E-07  0.0000E+00  0.4150E-09  0.0000E+00  0.1847E-09  0.0000E+00  0.4576E-07
    -54.459  0.0000E+00  0.7105E-06  0.0000E+00  0.3095E-06  0.0000E+00  0.3035E-06  0.0000E+00  0.3095E-06  0.0000E+00  0.5404E-06  0.0000E+00  0.5597E-06  0.0000E+00  0.1018E-08  0.0000E+00  0.5597E-06  0.0000E+00  0.3692E-07  0.0000E+00  0.7861E-07  0.0000E+00  0.4166E-06  0.0000E+00  0.3839E-07  0.0000E+00  0.1305E-06  0.0000E+00  0.3839E-07  0.0000E+00  0.2181E-07  0.0000E+00  0.7861E-07
    -54.200  0.0000E+00  0.0000E+00  0.0000E+00  0.0000E+00  0.0000E+00  0.0000E+00  0.0000E+00  0.0000E+00  0.0000E+00  0.0000E+00  0.0000E+00  0.0000E+00  0.0000E+00  0.0000E+00  0.0000E+00  0.0000E+00  0.0000E+00  0.0000E+00  0.0000E+00  0.0000E+00  0.0000E+00  0.0000E+00  0.0000E+00  0.0000E+00  0.0000E+00  0.0000E+00  0.0000E+00  0.0000E+00  0.0000E+00  0.0000E+00  0.0000E+00  0.0000E+00
    -53.941  0.0000E+00  0.0000E+00  0.0000E+00  0.0000E+00  0.0000E+00  0.0000E+00  0.0000E+00  0.0000E+00  0.0000E+00  0.0000E+00  0.0000E+00  0.0000E+00  0.0000E+00  0.0000E+00  0.0000E+00  0.0000E+00  0.0000E+00  0.0000E+00  0.0000E+00  0.0000E+00  0.0000E+00  0.0000E+00  0.0000E+00  0.0000E+00  0.0000E+00  0.0000E+00  0.0000E+00  0.0000E+00  0.0000E+00  0.0000E+00  0.0000E+00  0.0000E+00
    -53.682  0.0000E+00  0.0000E+00  0.0000E+00  0.0000E+00  0.0000E+00  0.0000E+00  0.0000E+00  0.0000E+00  0.0000E+00  0.0000E+00  0.0000E+00  0.0000E+00  0.0000E+00  0.0000E+00  0.0000E+00  0.0000E+00  0.0000E+00  0.0000E+00  0.0000E+00  0.0000E+00  0.0000E+00  0.0000E+00  0.0000E+00  0.0000E+00  0.0000E+00  0.0000E+00  0.0000E+00  0.0000E+00  0.0000E+00  0.0000E+00  0.0000E+00  0.0000E+00
    -53.422  0.0000E+00  0.0000E+00  0.0000E+00  0.0000E+00  0.0000E+00  0.0000E+00  0.0000E+00  0.0000E+00  0.0000E+00  0.0000E+00  0.0000E+00  0.0000E+00  0.0000E+00  0.0000E+00  0.0000E+00  0.0000E+00  0.0000E+00  0.0000E+00  0.0000E+00  0.0000E+00  0.0000E+00  0.0000E+00  0.0000E+00  0.0000E+00  0.0000E+00  0.0000E+00  0.0000E+00  0.0000E+00  0.0000E+00  0.0000E+00  0.0000E+00  0.0000E+00
    -53.163  0.0000E+00  0.0000E+00  0.0000E+00  0.0000E+00  0.0000E+00  0.0000E+00  0.0000E+00  0.0000E+00  0.0000E+00  0.0000E+00  0.0000E+00  0.0000E+00  0.0000E+00  0.0000E+00  0.0000E+00  0.0000E+00  0.0000E+00  0.0000E+00  0.0000E+00  0.0000E+00  0.0000E+00  0.0000E+00  0.0000E+00  0.0000E+00  0.0000E+00  0.0000E+00  0.0000E+00  0.0000E+00  0.0000E+00  0.0000E+00  0.0000E+00  0.0000E+00