    7    7    1    2
  0.1349563E+02  0.3897753E-09  0.3897753E-09  0.6801608E-09  0.5000000E-15
   1.0000000000000000E-004
  CAR 
 unknown system                          
     62     60     48

  0.1262379E-14  0.1262379E-14  0.1262379E-14  0.5102041E-02
    1      -56.885651    -54.724950   1.000000   1.000000
    2      -56.798868    -54.605559   1.000000   1.000000
    3      -56.798850    -54.604825   1.000000   1.000000
    4      -23.542782    -23.543286   1.000000   1.000000
    5      -23.309156    -23.310433   1.000000   1.000000
    6      -11.312143    -11.149282   1.000000   1.000000
    7       -9.702034     -9.622271   1.000000   1.000000
    8       -9.678187     -9.359303   1.000000   1.000000
    9       -9.418846     -9.263940   1.000000   1.000000
   10       -7.002825     -7.007201   1.000000   1.000000
   11       -7.002825     -7.007201   1.000000   1.000000
   12       -6.993194     -6.996850   1.000000   1.000000
   13       -6.993194     -6.996850   1.000000   1.000000
   14       -6.251697     -6.242365   1.000000   1.000000
   15       -5.786473     -5.670713   1.000000   1.000000
   16        1.794608      3.300199   1.000000   1.000000
   17        2.648243      3.300211   1.000000   1.000000
   18        3.033093      3.682311   1.000000   1.000000
   19        3.033099      4.012519   1.000000   1.000000
   20        3.033888      4.012708   1.000000   1.000000
   21        3.109669      4.040381   1.000000   1.000000
   22        3.109670      4.317891   1.000000   1.000000
   23        3.595029      4.422006   1.000000   1.000000
   24        4.366525      5.487312   1.000000   1.000000
   25        5.083773      5.487314   1.000000   1.000000
   26        5.381576      5.545068   1.000000   1.000000
   27        5.381576      5.545088   1.000000   1.000000
   28        5.460359      6.360402   1.000000   1.000000
   29        5.460359      6.360404   1.000000   1.000000
   30        6.239138      6.714856   1.000000   1.000000
   31        6.239138     10.058991   1.000000   0.005151
   32        6.602403     10.835420   1.000000   0.000000
   33       10.054392     11.018049   0.005309   0.000000
   34       10.838756     11.048996   0.000000   0.000000
   35       11.029281     11.384889   0.000000   0.000000
   36       11.358574     11.449978   0.000000   0.000000
   37       11.442914     11.551398   0.000000   0.000000
   38       11.544082     11.551402   0.000000   0.000000
   39       11.544091     11.727446   0.000000   0.000000
   40       11.727130     11.755540   0.000000   0.000000
   41       11.752144     11.755420   0.000000   0.000000
   42       11.752145     11.755764   0.000000   0.000000
   43       11.758432     11.832953   0.000000   0.000000
   44       11.831625     11.833009   0.000000   0.000000
   45       11.831645     12.029890   0.000000   0.000000
   46       12.025346     12.029966   0.000000   0.000000
   47       12.025346     12.120812   0.000000   0.000000
   48       12.121681     12.826068   0.000000   0.000000

  0.1428571E+00  0.1262379E-14  0.1277122E-14  0.2040816E-01
    1      -56.885571    -54.724933   1.000000   1.000000
    2      -56.799242    -54.605929   1.000000   1.000000
    3      -56.798980    -54.604917   1.000000   1.000000
    4      -23.523275    -23.523857   1.000000   1.000000
    5      -23.307549    -23.308810   1.000000   1.000000
    6      -11.225975    -11.064808   1.000000   1.000000
    7       -9.943375     -9.813604   1.000000   1.000000
    8       -9.654033     -9.437099   1.000000   1.000000
    9       -9.493405     -9.335692   1.000000   1.000000
   10       -7.022307     -7.026177   1.000000   1.000000
   11       -7.012373     -7.013313   1.000000   1.000000
   12       -6.936869     -6.941153   1.000000   1.000000
   13       -6.790675     -6.770364   1.000000   1.000000
   14       -6.209809     -6.197423   1.000000   1.000000
   15       -5.881455     -5.776675   1.000000   1.000000
   16        1.644825      3.130085   1.000000   1.000000
   17        1.970571      3.214497   1.000000   1.000000
   18        2.731964      3.302675   1.000000   1.000000
   19        2.748234      3.968343   1.000000   1.000000
   20        3.008185      4.008996   1.000000   1.000000
   21        3.354318      4.086808   1.000000   1.000000
   22        3.588081      4.522119   1.000000   1.000000
   23        3.774443      4.840391   1.000000   1.000000
   24        4.602518      5.291380   1.000000   1.000000
   25        5.240710      5.377000   1.000000   1.000000
   26        5.255533      5.594351   1.000000   1.000000
   27        5.279211      5.631227   1.000000   1.000000
   28        5.503935      5.962536   1.000000   1.000000
   29        5.537027      6.257519   1.000000   1.000000
   30        6.106098      6.694814   1.000000   1.000000
   31        6.108819     10.193192   1.000000  -0.016860
   32        6.617843     10.903808   1.000000   0.000000
   33       10.187633     11.074460  -0.016085   0.000000
   34       10.911106     11.215278   0.000000   0.000000
   35       11.226396     11.485124   0.000000   0.000000
   36       11.477457     11.557896   0.000000   0.000000
   37       11.550241     11.580150   0.000000   0.000000
   38       11.570039     11.621115   0.000000   0.000000
   39       11.594905     11.725102   0.000000   0.000000
   40       11.721683     11.740099   0.000000   0.000000
   41       11.738112     11.740249   0.000000   0.000000
   42       11.741858     11.799356   0.000000   0.000000
   43       11.797190     11.820703   0.000000   0.000000
   44       11.819910     11.980365   0.000000   0.000000
   45       11.975417     12.000231   0.000000   0.000000
   46       11.996815     12.049951   0.000000   0.000000
   47       12.045693     12.169910   0.000000   0.000000
   48       12.165290     12.694668   0.000000   0.000000

  0.2857143E+00  0.1262379E-14  0.1250628E-14  0.2040816E-01
    1      -56.885460    -54.724831   1.000000   1.000000
    2      -56.799131    -54.605843   1.000000   1.000000
    3      -56.798987    -54.604905   1.000000   1.000000
    4      -23.476452    -23.477212   1.000000   1.000000
    5      -23.306393    -23.307606   1.000000   1.000000
    6      -11.035091    -10.876306   1.000000   1.000000
    7      -10.378333    -10.246807   1.000000   1.000000
    8       -9.660058     -9.577086   1.000000   1.000000
    9       -9.567494     -9.363397   1.000000   1.000000
   10       -7.048539     -7.041562   1.000000   1.000000
   11       -7.014658     -7.018329   1.000000   1.000000
   12       -6.860591     -6.865369   1.000000   1.000000
   13       -6.587313     -6.539690   1.000000   1.000000
   14       -6.060070     -6.029442   1.000000   1.000000
   15       -6.017595     -5.954011   1.000000   1.000000
   16        0.788425      2.819090   1.000000   1.000000
   17        1.868134      2.944926   1.000000   1.000000
   18        2.335785      3.050751   1.000000   1.000000
   19        2.479522      3.852735   1.000000   1.000000
   20        2.944073      3.889493   1.000000   1.000000
   21        3.499354      4.163532   1.000000   1.000000
   22        3.841064      4.683778   1.000000   1.000000
   23        4.076145      5.130968   1.000000   1.000000
   24        4.950665      5.299127   1.000000   1.000000
   25        4.995115      5.313582   1.000000   1.000000
   26        5.087857      5.376300   1.000000   1.000000
   27        5.265429      5.651774   1.000000   1.000000
   28        5.493512      5.691211   1.000000   1.000000
   29        5.648928      6.107360   1.000000   1.000000
   30        5.841418      6.606372   1.000000   1.000000
   31        6.248916     10.634002   1.000000  -0.000001
   32        6.744003     10.959161   1.000000   0.000000
   33       10.633820     11.085823   0.000000   0.000000
   34       10.965440     11.316692   0.000000   0.000000
   35       11.375216     11.549109   0.000000   0.000000
   36       11.541193     11.583009   0.000000   0.000000
   37       11.574816     11.584520   0.000000   0.000000
   38       11.633514     11.677021   0.000000   0.000000
   39       11.697535     11.701706   0.000000   0.000000
   40       11.697382     11.709099   0.000000   0.000000
   41       11.724311     11.727493   0.000000   0.000000
   42       11.725477     11.756240   0.000000   0.000000
   43       11.745767     11.806944   0.000000   0.000000
   44       11.806539     11.828032   0.000000   0.000000
   45       11.905837     11.909441   0.000000   0.000000
   46       11.993292     12.066402   0.000000   0.000000
   47       12.311147     12.317410   0.000000   0.000000
   48       12.733012     12.774473   0.000000   0.000000

  0.4285714E+00  0.1262379E-14  0.1305059E-14  0.2040816E-01
    1      -56.885523    -54.724886   1.000000   1.000000
    2      -56.799438    -54.606210   1.000000   1.000000
    3      -56.799022    -54.604974   1.000000   1.000000
    4      -23.433754    -23.434681   1.000000   1.000000
    5      -23.310162    -23.311321   1.000000   1.000000
    6      -10.955710    -10.787833   1.000000   1.000000
    7      -10.583172    -10.486667   1.000000   1.000000
    8       -9.678901     -9.578941   1.000000   1.000000
    9       -9.590445     -9.437924   1.000000   1.000000
   10       -7.121929     -7.107788   1.000000   1.000000
   11       -6.999774     -7.003294   1.000000   1.000000
   12       -6.806984     -6.812174   1.000000   1.000000
   13       -6.615520     -6.560714   1.000000   1.000000
   14       -6.083647     -6.047713   1.000000   1.000000
   15       -5.837497     -5.800034   1.000000   1.000000
   16        0.213968      2.562035   1.000000   1.000000
   17        1.863071      2.865560   1.000000   1.000000
   18        2.122775      2.937796   1.000000   1.000000
   19        2.327037      3.747764   1.000000   1.000000
   20        2.884268      3.759888   1.000000   1.000000
   21        3.514414      4.053580   1.000000   1.000000
   22        3.925336      4.687376   1.000000   1.000000
   23        4.473347      5.060093   1.000000   1.000000
   24        4.731480      5.206799   1.000000   1.000000
   25        4.841333      5.309349   1.000000   1.000000
   26        5.085252      5.345682   1.000000   1.000000
   27        5.155077      5.516128   1.000000   1.000000
   28        5.395927      6.090091   1.000000   1.000000
   29        5.674630      6.109916   1.000000   1.000000
   30        5.956203      6.434525   1.000000   1.000000
   31        6.235382     11.003128   1.000000   0.000000
   32        7.020672     11.105719   1.000000   0.000000
   33       11.009250     11.123971   0.000000   0.000000
   34       11.139820     11.292889   0.000000   0.000000
   35       11.331531     11.582829   0.000000   0.000000
   36       11.573142     11.621287   0.000000   0.000000
   37       11.617125     11.628007   0.000000   0.000000
   38       11.632150     11.649337   0.000000   0.000000
   39       11.662713     11.688028   0.000000   0.000000
   40       11.685616     11.699123   0.000000   0.000000
   41       11.696435     11.699753   0.000000   0.000000
   42       11.698238     11.769955   0.000000   0.000000
   43       11.765173     11.822160   0.000000   0.000000
   44       11.821615     11.832396   0.000000   0.000000
   45       11.853311     11.855364   0.000000   0.000000
   46       11.903369     12.140078   0.000000   0.000000
   47       12.677775     12.689710   0.000000   0.000000
   48       12.956404     12.976736   0.000000   0.000000

  0.1428571E+00  0.1428571E+00  0.1257560E-14  0.1020408E-01
    1      -56.885498    -54.724866   1.000000   1.000000
    2      -56.799058    -54.605734   1.000000   1.000000
    3      -56.799036    -54.605000   1.000000   1.000000
    4      -23.500006    -23.500671   1.000000   1.000000
    5      -23.310326    -23.311554   1.000000   1.000000
    6      -11.157753    -11.002001   1.000000   1.000000
    7       -9.923424     -9.862487   1.000000   1.000000
    8       -9.854896     -9.521713   1.000000   1.000000
    9       -9.488522     -9.415452   1.000000   1.000000
   10       -7.123944     -7.123459   1.000000   1.000000
   11       -6.975584     -6.976739   1.000000   1.000000
   12       -6.859042     -6.830628   1.000000   1.000000
   13       -6.749915     -6.742908   1.000000   1.000000
   14       -6.156375     -6.138312   1.000000   1.000000
   15       -5.961823     -5.876036   1.000000   1.000000
   16        1.600275      2.761212   1.000000   1.000000
   17        1.656828      3.235134   1.000000   1.000000
   18        2.448941      3.553763   1.000000   1.000000
   19        2.666009      3.657424   1.000000   1.000000
   20        2.851383      3.751692   1.000000   1.000000
   21        3.060512      4.413299   1.000000   1.000000
   22        3.983703      4.670071   1.000000   1.000000
   23        4.163198      5.004063   1.000000   1.000000
   24        4.790413      5.181490   1.000000   1.000000
   25        5.039760      5.317921   1.000000   1.000000
   26        5.222319      5.562337   1.000000   1.000000
   27        5.256748      5.702958   1.000000   1.000000
   28        5.566604      5.832421   1.000000   1.000000
   29        5.708923      6.252139   1.000000   1.000000
   30        5.862947      6.603968   1.000000   1.000000
   31        6.460792     10.306379   1.000000  -0.040553
   32        6.592569     10.917039   1.000000   0.000000
   33       10.303973     11.154064  -0.038584   0.000000
   34       10.917685     11.330234   0.000000   0.000000
   35       11.339132     11.469853   0.000000   0.000000
   36       11.443510     11.563307   0.000000   0.000000
   37       11.564411     11.578078   0.000000   0.000000
   38       11.567960     11.612141   0.000000   0.000000
   39       11.600513     11.727586   0.000000   0.000000
   40       11.724012     11.747433   0.000000   0.000000
   41       11.750707     11.781519   0.000000   0.000000
   42       11.780778     11.808910   0.000000   0.000000
   43       11.806180     11.836921   0.000000   0.000000
   44       11.825664     11.954133   0.000000   0.000000
   45       11.945948     11.962939   0.000000   0.000000
   46       11.963252     12.193628   0.000000   0.000000
   47       12.187938     12.296540   0.000000   0.000000
   48       12.265065     12.694859   0.000000   0.000000

  0.2857143E+00  0.1428571E+00  0.1277304E-14  0.2040816E-01
    1      -56.885480    -54.724848   1.000000   1.000000
    2      -56.799197    -54.605895   1.000000   1.000000
    3      -56.798997    -54.604921   1.000000   1.000000
    4      -23.453708    -23.454544   1.000000   1.000000
    5      -23.309471    -23.310648   1.000000   1.000000
    6      -11.020796    -10.876359   1.000000   1.000000
    7      -10.264904    -10.132641   1.000000   1.000000
    8       -9.777147     -9.595223   1.000000   1.000000
    9       -9.534201     -9.445301   1.000000   1.000000
   10       -7.175202     -7.172030   1.000000   1.000000
   11       -7.078586     -7.076676   1.000000   1.000000
   12       -6.812525     -6.801080   1.000000   1.000000
   13       -6.704125     -6.661603   1.000000   1.000000
   14       -6.057667     -6.003571   1.000000   1.000000
   15       -5.987656     -5.960970   1.000000   1.000000
   16        0.774871      2.505330   1.000000   1.000000
   17        1.643489      2.961246   1.000000   1.000000
   18        2.282105      3.202693   1.000000   1.000000
   19        2.400694      3.586159   1.000000   1.000000
   20        2.801518      3.886450   1.000000   1.000000
   21        2.902240      4.439418   1.000000   1.000000
   22        4.144588      4.807041   1.000000   1.000000
   23        4.535022      4.945478   1.000000   1.000000
   24        4.931165      5.282322   1.000000   1.000000
   25        4.992092      5.332393   1.000000   1.000000
   26        5.182562      5.544201   1.000000   1.000000
   27        5.250076      5.749526   1.000000   1.000000
   28        5.594317      5.805683   1.000000   1.000000
   29        5.769635      6.160010   1.000000   1.000000
   30        6.068268      6.521209   1.000000   1.000000
   31        6.382053     10.738250   1.000000  -0.000002
   32        6.893660     10.971391   1.000000   0.000000
   33       10.744475     11.187736   0.000000   0.000000
   34       10.969985     11.388503   0.000000   0.000000
   35       11.394345     11.485307   0.000000   0.000000
   36       11.467903     11.564196   0.000000   0.000000
   37       11.562678     11.606467   0.000000   0.000000
   38       11.595888     11.637261   0.000000   0.000000
   39       11.626529     11.682702   0.000000   0.000000
   40       11.677580     11.739083   0.000000   0.000000
   41       11.743584     11.771180   0.000000   0.000000
   42       11.764225     11.787631   0.000000   0.000000
   43       11.787088     11.814764   0.000000   0.000000
   44       11.812615     11.877832   0.000000   0.000000
   45       11.868582     11.981653   0.000000   0.000000
   46       11.965290     12.500110   0.000000   0.000000
   47       12.482823     12.717683   0.000000   0.000000
   48       12.700015     12.939461   0.000000   0.000000

  0.4285714E+00  0.1428571E+00  0.1260832E-14  0.2040816E-01
    1      -56.885404    -54.724776   1.000000   1.000000
    2      -56.799476    -54.606208   1.000000   1.000000
    3      -56.798933    -54.604872   1.000000   1.000000
    4      -23.418031    -23.419014   1.000000   1.000000
    5      -23.306615    -23.307756   1.000000   1.000000
    6      -10.934393    -10.787740   1.000000   1.000000
    7      -10.479881    -10.364820   1.000000   1.000000
    8       -9.737780     -9.627653   1.000000   1.000000
    9       -9.540479     -9.416785   1.000000   1.000000
   10       -7.306258     -7.303530   1.000000   1.000000
   11       -7.000450     -6.997572   1.000000   1.000000
   12       -6.918437     -6.913611   1.000000   1.000000
   13       -6.648634     -6.599713   1.000000   1.000000
   14       -6.081996     -6.047676   1.000000   1.000000
   15       -5.881522     -5.847400   1.000000   1.000000
   16        0.207504      2.426185   1.000000   1.000000
   17        1.646184      2.768145   1.000000   1.000000
   18        2.199281      2.792289   1.000000   1.000000
   19        2.224773      3.595772   1.000000   1.000000
   20        2.788647      4.035814   1.000000   1.000000
   21        2.810380      4.313496   1.000000   1.000000
   22        4.114051      4.731695   1.000000   1.000000
   23        4.669995      5.098347   1.000000   1.000000
   24        4.876070      5.174422   1.000000   1.000000
   25        5.067239      5.350194   1.000000   1.000000
   26        5.266371      5.538556   1.000000   1.000000
   27        5.327482      5.664641   1.000000   1.000000
   28        5.607353      5.981581   1.000000   1.000000
   29        5.937287      6.263652   1.000000   1.000000
   30        6.058853      6.440245   1.000000   1.000000
   31        6.211767     11.024161   1.000000   0.000000
   32        7.188734     11.155140   1.000000   0.000000
   33       11.032049     11.189191   0.000000   0.000000
   34       11.180902     11.336003   0.000000   0.000000
   35       11.345476     11.513734   0.000000   0.000000
   36       11.509198     11.567745   0.000000   0.000000
   37       11.563017     11.596598   0.000000   0.000000
   38       11.590838     11.610817   0.000000   0.000000
   39       11.596405     11.703008   0.000000   0.000000
   40       11.678361     11.727627   0.000000   0.000000
   41       11.728372     11.757542   0.000000   0.000000
   42       11.756814     11.769959   0.000000   0.000000
   43       11.761744     11.781997   0.000000   0.000000
   44       11.777946     11.864702   0.000000   0.000000
   45       11.861429     11.960712   0.000000   0.000000
   46       11.939970     12.705796   0.000000   0.000000
   47       12.699867     13.033115   0.000000   0.000000
   48       13.019738     13.345615   0.000000   0.000000

 -0.4285714E+00  0.1428571E+00  0.1265657E-14  0.2040816E-01
    1      -56.885466    -54.724841   1.000000   1.000000
    2      -56.799449    -54.606199   1.000000   1.000000
    3      -56.798999    -54.604930   1.000000   1.000000
    4      -23.426548    -23.427508   1.000000   1.000000
    5      -23.297772    -23.298940   1.000000   1.000000
    6      -10.842328    -10.673423   1.000000   1.000000
    7      -10.558587    -10.457664   1.000000   1.000000
    8       -9.768296     -9.693354   1.000000   1.000000
    9       -9.585219     -9.439924   1.000000   1.000000
   10       -7.250165     -7.247373   1.000000   1.000000
   11       -7.030974     -7.026484   1.000000   1.000000
   12       -6.874902     -6.871184   1.000000   1.000000
   13       -6.552865     -6.498696   1.000000   1.000000
   14       -6.125110     -6.086831   1.000000   1.000000
   15       -5.925472     -5.893787   1.000000   1.000000
   16        0.206395      2.321962   1.000000   1.000000
   17        1.646516      2.744479   1.000000   1.000000
   18        2.164009      2.874868   1.000000   1.000000
   19        2.201868      3.599951   1.000000   1.000000
   20        2.795828      4.014896   1.000000   1.000000
   21        2.796052      4.344000   1.000000   1.000000
   22        4.144618      4.731665   1.000000   1.000000
   23        4.702580      4.980453   1.000000   1.000000
   24        4.841514      5.217884   1.000000   1.000000
   25        5.127686      5.408199   1.000000   1.000000
   26        5.172034      5.589001   1.000000   1.000000
   27        5.379020      5.651716   1.000000   1.000000
   28        5.617828      5.925938   1.000000   1.000000
   29        5.871595      6.235549   1.000000   1.000000
   30        6.035204      6.516554   1.000000   1.000000
   31        6.343031     11.035576   1.000000   0.000000
   32        7.118401     11.167128   1.000000   0.000000
   33       11.048526     11.180719   0.000000   0.000000
   34       11.177846     11.303094   0.000000   0.000000
   35       11.333688     11.529576   0.000000   0.000000
   36       11.521012     11.576786   0.000000   0.000000
   37       11.564837     11.601029   0.000000   0.000000
   38       11.593745     11.621519   0.000000   0.000000
   39       11.608243     11.691474   0.000000   0.000000
   40       11.668078     11.717638   0.000000   0.000000
   41       11.711795     11.756639   0.000000   0.000000
   42       11.750902     11.771830   0.000000   0.000000
   43       11.770043     11.808495   0.000000   0.000000
   44       11.807653     11.850609   0.000000   0.000000
   45       11.847920     11.995163   0.000000   0.000000
   46       11.976635     12.644801   0.000000   0.000000
   47       12.652834     12.958854   0.000000   0.000000
   48       12.952221     13.332973   0.000000   0.000000

 -0.2857143E+00  0.1428571E+00  0.1232216E-14  0.2040816E-01
    1      -56.885432    -54.724805   1.000000   1.000000
    2      -56.799228    -54.605915   1.000000   1.000000
    3      -56.799033    -54.604971   1.000000   1.000000
    4      -23.468460    -23.469257   1.000000   1.000000
    5      -23.293923    -23.295147   1.000000   1.000000
    6      -10.939440    -10.780036   1.000000   1.000000
    7      -10.324342    -10.191882   1.000000   1.000000
    8       -9.736258     -9.655618   1.000000   1.000000
    9       -9.702522     -9.536611   1.000000   1.000000
   10       -7.200978     -7.202977   1.000000   1.000000
   11       -6.937676     -6.933982   1.000000   1.000000
   12       -6.826585     -6.813365   1.000000   1.000000
   13       -6.505893     -6.462488   1.000000   1.000000
   14       -6.145417     -6.069760   1.000000   1.000000
   15       -6.061644     -6.042168   1.000000   1.000000
   16        0.776045      2.385422   1.000000   1.000000
   17        1.645369      2.910250   1.000000   1.000000
   18        2.199886      3.271877   1.000000   1.000000
   19        2.368088      3.598475   1.000000   1.000000
   20        2.808664      3.883801   1.000000   1.000000
   21        2.886274      4.472382   1.000000   1.000000
   22        4.147457      4.718171   1.000000   1.000000
   23        4.624736      5.086354   1.000000   1.000000
   24        4.932286      5.226755   1.000000   1.000000
   25        5.061990      5.380150   1.000000   1.000000
   26        5.222138      5.505601   1.000000   1.000000
   27        5.272894      5.590421   1.000000   1.000000
   28        5.483266      5.865858   1.000000   1.000000
   29        5.641657      6.122667   1.000000   1.000000
   30        6.099825      6.668520   1.000000   1.000000
   31        6.526106     10.774649   1.000000   0.000000
   32        6.768291     10.970091   1.000000   0.000000
   33       10.768798     11.157663   0.000000   0.000000
   34       10.995559     11.371972   0.000000   0.000000
   35       11.394353     11.520964   0.000000   0.000000
   36       11.483010     11.567193   0.000000   0.000000
   37       11.555377     11.597038   0.000000   0.000000
   38       11.590216     11.613725   0.000000   0.000000
   39       11.608833     11.686831   0.000000   0.000000
   40       11.683254     11.750731   0.000000   0.000000
   41       11.752830     11.767967   0.000000   0.000000
   42       11.763455     11.802881   0.000000   0.000000
   43       11.798827     11.813849   0.000000   0.000000
   44       11.806982     11.915580   0.000000   0.000000
   45       11.912602     12.046921   0.000000   0.000000
   46       12.036626     12.472615   0.000000   0.000000
   47       12.468196     12.612362   0.000000   0.000000
   48       12.600160     12.986583   0.000000   0.000000

 -0.1428571E+00  0.1428571E+00  0.1252230E-14  0.1020408E-01
    1      -56.885522    -54.724887   1.000000   1.000000
    2      -56.799121    -54.605803   1.000000   1.000000
    3      -56.799092    -54.605068   1.000000   1.000000
    4      -23.509710    -23.510349   1.000000   1.000000
    5      -23.299946    -23.301209   1.000000   1.000000
    6      -11.142532    -10.982043   1.000000   1.000000
    7       -9.898090     -9.830360   1.000000   1.000000
    8       -9.853344     -9.531581   1.000000   1.000000
    9       -9.586661     -9.519500   1.000000   1.000000
   10       -7.134527     -7.138634   1.000000   1.000000
   11       -6.885375     -6.888159   1.000000   1.000000
   12       -6.851851     -6.819388   1.000000   1.000000
   13       -6.741465     -6.734302   1.000000   1.000000
   14       -6.167250     -6.154946   1.000000   1.000000
   15       -5.968043     -5.864766   1.000000   1.000000
   16        1.600798      2.714593   1.000000   1.000000
   17        1.660006      3.191793   1.000000   1.000000
   18        2.412475      3.574549   1.000000   1.000000
   19        2.644088      3.658164   1.000000   1.000000
   20        2.858117      3.769064   1.000000   1.000000
   21        3.043624      4.424890   1.000000   1.000000
   22        3.952149      4.566825   1.000000   1.000000
   23        4.198287      5.014921   1.000000   1.000000
   24        4.785558      5.414944   1.000000   1.000000
   25        5.153658      5.420325   1.000000   1.000000
   26        5.319006      5.459653   1.000000   1.000000
   27        5.324659      5.534399   1.000000   1.000000
   28        5.426071      5.740234   1.000000   1.000000
   29        5.555591      6.247895   1.000000   1.000000
   30        5.851069      6.735912   1.000000   1.000000
   31        6.462064     10.386963   1.000000   0.000000
   32        6.622838     10.921617   1.000000   0.000000
   33       10.378198     11.122615   0.000000   0.000000
   34       10.942954     11.293564   0.000000   0.000000
   35       11.305998     11.474870   0.000000   0.000000
   36       11.448040     11.566686   0.000000   0.000000
   37       11.561516     11.579597   0.000000   0.000000
   38       11.567410     11.609855   0.000000   0.000000
   39       11.597008     11.730350   0.000000   0.000000
   40       11.728381     11.752521   0.000000   0.000000
   41       11.753093     11.787521   0.000000   0.000000
   42       11.787240     11.811041   0.000000   0.000000
   43       11.808097     11.867747   0.000000   0.000000
   44       11.854697     11.967364   0.000000   0.000000
   45       11.967639     12.099801   0.000000   0.000000
   46       12.096082     12.140385   0.000000   0.000000
   47       12.130085     12.236496   0.000000   0.000000
   48       12.230681     12.595983   0.000000   0.000000

  0.2857143E+00  0.2857143E+00  0.1275474E-14  0.1020408E-01
    1      -56.885370    -54.724750   1.000000   1.000000
    2      -56.799298    -54.605944   1.000000   1.000000
    3      -56.799228    -54.605206   1.000000   1.000000
    4      -23.414997    -23.415978   1.000000   1.000000
    5      -23.302819    -23.303960   1.000000   1.000000
    6      -10.924353    -10.799941   1.000000   1.000000
    7      -10.197124     -9.988049   1.000000   1.000000
    8       -9.940470     -9.888949   1.000000   1.000000
    9       -9.442992     -9.337842   1.000000   1.000000
   10       -7.298317     -7.297007   1.000000   1.000000
   11       -7.277867     -7.277699   1.000000   1.000000
   12       -6.933888     -6.921584   1.000000   1.000000
   13       -6.734456     -6.684992   1.000000   1.000000
   14       -6.107257     -6.070114   1.000000   1.000000
   15       -5.934944     -5.907060   1.000000   1.000000
   16        0.642538      2.136754   1.000000   1.000000
   17        0.989425      2.807591   1.000000   1.000000
   18        2.175013      3.138145   1.000000   1.000000
   19        2.437383      3.344765   1.000000   1.000000
   20        2.572424      4.112706   1.000000   1.000000
   21        2.616714      4.603914   1.000000   1.000000
   22        4.341541      4.832987   1.000000   1.000000