 vasp.6.2.1 16May21 (build Aug 15 2022 14:47:30) complex                         
 executed on             LinuxGNU date 2025.12.04  19:33:01
 running on   48 total cores
 distrk:  each k-point on   48 cores,    1 groups
 distr:  one band on NCORE=   1 cores,   48 groups


--------------------------------------------------------------------------------------------------------


 INCAR:
   ALGO = Fast
   EDIFF = 0.00035
   ENCUT = 520.0
   ISMEAR = -5
   ISPIN = 2
   LASPH = True
   LCHARG = True
   LDAU = True
   LDAUJ = 0 0 0
   LDAUL = 0 2 0
   LDAUPRINT = 1
   LDAUTYPE = 2
   LDAUU = 0 6.2 0
   LMAXMIX = 6
   LORBIT = 11
   LREAL = False
   LWAVE = False
   MAGMOM = 2*0.6 1*5.0 4*0.6
   NELM = 100
   NSW = 0
   PREC = Accurate
   SIGMA = 0.05

 POTCAR:    PAW_PBE La 06Sep2000                  
 POTCAR:    PAW_PBE Ni_pv 06Sep2000               
 POTCAR:    PAW_PBE O 08Apr2002                   
 -----------------------------------------------------------------------------
|                                                                             |
|           W    W    AA    RRRRR   N    N  II  N    N   GGGG   !!!           |
|           W    W   A  A   R    R  NN   N  II  NN   N  G    G  !!!           |
|           W    W  A    A  R    R  N N  N  II  N N  N  G       !!!           |
|           W WW W  AAAAAA  RRRRR   N  N N  II  N  N N  G  GGG   !            |
|           WW  WW  A    A  R   R   N   NN  II  N   NN  G    G                |
|           W    W  A    A  R    R  N    N  II  N    N   GGGG   !!!           |
|                                                                             |
|     For optimal performance we recommend to set                             |
|       NCORE = 2 up to number-of-cores-per-socket                            |
|     NCORE specifies how many cores store one orbital (NPAR=cpu/NCORE).      |
|     This setting can greatly improve the performance of VASP for DFT.       |
|     The default, NCORE=1 might be grossly inefficient on modern             |
|     multi-core architectures or massively parallel machines. Do your        |
|     own testing! More info at https://www.vasp.at/wiki/index.php/NCORE      |
|     Unfortunately you need to use the default for GW and RPA                |
|     calculations (for HF NCORE is supported but not extensively tested      |
|     yet).                                                                   |
|                                                                             |
 -----------------------------------------------------------------------------

 POTCAR:    PAW_PBE La 06Sep2000                  
   VRHFIN =La : [core=Kr4d]                                                                         
   LEXCH  = PE                                                                                      
   EATOM  =   865.9763 eV,   63.6475 Ry                                                             
                                                                                                    
   TITEL  = PAW_PBE La 06Sep2000                                                                    
   LULTRA =        F    use ultrasoft PP ?                                                          
   IUNSCR =        1    unscreen: 0-lin 1-nonlin 2-no                                               
   RPACOR =    2.300    partial core radius                                                         
   POMASS =  138.900; ZVAL   =   11.000    mass and valenz                                          
   RCORE  =    2.800    outmost cutoff radius                                                       
   RWIGS  =    2.900; RWIGS  =    1.535    wigner-seitz radius (au A)                               
   ENMAX  =  219.292; ENMIN  =  164.469 eV                                                          
   RCLOC  =    1.601    cutoff for local pot                                                        
   LCOR   =        T    correct aug charges                                                         
   LPAW   =        T    paw PP                                                                      
   EAUG   =  583.575                                                                                
   DEXC   =    0.000                                                                                
   RMAX   =    2.853    core radius for proj-oper                                                   
   RAUG   =    1.300    factor for augmentation sphere                                              
   RDEP   =    2.802    radius for radial grids                                                     
   RDEPT  =    2.156    core radius for aug-charge                                                  
                                                                                                    
   Atomic configuration                                                                             
   14 entries                                                                                       
     n  l   j            E        occ.                                                              
     1  0  0.50    -38741.0879   2.0000                                                             
     2  0  0.50     -6166.6801   2.0000                                                             
     2  1  1.50     -5526.1593   6.0000                                                             
     3  0  0.50     -1319.0200   2.0000                                                             
     3  1  1.50     -1114.5963   6.0000                                                             
     3  2  2.50      -821.1793  10.0000                                                             
     4  0  0.50      -266.3851   2.0000                                                             
     4  1  1.50      -199.9276   6.0000                                                             
     4  2  2.50      -103.8239  10.0000                                                             
     5  0  0.50       -38.9172   2.0000                                                             
     6  0  0.50        -3.6792   2.0000                                                             
     5  1  1.50       -22.3948   6.0000                                                             
     5  2  2.50        -3.0911   0.9999                                                             
     4  3  2.50        -4.3603   0.0001                                                             
   Description                                                                                      
     l       E           TYP  RCUT    TYP  RCUT                                                     
     0    -38.9171645     23  2.800                                                                 
     0     -3.6792381     23  2.800                                                                 
     1    -22.3948300     23  2.500                                                                 
     1     27.2116520     23  2.500                                                                 
     2     -3.0910934     23  2.500                                                                 
     2      1.0119135     23  2.500                                                                 
     3     -4.3602911     23  2.800                                                                 
     3     -5.7208737     23  2.800                                                                 
  local pseudopotential read in
  partial core-charges read in
  partial kinetic energy density read in
  atomic valenz-charges read in
  non local Contribution for L=           0  read in
    real space projection operators read in
  non local Contribution for L=           0  read in
    real space projection operators read in
  non local Contribution for L=           1  read in
    real space projection operators read in
  non local Contribution for L=           1  read in
    real space projection operators read in
  non local Contribution for L=           2  read in
    real space projection operators read in
  non local Contribution for L=           2  read in
    real space projection operators read in
  non local Contribution for L=           3  read in
    real space projection operators read in
  non local Contribution for L=           3  read in
    real space projection operators read in
    PAW grid and wavefunctions read in

   number of l-projection  operators is LMAX  =           8
   number of lm-projection operators is LMMAX =          32

 POTCAR:    PAW_PBE Ni_pv 06Sep2000               
   VRHFIN =Ni:                                                                                      
   LEXCH  = PE                                                                                      
   EATOM  =  3501.1230 eV,  257.3253 Ry                                                             
                                                                                                    
   TITEL  = PAW_PBE Ni_pv 06Sep2000                                                                 
   LULTRA =        F    use ultrasoft PP ?                                                          
   IUNSCR =        1    unscreen: 0-lin 1-nonlin 2-no                                               
   RPACOR =    1.500    partial core radius                                                         
   POMASS =   58.690; ZVAL   =   16.000    mass and valenz                                          
   RCORE  =    2.000    outmost cutoff radius                                                       
   RWIGS  =    2.000; RWIGS  =    1.058    wigner-seitz radius (au A)                               
   ENMAX  =  367.986; ENMIN  =  275.989 eV                                                          
   RCLOC  =    1.301    cutoff for local pot                                                        
   LCOR   =        T    correct aug charges                                                         
   LPAW   =        T    paw PP                                                                      
   EAUG   =  703.443                                                                                
   DEXC   =    0.000                                                                                
   RMAX   =    2.041    core radius for proj-oper                                                   
   RAUG   =    1.300    factor for augmentation sphere                                              
   RDEP   =    2.103    radius for radial grids                                                     
   RDEPT  =    1.618    core radius for aug-charge                                                  
                                                                                                    
   Atomic configuration                                                                             
    8 entries                                                                                       
     n  l   j            E        occ.                                                              
     1  0  0.50     -8206.4253   2.0000                                                             
     2  0  0.50      -976.1748   2.0000                                                             
     2  1  1.50      -839.0571   6.0000                                                             
     3  0  0.50      -105.9991   2.0000                                                             
     3  1  1.50       -66.4603   6.0000                                                             
     3  2  2.50        -4.6458   9.0000                                                             
     4  0  0.50        -4.4926   1.0000                                                             
     4  3  2.50        -1.3606   0.0000                                                             
   Description                                                                                      
     l       E           TYP  RCUT    TYP  RCUT                                                     
     1    -66.4602962     23  1.700                                                                 
     1     -1.3605826     23  1.700                                                                 
     2     -4.6457867     23  2.000                                                                 
     2     -6.0063693     23  2.000                                                                 
     0     -4.4925576     23  1.900                                                                 
     0     16.3626226     23  1.900                                                                 
  local pseudopotential read in
  partial core-charges read in
  partial kinetic energy density read in
  atomic valenz-charges read in
  non local Contribution for L=           1  read in
    real space projection operators read in
  non local Contribution for L=           1  read in
    real space projection operators read in
  non local Contribution for L=           2  read in
    real space projection operators read in
  non local Contribution for L=           2  read in
    real space projection operators read in
  non local Contribution for L=           0  read in
    real space projection operators read in
  non local Contribution for L=           0  read in
    real space projection operators read in
    PAW grid and wavefunctions read in

   number of l-projection  operators is LMAX  =           6
   number of lm-projection operators is LMMAX =          18

 POTCAR:    PAW_PBE O 08Apr2002                   
   VRHFIN =O: s2p4                                                                                  
   LEXCH  = PE                                                                                      
   EATOM  =   432.3788 eV,   31.7789 Ry                                                             
                                                                                                    
   TITEL  = PAW_PBE O 08Apr2002                                                                     
   LULTRA =        F    use ultrasoft PP ?                                                          
   IUNSCR =        1    unscreen: 0-lin 1-nonlin 2-no                                               
   RPACOR =    1.200    partial core radius                                                         
   POMASS =   16.000; ZVAL   =    6.000    mass and valenz                                          
   RCORE  =    1.520    outmost cutoff radius                                                       
   RWIGS  =    1.550; RWIGS  =    0.820    wigner-seitz radius (au A)                               
   ENMAX  =  400.000; ENMIN  =  300.000 eV                                                          
   ICORE  =        2    local potential                                                             
   LCOR   =        T    correct aug charges                                                         
   LPAW   =        T    paw PP                                                                      
   EAUG   =  605.392                                                                                
   DEXC   =    0.000                                                                                
   RMAX   =    1.553    core radius for proj-oper                                                   
   RAUG   =    1.300    factor for augmentation sphere                                              
   RDEP   =    1.550    radius for radial grids                                                     
   RDEPT  =    1.329    core radius for aug-charge                                                  
                                                                                                    
   Atomic configuration                                                                             
    4 entries                                                                                       
     n  l   j            E        occ.                                                              
     1  0  0.50      -514.6923   2.0000                                                             
     2  0  0.50       -23.9615   2.0000                                                             
     2  1  0.50        -9.0305   4.0000                                                             
     3  2  1.50        -9.5241   0.0000                                                             
   Description                                                                                      
     l       E           TYP  RCUT    TYP  RCUT                                                     
     0    -23.9615318     23  1.200                                                                 
     0     -9.5240782     23  1.200                                                                 
     1     -9.0304911     23  1.520                                                                 
     1      8.1634956     23  1.520                                                                 
     2     -9.5240782      7  1.500                                                                 
  local pseudopotential read in
  partial core-charges read in
  partial kinetic energy density read in
  kinetic energy density of atom read in
  atomic valenz-charges read in
  non local Contribution for L=           0  read in
    real space projection operators read in
  non local Contribution for L=           0  read in
    real space projection operators read in
  non local Contribution for L=           1  read in
    real space projection operators read in
  non local Contribution for L=           1  read in
    real space projection operators read in
    PAW grid and wavefunctions read in

   number of l-projection  operators is LMAX  =           4
   number of lm-projection operators is LMMAX =           8

  PAW_PBE La 06Sep2000                  :
 energy of atom  1       EATOM= -865.9763
 kinetic energy error for atom=    0.0009 (will be added to EATOM!!)
  PAW_PBE Ni_pv 06Sep2000               :
 energy of atom  2       EATOM=-3501.1230
 kinetic energy error for atom=    0.0575 (will be added to EATOM!!)
  PAW_PBE O 08Apr2002                   :
 energy of atom  3       EATOM= -432.3788
 kinetic energy error for atom=    0.0208 (will be added to EATOM!!)


 POSCAR: # Generated by Masgent for EOS calculati
  positions in direct lattice
  No initial velocities read in
 exchange correlation table for  LEXCH =        8
   RHO(1)=    0.500       N(1)  =     2000
   RHO(2)=  100.500       N(2)  =     4000

 VTST: version 4.2, (08/11/21)

 CHAIN: initializing optimizer
 
 OPT: Using VASP Dynamics algorithm
 CHAIN: Read ICHAIN            0

 POSCAR: # Generated by Masgent for EOS calculati
  positions in direct lattice
  No initial velocities read in



--------------------------------------------------------------------------------------------------------


 ion  position               nearest neighbor table
   1  0.363  0.363  0.727-   4 2.29   6 2.58   7 2.58   6 2.58   7 2.58   5 2.81   5 2.81   5 2.81
                             5 2.81   2 3.40
   2  0.637  0.637  0.273-   5 2.29   6 2.58   7 2.58   6 2.58   7 2.58   4 2.81   4 2.81   4 2.81
                             4 2.81   1 3.40
   3  0.000  0.000  0.000-   6 1.95   7 1.95   7 1.95   6 1.95   4 2.23   5 2.23
   4  0.179  0.179  0.358-   3 2.23   1 2.29   2 2.81   2 2.81   2 2.81   2 2.81
   5  0.821  0.821  0.642-   3 2.23   2 2.29   1 2.81   1 2.81   1 2.81   1 2.81
   6  0.500  0.000  0.000-   3 1.95   3 1.95   1 2.58   2 2.58   1 2.58   2 2.58
   7  0.000  0.500  0.000-   3 1.95   3 1.95   1 2.58   2 2.58   2 2.58   1 2.58

  LATTYP: Found a body centered tetragonal cell.
 ALAT       =     3.8977530320
 C/A-ratio  =     3.1906429261
  
  Lattice vectors:
  
 A1 = (   1.9488765160,  -1.9488765160,  -6.2181690696)
 A2 = (  -1.9488765160,   1.9488765160,  -6.2181690696)
 A3 = (   1.9488765160,   1.9488765160,   6.2181690696)


Analysis of symmetry for initial positions (statically):
=====================================================================
 Subroutine PRICEL returns:
 Original cell was already a primitive cell.
 

 Routine SETGRP: Setting up the symmetry group for a 
 body centered tetragonal supercell.


 Subroutine GETGRP returns: Found 16 space group operations
 (whereof 16 operations were pure point group operations)
 out of a pool of 16 trial point group operations.


The static configuration has the point symmetry D_4h.


Analysis of symmetry for dynamics (positions and initial velocities):
=====================================================================
 Subroutine PRICEL returns:
 Original cell was already a primitive cell.
 

 Routine SETGRP: Setting up the symmetry group for a 
 body centered tetragonal supercell.


 Subroutine GETGRP returns: Found 16 space group operations
 (whereof 16 operations were pure point group operations)
 out of a pool of 16 trial point group operations.


The dynamic configuration has the point symmetry D_4h.


Analysis of structural, dynamic, and magnetic symmetry:
=====================================================================
 Subroutine PRICEL returns:
 Original cell was already a primitive cell.
 

 Routine SETGRP: Setting up the symmetry group for a 
 body centered tetragonal supercell.


 Subroutine GETGRP returns: Found 16 space group operations
 (whereof 16 operations were pure point group operations)
 out of a pool of 16 trial point group operations.


The overall configuration has the point symmetry D_4h.


 Subroutine INISYM returns: Found 16 space group operations
 (whereof 16 operations are pure point group operations),
 and found     1 'primitive' translations


----------------------------------------------------------------------------------------

                                     Primitive cell                                     

  volume of cell :      94.4694

  direct lattice vectors                    reciprocal lattice vectors
     3.897753032  0.000000000  0.000000000     0.256558071 -0.000000000  0.080409522
     0.000000000  3.897753032  0.000000000    -0.000000000  0.256558071  0.080409522
    -1.948876516 -1.948876516  6.218169070     0.000000000  0.000000000  0.160819043

  length of vectors
     3.897753032  3.897753032  6.801607599     0.268863785  0.268863785  0.160819043

  position of ions in fractional coordinates (direct lattice)
     0.363473000  0.363473000  0.726946000
     0.636527000  0.636527000  0.273054000
     0.000000000  0.000000000  0.000000000
     0.178993000  0.178993000  0.357986000
     0.821007000  0.821007000  0.642014000
     0.500000000  0.000000000  0.000000000
     0.000000000  0.500000000  0.000000000

  ion indices of the primitive-cell ions
   primitive index   ion index
                 1           1
                 2           2
                 3           3
                 4           4
                 5           5
                 6           6
                 7           7

----------------------------------------------------------------------------------------



 KPOINTS: # Generated by Masgent for EOS calculati

Automatic generation of k-mesh.
 Grid dimensions read from file:
 generate k-points for:    7    7    4

 Generating k-lattice:

  Cartesian coordinates                     Fractional coordinates (reciprocal lattice)
     0.036651153 -0.000000000  0.011487075     0.142857143  0.000000000 -0.000000000
    -0.000000000  0.036651153  0.011487075     0.000000000  0.142857143 -0.000000000
     0.000000000  0.000000000  0.040204761     0.000000000  0.000000000  0.250000000

  Length of vectors
     0.038409112  0.038409112  0.040204761

  Shift w.r.t. Gamma in fractional coordinates (k-lattice)
     0.000000000  0.000000000  0.000000000

 -----------------------------------------------------------------------------
|                                                                             |
|           W    W    AA    RRRRR   N    N  II  N    N   GGGG   !!!           |
|           W    W   A  A   R    R  NN   N  II  NN   N  G    G  !!!           |
|           W    W  A    A  R    R  N N  N  II  N N  N  G       !!!           |
|           W WW W  AAAAAA  RRRRR   N  N N  II  N  N N  G  GGG   !            |
|           WW  WW  A    A  R   R   N   NN  II  N   NN  G    G                |
|           W    W  A    A  R    R  N    N  II  N    N   GGGG   !!!           |
|                                                                             |
|     Your reciprocal lattice and k-lattice belong to different lattice       |
|     classes:                                                                |
|                                                                             |
|        The reciprocal lattice is body-centered tetragonal,                  |
|        whereas your k-lattice is base-centered monoclinic.                  |
|                                                                             |
|     Results are often still useful ...                                      |
|                                                                             |
 -----------------------------------------------------------------------------

 WARNING: IBZKPT: internal override: KBLOWUP is changed to .FALSE.
      ... skipping the blow-up phase ...

 TETIRR: Found    294 inequivalent tetrahedra from     1176
 
 Subroutine IBZKPT returns following result:
 ===========================================
 
 Found     60 irreducible k-points:
 
 Following reciprocal coordinates:
            Coordinates               Weight
  0.000000  0.000000  0.000000      1.000000
  0.142857  0.000000  0.000000      4.000000
  0.285714  0.000000  0.000000      4.000000
  0.428571  0.000000  0.000000      4.000000
  0.142857  0.142857  0.000000      2.000000
  0.285714  0.142857  0.000000      4.000000
  0.428571  0.142857  0.000000      4.000000
 -0.428571  0.142857  0.000000      4.000000
 -0.285714  0.142857  0.000000      4.000000
 -0.142857  0.142857  0.000000      2.000000
  0.285714  0.285714  0.000000      2.000000
  0.428571  0.285714  0.000000      4.000000
 -0.428571  0.285714  0.000000      4.000000
 -0.285714  0.285714  0.000000      2.000000
  0.428571  0.428571  0.000000      2.000000
 -0.428571  0.428571  0.000000      2.000000
  0.000000  0.000000  0.250000      2.000000
  0.142857  0.000000  0.250000      4.000000
  0.285714  0.000000  0.250000      4.000000
  0.428571  0.000000  0.250000      4.000000
 -0.428571  0.000000  0.250000      4.000000
 -0.285714  0.000000  0.250000      4.000000
 -0.142857  0.000000  0.250000      4.000000
  0.142857  0.142857  0.250000      2.000000
  0.285714  0.142857  0.250000      4.000000
  0.428571  0.142857  0.250000      4.000000
 -0.428571  0.142857  0.250000      4.000000
 -0.285714  0.142857  0.250000      4.000000
 -0.142857  0.142857  0.250000      4.000000
  0.285714  0.285714  0.250000      2.000000
  0.428571  0.285714  0.250000      4.000000
 -0.428571  0.285714  0.250000      4.000000
 -0.285714  0.285714  0.250000      4.000000
 -0.142857  0.285714  0.250000      4.000000
  0.428571  0.428571  0.250000      2.000000
 -0.428571  0.428571  0.250000      4.000000
 -0.285714  0.428571  0.250000      4.000000
 -0.142857  0.428571  0.250000      4.000000
 -0.428571 -0.428571  0.250000      2.000000
 -0.285714 -0.428571  0.250000      4.000000
 -0.142857 -0.428571  0.250000      4.000000
 -0.285714 -0.285714  0.250000      2.000000
 -0.142857 -0.285714  0.250000      4.000000
 -0.142857 -0.142857  0.250000      2.000000
  0.000000  0.000000  0.500000      1.000000
  0.142857  0.000000  0.500000      4.000000
  0.285714  0.000000  0.500000      4.000000
  0.428571  0.000000  0.500000      4.000000
  0.142857  0.142857  0.500000      2.000000
  0.285714  0.142857  0.500000      4.000000
  0.428571  0.142857  0.500000      4.000000
 -0.428571  0.142857  0.500000      4.000000
 -0.285714  0.142857  0.500000      4.000000
 -0.142857  0.142857  0.500000      2.000000
  0.285714  0.285714  0.500000      2.000000
  0.428571  0.285714  0.500000      4.000000
 -0.428571  0.285714  0.500000      4.000000
 -0.285714  0.285714  0.500000      2.000000
  0.428571  0.428571  0.500000      2.000000
 -0.428571  0.428571  0.500000      2.000000
 
 Following cartesian coordinates:
            Coordinates               Weight
  0.000000  0.000000  0.000000      1.000000
  0.036651  0.000000  0.011487      4.000000
  0.073302  0.000000  0.022974      4.000000
  0.109953  0.000000  0.034461      4.000000
  0.036651  0.036651  0.022974      2.000000
  0.073302  0.036651  0.034461      4.000000
  0.109953  0.036651  0.045948      4.000000
 -0.109953  0.036651 -0.022974      4.000000
 -0.073302  0.036651 -0.011487      4.000000
 -0.036651  0.036651  0.000000      2.000000
  0.073302  0.073302  0.045948      2.000000
  0.109953  0.073302  0.057435      4.000000
 -0.109953  0.073302 -0.011487      4.000000
 -0.073302  0.073302  0.000000      2.000000
  0.109953  0.109953  0.068922      2.000000
 -0.109953  0.109953  0.000000      2.000000
  0.000000  0.000000  0.040205      2.000000
  0.036651  0.000000  0.051692      4.000000
  0.073302  0.000000  0.063179      4.000000
  0.109953  0.000000  0.074666      4.000000
 -0.109953  0.000000  0.005744      4.000000
 -0.073302  0.000000  0.017231      4.000000
 -0.036651  0.000000  0.028718      4.000000
  0.036651  0.036651  0.063179      2.000000
  0.073302  0.036651  0.074666      4.000000
  0.109953  0.036651  0.086153      4.000000
 -0.109953  0.036651  0.017231      4.000000
 -0.073302  0.036651  0.028718      4.000000
 -0.036651  0.036651  0.040205      4.000000
  0.073302  0.073302  0.086153      2.000000
  0.109953  0.073302  0.097640      4.000000
 -0.109953  0.073302  0.028718      4.000000
 -0.073302  0.073302  0.040205      4.000000
 -0.036651  0.073302  0.051692      4.000000
  0.109953  0.109953  0.109127      2.000000
 -0.109953  0.109953  0.040205      4.000000
 -0.073302  0.109953  0.051692      4.000000
 -0.036651  0.109953  0.063179      4.000000
 -0.109953 -0.109953 -0.028718      2.000000
 -0.073302 -0.109953 -0.017231      4.000000
 -0.036651 -0.109953 -0.005744      4.000000
 -0.073302 -0.073302 -0.005744      2.000000
 -0.036651 -0.073302  0.005744      4.000000
 -0.036651 -0.036651  0.017231      2.000000
  0.000000  0.000000  0.080410      1.000000
  0.036651  0.000000  0.091897      4.000000
  0.073302  0.000000  0.103384      4.000000
  0.109953  0.000000  0.114871      4.000000
  0.036651  0.036651  0.103384      2.000000
  0.073302  0.036651  0.114871      4.000000
  0.109953  0.036651  0.126358      4.000000
 -0.109953  0.036651  0.057435      4.000000
 -0.073302  0.036651  0.068922      4.000000
 -0.036651  0.036651  0.080410      2.000000
  0.073302  0.073302  0.126358      2.000000
  0.109953  0.073302  0.137845      4.000000
 -0.109953  0.073302  0.068922      4.000000
 -0.073302  0.073302  0.080410      2.000000
  0.109953  0.109953  0.149332      2.000000
 -0.109953  0.109953  0.080410      2.000000
 


--------------------------------------------------------------------------------------------------------




 Dimension of arrays:
   k-points           NKPTS =     60   k-points in BZ     NKDIM =     60   number of bands    NBANDS=     48
   number of dos      NEDOS =    301   number of ions     NIONS =      7
   non local maximal  LDIM  =      8   non local SUM 2l+1 LMDIM =     32
   total plane-waves  NPLWV =  48600
   max r-space proj   IRMAX =      1   max aug-charges    IRDMAX=  27078
   dimension x,y,z NGX =    30 NGY =   30 NGZ =   54
   dimension x,y,z NGXF=    60 NGYF=   60 NGZF=  108
   support grid    NGXF=    60 NGYF=   60 NGZF=  108
   ions per type =               2   1   4
   NGX,Y,Z   is equivalent  to a cutoff of  12.80, 12.80, 13.20 a.u.
   NGXF,Y,Z  is equivalent  to a cutoff of  25.59, 25.59, 26.40 a.u.

 SYSTEM =  unknown system                          
 POSCAR =  # Generated by Masgent for EOS calculati

 Startparameter for this run:
   NWRITE =      2    write-flag & timer
   PREC   = accura    normal or accurate (medium, high low for compatibility)
   ISTART =      0    job   : 0-new  1-cont  2-samecut
   ICHARG =      2    charge: 1-file 2-atom 10-const
   ISPIN  =      2    spin polarized calculation?
   LNONCOLLINEAR =      F non collinear calculations
   LSORBIT =      F    spin-orbit coupling
   INIWAV =      1    electr: 0-lowe 1-rand  2-diag
   LASPH  =      T    aspherical Exc in radial PAW
 Electronic Relaxation 1
   ENCUT  =  520.0 eV  38.22 Ry    6.18 a.u.   7.25  7.25 12.65*2*pi/ulx,y,z
   ENINI  =  520.0     initial cutoff
   ENAUG  =  703.4 eV  augmentation charge cutoff
   NELM   =    100;   NELMIN=  2; NELMDL= -5     # of ELM steps 
   EDIFF  = 0.3E-03   stopping-criterion for ELM
   LREAL  =      F    real-space projection
   NLSPLINE    = F    spline interpolate recip. space projectors
   LCOMPAT=      F    compatible to vasp.4.4
   GGA_COMPAT  = T    GGA compatible to vasp.4.4-vasp.4.6
   LMAXPAW     = -100 max onsite density
   LMAXMIX     =    6 max onsite mixed and CHGCAR
   VOSKOWN=      0    Vosko Wilk Nusair interpolation
   ROPT   =    0.00000   0.00000   0.00000
 Ionic relaxation
   EDIFFG = 0.4E-02   stopping-criterion for IOM
   NSW    =      0    number of steps for IOM
   NBLOCK =      1;   KBLOCK =      1    inner block; outer block 
   IBRION =     -1    ionic relax: 0-MD 1-quasi-New 2-CG
   NFREE  =      0    steps in history (QN), initial steepest desc. (CG)
   ISIF   =      2    stress and relaxation
   IWAVPR =     10    prediction:  0-non 1-charg 2-wave 3-comb
   ISYM   =      2    0-nonsym 1-usesym 2-fastsym
   LCORR  =      T    Harris-Foulkes like correction to forces

   POTIM  = 0.5000    time-step for ionic-motion
   TEIN   =    0.0    initial temperature
   TEBEG  =    0.0;   TEEND  =   0.0 temperature during run
   SMASS  =  -3.00    Nose mass-parameter (am)
   estimated Nose-frequenzy (Omega)   =  0.10E-29 period in steps = 0.13E+47 mass=  -0.347E-27a.u.
   SCALEE = 1.0000    scale energy and forces
   NPACO  =    256;   APACO  = 16.0  distance and # of slots for P.C.
   PSTRESS=    0.0 pullay stress

  Mass of Ions in am
   POMASS = 138.90 58.69 16.00
  Ionic Valenz
   ZVAL   =  11.00 16.00  6.00
  Atomic Wigner-Seitz radii
   RWIGS  =  -1.00 -1.00 -1.00
  virtual crystal weights 
   VCA    =   1.00  1.00  1.00
   NELECT =      62.0000    total number of electrons
   NUPDOWN=      -1.0000    fix difference up-down

 DOS related values:
   EMIN   =  10.00;   EMAX   =-10.00  energy-range for DOS
   EFERMI =   0.00
   ISMEAR =    -5;   SIGMA  =   0.05  broadening in eV -4-tet -1-fermi 0-gaus

 Electronic relaxation 2 (details)
   IALGO  =     68    algorithm
   LDIAG  =      T    sub-space diagonalisation (order eigenvalues)
   LSUBROT=      F    optimize rotation matrix (better conditioning)
   TURBO    =      0    0=normal 1=particle mesh
   IRESTART =      0    0=no restart 2=restart with 2 vectors
   NREBOOT  =      0    no. of reboots
   NMIN     =      0    reboot dimension
   EREF     =   0.00    reference energy to select bands
   IMIX   =      4    mixing-type and parameters
     AMIX     =   0.40;   BMIX     =  1.00
     AMIX_MAG =   1.60;   BMIX_MAG =  1.00
     AMIN     =   0.10
     WC   =   100.;   INIMIX=   1;  MIXPRE=   1;  MAXMIX= -45

 Intra band minimization:
   WEIMIN = 0.0000     energy-eigenvalue tresh-hold
   EBREAK =  0.18E-05  absolut break condition
   DEPER  =   0.30     relativ break condition  

   TIME   =   0.40     timestep for ELM

  volume/ion in A,a.u.               =      13.50        91.07
  Fermi-wavevector in a.u.,A,eV,Ry     =   1.422684  2.688482 27.538583  2.024029
  Thomas-Fermi vector in A             =   2.543361

 Write flags
   LWAVE        =      F    write WAVECAR
   LDOWNSAMPLE  =      F    k-point downsampling of WAVECAR
   LCHARG       =      T    write CHGCAR
   LVTOT        =      F    write LOCPOT, total local potential
   LVHAR        =      F    write LOCPOT, Hartree potential only
   LELF         =      F    write electronic localiz. function (ELF)
   LORBIT       =     11    0 simple, 1 ext, 2 COOP (PROOUT), +10 PAW based schemes


 Dipole corrections
   LMONO  =      F    monopole corrections only (constant potential shift)
   LDIPOL =      F    correct potential (dipole corrections)
   IDIPOL =      0    1-x, 2-y, 3-z, 4-all directions 
   EPSILON=  1.0000000 bulk dielectric constant

 LDA+U is selected, type is set to LDAUTYPE =  2
   angular momentum for each species LDAUL =     0    2    0
   U (eV)           for each species LDAUU =   0.0  6.2  0.0
   J (eV)           for each species LDAUJ =   0.0  0.0  0.0
 Exchange correlation treatment:
   GGA     =    --    GGA type
   LEXCH   =     8    internal setting for exchange type
   VOSKOWN=      0    Vosko Wilk Nusair interpolation
   LHFCALC =     F    Hartree Fock is set to
   LHFONE  =     F    Hartree Fock one center treatment
   AEXX    =    0.0000 exact exchange contribution

 Linear response parameters
   LEPSILON=     F    determine dielectric tensor
   LRPA    =     F    only Hartree local field effects (RPA)
   LNABLA  =     F    use nabla operator in PAW spheres
   LVEL    =     F    velocity operator in full k-point grid
   LINTERFAST=   F  fast interpolation
   KINTER  =     0    interpolate to denser k-point grid
   CSHIFT  =0.1000    complex shift for real part using Kramers Kronig
   OMEGAMAX=  -1.0    maximum frequency
   DEG_THRESHOLD= 0.2000000E-02 threshold for treating states as degnerate
   RTIME   =   -0.100 relaxation time in fs
  (WPLASMAI=    0.000 imaginary part of plasma frequency in eV, 0.658/RTIME)
   DFIELD  = 0.0000000 0.0000000 0.0000000 field for delta impulse in time

 Orbital magnetization related:
   ORBITALMAG=     F  switch on orbital magnetization
   LCHIMAG   =     F  perturbation theory with respect to B field
   DQ        =  0.001000  dq finite difference perturbation B field
   LLRAUG    =     F  two centre corrections for induced B field



--------------------------------------------------------------------------------------------------------


 Static calculation
 charge density and potential will be updated during run
 spin polarized calculation
 RMM-DIIS sequential band-by-band and
  variant of blocked Davidson during initial phase
 perform sub-space diagonalisation
    before iterative eigenvector-optimisation
 modified Broyden-mixing scheme, WC =      100.0
 initial mixing is a Kerker type mixing with AMIX =  0.4000 and BMIX =      1.0000
 Hartree-type preconditioning will be used
 using additional bands           17
 reciprocal scheme for non local part
 use partial core corrections
 calculate Harris-corrections to forces   (improved forces if not selfconsistent)
 use gradient corrections 
 use of overlap-Matrix (Vanderbilt PP)
 Fermi weights with tetrahedron method with Bloechl corrections


--------------------------------------------------------------------------------------------------------


  energy-cutoff  :      520.00
  volume of cell :       94.47
      direct lattice vectors                 reciprocal lattice vectors
     3.897753032  0.000000000  0.000000000     0.256558071 -0.000000000  0.080409522
     0.000000000  3.897753032  0.000000000    -0.000000000  0.256558071  0.080409522
    -1.948876516 -1.948876516  6.218169070     0.000000000  0.000000000  0.160819043

  length of vectors
     3.897753032  3.897753032  6.801607599     0.268863785  0.268863785  0.160819043



 k-points in units of 2pi/SCALE and weight: # Generated by Masgent for EOS calculati
   0.00000000  0.00000000  0.00000000       0.005
   0.03665115  0.00000000  0.01148707       0.020
   0.07330231  0.00000000  0.02297415       0.020
   0.10995346  0.00000000  0.03446122       0.020
   0.03665115  0.03665115  0.02297415       0.010
   0.07330231  0.03665115  0.03446122       0.020
   0.10995346  0.03665115  0.04594830       0.020
  -0.10995346  0.03665115 -0.02297415       0.020
  -0.07330231  0.03665115 -0.01148707       0.020
  -0.03665115  0.03665115  0.00000000       0.010
   0.07330231  0.07330231  0.04594830       0.010
   0.10995346  0.07330231  0.05743537       0.020
  -0.10995346  0.07330231 -0.01148707       0.020
  -0.07330231  0.07330231  0.00000000       0.010
   0.10995346  0.10995346  0.06892245       0.010
  -0.10995346  0.10995346  0.00000000       0.010
   0.00000000  0.00000000  0.04020476       0.010
   0.03665115  0.00000000  0.05169184       0.020
   0.07330231  0.00000000  0.06317891       0.020
   0.10995346  0.00000000  0.07466598       0.020
  -0.10995346  0.00000000  0.00574354       0.020
  -0.07330231  0.00000000  0.01723061       0.020
  -0.03665115  0.00000000  0.02871769       0.020
   0.03665115  0.03665115  0.06317891       0.010
   0.07330231  0.03665115  0.07466598       0.020
   0.10995346  0.03665115  0.08615306       0.020
  -0.10995346  0.03665115  0.01723061       0.020
  -0.07330231  0.03665115  0.02871769       0.020
  -0.03665115  0.03665115  0.04020476       0.020
   0.07330231  0.07330231  0.08615306       0.010
   0.10995346  0.07330231  0.09764013       0.020
  -0.10995346  0.07330231  0.02871769       0.020
  -0.07330231  0.07330231  0.04020476       0.020
  -0.03665115  0.07330231  0.05169184       0.020
   0.10995346  0.10995346  0.10912721       0.010
  -0.10995346  0.10995346  0.04020476       0.020
  -0.07330231  0.10995346  0.05169184       0.020
  -0.03665115  0.10995346  0.06317891       0.020
  -0.10995346 -0.10995346 -0.02871769       0.010
  -0.07330231 -0.10995346 -0.01723061       0.020
  -0.03665115 -0.10995346 -0.00574354       0.020
  -0.07330231 -0.07330231 -0.00574354       0.010
  -0.03665115 -0.07330231  0.00574354       0.020
  -0.03665115 -0.03665115  0.01723061       0.010
   0.00000000  0.00000000  0.08040952       0.005
   0.03665115  0.00000000  0.09189660       0.020
   0.07330231  0.00000000  0.10338367       0.020
   0.10995346  0.00000000  0.11487075       0.020
   0.03665115  0.03665115  0.10338367       0.010
   0.07330231  0.03665115  0.11487075       0.020
   0.10995346  0.03665115  0.12635782       0.020
  -0.10995346  0.03665115  0.05743537       0.020
  -0.07330231  0.03665115  0.06892245       0.020
  -0.03665115  0.03665115  0.08040952       0.010
   0.07330231  0.07330231  0.12635782       0.010
   0.10995346  0.07330231  0.13784489       0.020
  -0.10995346  0.07330231  0.06892245       0.020
  -0.07330231  0.07330231  0.08040952       0.010
   0.10995346  0.10995346  0.14933197       0.010
  -0.10995346  0.10995346  0.08040952       0.010

 k-points in reciprocal lattice and weights: # Generated by Masgent for EOS calculati
   0.00000000  0.00000000  0.00000000       0.005
   0.14285714  0.00000000  0.00000000       0.020
   0.28571429  0.00000000  0.00000000       0.020
   0.42857143  0.00000000  0.00000000       0.020
   0.14285714  0.14285714  0.00000000       0.010
   0.28571429  0.14285714  0.00000000       0.020
   0.42857143  0.14285714  0.00000000       0.020
  -0.42857143  0.14285714  0.00000000       0.020
  -0.28571429  0.14285714  0.00000000       0.020
  -0.14285714  0.14285714  0.00000000       0.010
   0.28571429  0.28571429  0.00000000       0.010
   0.42857143  0.28571429  0.00000000       0.020
  -0.42857143  0.28571429  0.00000000       0.020
  -0.28571429  0.28571429  0.00000000       0.010
   0.42857143  0.42857143  0.00000000       0.010
  -0.42857143  0.42857143  0.00000000       0.010
   0.00000000  0.00000000  0.25000000       0.010
   0.14285714  0.00000000  0.25000000       0.020
   0.28571429  0.00000000  0.25000000       0.020
   0.42857143  0.00000000  0.25000000       0.020
  -0.42857143  0.00000000  0.25000000       0.020
  -0.28571429  0.00000000  0.25000000       0.020
  -0.14285714  0.00000000  0.25000000       0.020
   0.14285714  0.14285714  0.25000000       0.010
   0.28571429  0.14285714  0.25000000       0.020
   0.42857143  0.14285714  0.25000000       0.020
  -0.42857143  0.14285714  0.25000000       0.020
  -0.28571429  0.14285714  0.25000000       0.020
  -0.14285714  0.14285714  0.25000000       0.020
   0.28571429  0.28571429  0.25000000       0.010
   0.42857143  0.28571429  0.25000000       0.020
  -0.42857143  0.28571429  0.25000000       0.020
  -0.28571429  0.28571429  0.25000000       0.020
  -0.14285714  0.28571429  0.25000000       0.020
   0.42857143  0.42857143  0.25000000       0.010
  -0.42857143  0.42857143  0.25000000       0.020
  -0.28571429  0.42857143  0.25000000       0.020
  -0.14285714  0.42857143  0.25000000       0.020
  -0.42857143 -0.42857143  0.25000000       0.010
  -0.28571429 -0.42857143  0.25000000       0.020
  -0.14285714 -0.42857143  0.25000000       0.020
  -0.28571429 -0.28571429  0.25000000       0.010
  -0.14285714 -0.28571429  0.25000000       0.020
  -0.14285714 -0.14285714  0.25000000       0.010
   0.00000000  0.00000000  0.50000000       0.005
   0.14285714  0.00000000  0.50000000       0.020
   0.28571429  0.00000000  0.50000000       0.020
   0.42857143  0.00000000  0.50000000       0.020
   0.14285714  0.14285714  0.50000000       0.010
   0.28571429  0.14285714  0.50000000       0.020
   0.42857143  0.14285714  0.50000000       0.020
  -0.42857143  0.14285714  0.50000000       0.020
  -0.28571429  0.14285714  0.50000000       0.020
  -0.14285714  0.14285714  0.50000000       0.010
   0.28571429  0.28571429  0.50000000       0.010
   0.42857143  0.28571429  0.50000000       0.020
  -0.42857143  0.28571429  0.50000000       0.020
  -0.28571429  0.28571429  0.50000000       0.010
   0.42857143  0.42857143  0.50000000       0.010
  -0.42857143  0.42857143  0.50000000       0.010

 position of ions in fractional coordinates (direct lattice) 
   0.36347300  0.36347300  0.72694600
   0.63652700  0.63652700  0.27305400
   0.00000000  0.00000000  0.00000000
   0.17899300  0.17899300  0.35798600
   0.82100700  0.82100700  0.64201400
   0.50000000  0.00000000  0.00000000
   0.00000000  0.50000000  0.00000000

 position of ions in cartesian coordinates  (Angst):
   0.00000000  0.00000000  4.52027313
   1.94887652  1.94887652  1.69789594
   0.00000000  0.00000000  0.00000000
   0.00000000  0.00000000  2.22601747
   1.94887652  1.94887652  3.99215160
   1.94887652  0.00000000  0.00000000
   0.00000000  1.94887652  0.00000000



--------------------------------------------------------------------------------------------------------


 k-point   1 :   0.0000 0.0000 0.0000  plane waves:    2543
 k-point   2 :   0.1429 0.0000 0.0000  plane waves:    2561
 k-point   3 :   0.2857 0.0000 0.0000  plane waves:    2542
 k-point   4 :   0.4286 0.0000 0.0000  plane waves:    2555
 k-point   5 :   0.1429 0.1429 0.0000  plane waves:    2547
 k-point   6 :   0.2857 0.1429 0.0000  plane waves:    2542
 k-point   7 :   0.4286 0.1429 0.0000  plane waves:    2541
 k-point   8 :  -0.4286 0.1429 0.0000  plane waves:    2547
 k-point   9 :  -0.2857 0.1429 0.0000  plane waves:    2543
 k-point  10 :  -0.1429 0.1429 0.0000  plane waves:    2554
 k-point  11 :   0.2857 0.2857 0.0000  plane waves:    2543
 k-point  12 :   0.4286 0.2857 0.0000  plane waves:    2545
 k-point  13 :  -0.4286 0.2857 0.0000  plane waves:    2540
 k-point  14 :  -0.2857 0.2857 0.0000  plane waves:    2528
 k-point  15 :   0.4286 0.4286 0.0000  plane waves:    2552
 k-point  16 :  -0.4286 0.4286 0.0000  plane waves:    2550
 k-point  17 :   0.0000 0.0000 0.2500  plane waves:    2539
 k-point  18 :   0.1429 0.0000 0.2500  plane waves:    2542
 k-point  19 :   0.2857 0.0000 0.2500  plane waves:    2543
 k-point  20 :   0.4286 0.0000 0.2500  plane waves:    2550
 k-point  21 :  -0.4286 0.0000 0.2500  plane waves:    2548
 k-point  22 :  -0.2857 0.0000 0.2500  plane waves:    2546
 k-point  23 :  -0.1429 0.0000 0.2500  plane waves:    2543
 k-point  24 :   0.1429 0.1429 0.2500  plane waves:    2536
 k-point  25 :   0.2857 0.1429 0.2500  plane waves:    2547
 k-point  26 :   0.4286 0.1429 0.2500  plane waves:    2543
 k-point  27 :  -0.4286 0.1429 0.2500  plane waves:    2544
 k-point  28 :  -0.2857 0.1429 0.2500  plane waves:    2542
 k-point  29 :  -0.1429 0.1429 0.2500  plane waves:    2551
 k-point  30 :   0.2857 0.2857 0.2500  plane waves:    2541
 k-point  31 :   0.4286 0.2857 0.2500  plane waves:    2540
 k-point  32 :  -0.4286 0.2857 0.2500  plane waves:    2545
 k-point  33 :  -0.2857 0.2857 0.2500  plane waves:    2543
 k-point  34 :  -0.1429 0.2857 0.2500  plane waves:    2540
 k-point  35 :   0.4286 0.4286 0.2500  plane waves:    2547
 k-point  36 :  -0.4286 0.4286 0.2500  plane waves:    2550
 k-point  37 :  -0.2857 0.4286 0.2500  plane waves:    2546
 k-point  38 :  -0.1429 0.4286 0.2500  plane waves:    2539
 k-point  39 :  -0.4286-0.4286 0.2500  plane waves:    2543
 k-point  40 :  -0.2857-0.4286 0.2500  plane waves:    2543
 k-point  41 :  -0.1429-0.4286 0.2500  plane waves:    2548
 k-point  42 :  -0.2857-0.2857 0.2500  plane waves:    2531
 k-point  43 :  -0.1429-0.2857 0.2500  plane waves:    2541
 k-point  44 :  -0.1429-0.1429 0.2500  plane waves:    2552
 k-point  45 :   0.0000 0.0000 0.5000  plane waves:    2544
 k-point  46 :   0.1429 0.0000 0.5000  plane waves:    2539
 k-point  47 :   0.2857 0.0000 0.5000  plane waves:    2541
 k-point  48 :   0.4286 0.0000 0.5000  plane waves:    2553
 k-point  49 :   0.1429 0.1429 0.5000  plane waves:    2541
 k-point  50 :   0.2857 0.1429 0.5000  plane waves:    2538
 k-point  51 :   0.4286 0.1429 0.5000  plane waves:    2541
 k-point  52 :  -0.4286 0.1429 0.5000  plane waves:    2539
 k-point  53 :  -0.2857 0.1429 0.5000  plane waves:    2539
 k-point  54 :  -0.1429 0.1429 0.5000  plane waves:    2532
 k-point  55 :   0.2857 0.2857 0.5000  plane waves:    2545
 k-point  56 :   0.4286 0.2857 0.5000  plane waves:    2547
 k-point  57 :  -0.4286 0.2857 0.5000  plane waves:    2543
 k-point  58 :  -0.2857 0.2857 0.5000  plane waves:    2544
 k-point  59 :   0.4286 0.4286 0.5000  plane waves:    2546
 k-point  60 :  -0.4286 0.4286 0.5000  plane waves:    2548

 maximum and minimum number of plane-waves per node :      2561     2528

 maximum number of plane-waves:      2561
 maximum index in each direction: 
   IXMAX=    7   IYMAX=    7   IZMAX=   12
   IXMIN=   -7   IYMIN=   -7   IZMIN=  -13


 serial   3D FFT for wavefunctions
 parallel 3D FFT for charge:
    minimum data exchange during FFTs selected (reduces bandwidth)


 total amount of memory used by VASP MPI-rank0   161352. kBytes
=======================================================================

   base      :      30000. kBytes
   nonl-proj :     119729. kBytes
   fftplans  :        608. kBytes
   grid      :       5074. kBytes
   one-center:        688. kBytes
   wavefun   :       5253. kBytes

     INWAV:  cpu time    0.0000: real time    0.0001
 Broyden mixing: mesh for mixing (old mesh)
   NGX = 15   NGY = 15   NGZ = 25
  (NGX  = 60   NGY  = 60   NGZ  =108)
  gives a total of   5625 points

 initial charge density was supplied:
 charge density of overlapping atoms calculated
 number of electron      62.0000000 magnetization       8.6000000
 keeping initial charge density in first step


--------------------------------------------------------------------------------------------------------


 Maximum index for augmentation-charges          760 (set IRDMAX)


--------------------------------------------------------------------------------------------------------


 First call to EWALD:  gamma=   0.389
 Maximum number of real-space cells 3x 3x 2
 Maximum number of reciprocal cells 2x 2x 4

    FEWALD:  cpu time    0.0008: real time    0.0008


--------------------------------------- Iteration      1(   1)  ---------------------------------------


    POTLOK:  cpu time    0.0243: real time    0.0249
    SETDIJ:  cpu time    0.8894: real time    0.8897
atom =   1  type =  1  l = 0

 onsite density matrix

spin component  1

  1.1588

spin component  2

  1.0390

 occupancies and eigenvectors

  o =  1.0390  v =  0.0000  1.0000      0.0000  0.0000
  o =  1.1588  v =  1.0000  0.0000      0.0000  0.0000

atom =   2  type =  1  l = 0

 onsite density matrix

spin component  1

  1.1588

spin component  2

  1.0390

 occupancies and eigenvectors

  o =  1.0390  v =  0.0000  1.0000      0.0000  0.0000
  o =  1.1588  v =  1.0000  0.0000      0.0000  0.0000

atom =   3  type =  2  l = 2

 onsite density matrix

spin component  1

  1.0776  0.0000  0.0000  0.0000  0.0000
  0.0000  1.0776  0.0000  0.0000  0.0000
  0.0000  0.0000  1.0776  0.0000  0.0000
  0.0000  0.0000  0.0000  1.0776  0.0000
  0.0000  0.0000  0.0000  0.0000  1.0776

spin component  2

  0.5645  0.0000  0.0000  0.0000  0.0000
  0.0000  0.5645  0.0000  0.0000  0.0000
  0.0000  0.0000  0.5645  0.0000  0.0000
  0.0000  0.0000  0.0000  0.5645  0.0000
  0.0000  0.0000  0.0000  0.0000  0.5645

 occupancies and eigenvectors

  o =  0.5645  v =  0.0000  0.0000  0.0000  0.0000  0.0000  0.0000  0.0000  1.0000  0.0000  0.0000      0.0000  0.0000  0.0000  0.0000  0.0000  0.0000  0.0000  0.0000  0.0000  0.0000
  o =  0.5645  v =  0.0000  0.0000  0.0000  0.0000  0.0000  1.0000  0.0000  0.0000  0.0000  0.0000      0.0000  0.0000  0.0000  0.0000  0.0000  0.0000  0.0000  0.0000  0.0000  0.0000
  o =  0.5645  v =  0.0000  0.0000  0.0000  0.0000  0.0000  0.0000  0.0000  0.0000  0.0000  1.0000      0.0000  0.0000  0.0000  0.0000  0.0000  0.0000  0.0000  0.0000  0.0000  0.0000
  o =  0.5645  v =  0.0000  0.0000  0.0000  0.0000  0.0000  0.0000  1.0000  0.0000  0.0000  0.0000      0.0000  0.0000  0.0000  0.0000  0.0000  0.0000  0.0000  0.0000  0.0000  0.0000
  o =  0.5645  v =  0.0000  0.0000  0.0000  0.0000  0.0000  0.0000  0.0000  0.0000  1.0000  0.0000      0.0000  0.0000  0.0000  0.0000  0.0000  0.0000  0.0000  0.0000  0.0000  0.0000
  o =  1.0776  v =  0.0000  0.0000  1.0000  0.0000  0.0000  0.0000  0.0000  0.0000  0.0000  0.0000      0.0000  0.0000  0.0000  0.0000  0.0000  0.0000  0.0000  0.0000  0.0000  0.0000
  o =  1.0776  v =  0.0000  0.0000  0.0000  1.0000  0.0000  0.0000  0.0000  0.0000  0.0000  0.0000      0.0000  0.0000  0.0000  0.0000  0.0000  0.0000  0.0000  0.0000  0.0000  0.0000
  o =  1.0776  v =  1.0000  0.0000  0.0000  0.0000  0.0000  0.0000  0.0000  0.0000  0.0000  0.0000      0.0000  0.0000  0.0000  0.0000  0.0000  0.0000  0.0000  0.0000  0.0000  0.0000
  o =  1.0776  v =  0.0000  0.0000  0.0000  0.0000  1.0000  0.0000  0.0000  0.0000  0.0000  0.0000      0.0000  0.0000  0.0000  0.0000  0.0000  0.0000  0.0000  0.0000  0.0000  0.0000
  o =  1.0776  v =  0.0000  1.0000  0.0000  0.0000  0.0000  0.0000  0.0000  0.0000  0.0000  0.0000      0.0000  0.0000  0.0000  0.0000  0.0000  0.0000  0.0000  0.0000  0.0000  0.0000

atom =   4  type =  3  l = 0

 onsite density matrix

spin component  1

  0.9009

spin component  2

  0.7371

 occupancies and eigenvectors

  o =  0.7371  v =  0.0000  1.0000      0.0000  0.0000
  o =  0.9009  v =  1.0000  0.0000      0.0000  0.0000

atom =   5  type =  3  l = 0

 onsite density matrix

spin component  1

  0.9009

spin component  2

  0.7371

 occupancies and eigenvectors

  o =  0.7371  v =  0.0000  1.0000      0.0000  0.0000
  o =  0.9009  v =  1.0000  0.0000      0.0000  0.0000

atom =   6  type =  3  l = 0

 onsite density matrix

spin component  1

  0.9009

spin component  2

  0.7371

 occupancies and eigenvectors

  o =  0.7371  v =  0.0000  1.0000      0.0000  0.0000
  o =  0.9009  v =  1.0000  0.0000      0.0000  0.0000

atom =   7  type =  3  l = 0

 onsite density matrix

spin component  1

  0.9009

spin component  2

  0.7371

 occupancies and eigenvectors

  o =  0.7371  v =  0.0000  1.0000      0.0000  0.0000
  o =  0.9009  v =  1.0000  0.0000      0.0000  0.0000

     EDDAV:  cpu time    4.9845: real time    4.9851
 BZINTS: Fermi energy:   13.610787;   62.000000 electrons
         Band energy:-0.444642E+02;  BLOECHL correction:   -0.041710
       DOS:  cpu time    0.0718: real time    0.0721
    --------------------------------------------
      LOOP:  cpu time    5.9700: real time    5.9718

 eigenvalue-minimisations  : 11520
 total energy-change (2. order) : 0.3584333E+03  (-0.3371097E+04)
 number of electron      62.0000000 magnetization       8.6000000
 augmentation part       62.0000000 magnetization       8.6000000

 Free energy of the ion-electron system (eV)
  ---------------------------------------------------
  alpha Z        PSCENC =       289.24764634
  Ewald energy   TEWEN  =     -4724.10058348
  -Hartree energ DENC   =     -2267.54207762
  -exchange      EXHF   =         0.00000000
  -V(xc)+E(xc)   XCENC  =       265.19395696
  PAW double counting   =      5585.27909985    -5707.62878593
  entropy T*S    EENTRO =         0.00000000
  eigenvalues    EBANDS =       -44.46415466
  atomic energy  EATOM  =      6962.44817098
  Solvation  Ediel_sol  =         0.00000000
  ---------------------------------------------------
  free energy    TOTEN  =       358.43327244 eV

  energy without entropy =      358.43327244  energy(sigma->0) =      358.43327244


--------------------------------------------------------------------------------------------------------




--------------------------------------- Iteration      1(   2)  ---------------------------------------


     EDDAV:  cpu time   10.6140: real time   10.6144
 BZINTS: Fermi energy:   11.136502;   62.000000 electrons
         Band energy:-0.452093E+03;  BLOECHL correction:   -0.041646
       DOS:  cpu time    0.0693: real time    0.0695
    --------------------------------------------
      LOOP:  cpu time   10.6833: real time   10.6838

 eigenvalue-minimisations  : 17184
 total energy-change (2. order) :-0.4076292E+03  (-0.4072936E+03)
 number of electron      62.0000000 magnetization       8.6000000
 augmentation part       62.0000000 magnetization       8.6000000

 Free energy of the ion-electron system (eV)
  ---------------------------------------------------
  alpha Z        PSCENC =       289.24764634
  Ewald energy   TEWEN  =     -4724.10058348
  -Hartree energ DENC   =     -2267.54207762
  -exchange      EXHF   =         0.00000000
  -V(xc)+E(xc)   XCENC  =       265.19395696
  PAW double counting   =      5585.27909985    -5707.62878593
  entropy T*S    EENTRO =         0.00000000
  eigenvalues    EBANDS =      -452.09335653
  atomic energy  EATOM  =      6962.44817098
  Solvation  Ediel_sol  =         0.00000000
  ---------------------------------------------------
  free energy    TOTEN  =       -49.19592943 eV

  energy without entropy =      -49.19592943  energy(sigma->0) =      -49.19592943


--------------------------------------------------------------------------------------------------------




--------------------------------------- Iteration      1(   3)  ---------------------------------------


     EDDAV:  cpu time    5.0804: real time    5.0806
 BZINTS: Fermi energy:   11.031141;   62.000000 electrons
         Band energy:-0.459881E+03;  BLOECHL correction:   -0.032157
       DOS:  cpu time    0.0738: real time    0.0740
    --------------------------------------------
      LOOP:  cpu time    5.1542: real time    5.1546

 eigenvalue-minimisations  : 11664
 total energy-change (2. order) :-0.7787304E+01  (-0.7779997E+01)
 number of electron      62.0000000 magnetization       8.6000000
 augmentation part       62.0000000 magnetization       8.6000000

 Free energy of the ion-electron system (eV)
  ---------------------------------------------------
  alpha Z        PSCENC =       289.24764634
  Ewald energy   TEWEN  =     -4724.10058348
  -Hartree energ DENC   =     -2267.54207762
  -exchange      EXHF   =         0.00000000
  -V(xc)+E(xc)   XCENC  =       265.19395696
  PAW double counting   =      5585.27909985    -5707.62878593
  entropy T*S    EENTRO =         0.00000000
  eigenvalues    EBANDS =      -459.88066021
  atomic energy  EATOM  =      6962.44817098
  Solvation  Ediel_sol  =         0.00000000
  ---------------------------------------------------
  free energy    TOTEN  =       -56.98323311 eV

  energy without entropy =      -56.98323311  energy(sigma->0) =      -56.98323311


--------------------------------------------------------------------------------------------------------




--------------------------------------- Iteration      1(   4)  ---------------------------------------


     EDDAV:  cpu time   19.9890: real time   19.9892
 BZINTS: Fermi energy:   11.017659;   62.000000 electrons
         Band energy:-0.460153E+03;  BLOECHL correction:   -0.031551
       DOS:  cpu time    0.0738: real time    0.0740
    --------------------------------------------
      LOOP:  cpu time   20.0628: real time   20.0632

 eigenvalue-minimisations  : 22752
 total energy-change (2. order) :-0.2727312E+00  (-0.2717082E+00)
 number of electron      62.0000000 magnetization       8.6000000
 augmentation part       62.0000000 magnetization       8.6000000

 Free energy of the ion-electron system (eV)
  ---------------------------------------------------
  alpha Z        PSCENC =       289.24764634
  Ewald energy   TEWEN  =     -4724.10058348
  -Hartree energ DENC   =     -2267.54207762
  -exchange      EXHF   =         0.00000000
  -V(xc)+E(xc)   XCENC  =       265.19395696
  PAW double counting   =      5585.27909985    -5707.62878593
  entropy T*S    EENTRO =         0.00000000
  eigenvalues    EBANDS =      -460.15339142
  atomic energy  EATOM  =      6962.44817098
  Solvation  Ediel_sol  =         0.00000000
  ---------------------------------------------------
  free energy    TOTEN  =       -57.25596432 eV

  energy without entropy =      -57.25596432  energy(sigma->0) =      -57.25596432


--------------------------------------------------------------------------------------------------------




--------------------------------------- Iteration      1(   5)  ---------------------------------------


     EDDAV:  cpu time    5.1320: real time    5.1322
 BZINTS: Fermi energy:   11.017573;   62.000000 electrons
         Band energy:-0.460155E+03;  BLOECHL correction:   -0.031547
       DOS:  cpu time    0.0726: real time    0.0728
    CHARGE:  cpu time    0.1350: real time    0.1351
    MIXING:  cpu time    0.0009: real time    0.0011
    --------------------------------------------
      LOOP:  cpu time    5.3406: real time    5.3412

 eigenvalue-minimisations  : 11712
 total energy-change (2. order) :-0.1157025E-02  (-0.1157572E-02)
 number of electron      61.9999981 magnetization       5.9302572
 augmentation part        8.0286257 magnetization       4.0531462

 Broyden mixing:
  rms(total) = 0.35897E+01    rms(broyden)= 0.35894E+01
  rms(prec ) = 0.61253E+01
  weight for this iteration     100.00

 Free energy of the ion-electron system (eV)
  ---------------------------------------------------
  alpha Z        PSCENC =       289.24764634
  Ewald energy   TEWEN  =     -4724.10058348
  -Hartree energ DENC   =     -2267.54207762
  -exchange      EXHF   =         0.00000000
  -V(xc)+E(xc)   XCENC  =       265.19395696
  PAW double counting   =      5585.27909985    -5707.62878593
  entropy T*S    EENTRO =         0.00000000
  eigenvalues    EBANDS =      -460.15454844
  atomic energy  EATOM  =      6962.44817098
  Solvation  Ediel_sol  =         0.00000000
  ---------------------------------------------------
  free energy    TOTEN  =       -57.25712134 eV

  energy without entropy =      -57.25712134  energy(sigma->0) =      -57.25712134


--------------------------------------------------------------------------------------------------------




--------------------------------------- Iteration      1(   6)  ---------------------------------------


    POTLOK:  cpu time    0.0191: real time    0.0193
    SETDIJ:  cpu time    0.8863: real time    0.8863
atom =   1  type =  1  l = 0

 onsite density matrix

spin component  1

  1.0264

spin component  2

  1.0985

 occupancies and eigenvectors

  o =  1.0264  v =  1.0000  0.0000      0.0000  0.0000
  o =  1.0985  v =  0.0000  1.0000      0.0000  0.0000

atom =   2  type =  1  l = 0

 onsite density matrix

spin component  1

  1.0264

spin component  2

  1.0985

 occupancies and eigenvectors

  o =  1.0264  v =  1.0000  0.0000      0.0000  0.0000
  o =  1.0985  v =  0.0000  1.0000      0.0000  0.0000

atom =   3  type =  2  l = 2

 onsite density matrix

spin component  1

  1.2091  0.0000  0.0000  0.0000  0.0000
  0.0000  1.2203  0.0000  0.0000 -0.0000
  0.0000  0.0000  1.2771  0.0000  0.0000
  0.0000  0.0000  0.0000  1.2203  0.0000
  0.0000 -0.0000  0.0000  0.0000  1.2849

spin component  2

  0.2056 -0.0000  0.0000 -0.0000 -0.0000
 -0.0000  0.1823 -0.0000  0.0000  0.0000
  0.0000 -0.0000  0.1213 -0.0000 -0.0000
 -0.0000  0.0000 -0.0000  0.1823 -0.0000
 -0.0000  0.0000 -0.0000 -0.0000  0.1384

 occupancies and eigenvectors

  o =  0.1213  v =  0.0000  0.0000  0.0000  0.0000  0.0000  0.0000  0.0000  1.0000  0.0000 -0.0000      0.0000  0.0000  0.0000  0.0000  0.0000  0.0000  0.0000  0.0000  0.0000  0.0000
  o =  0.1384  v =  0.0000  0.0000  0.0000  0.0000  0.0000  0.0000 -0.0000  0.0000  0.0000  1.0000      0.0000  0.0000  0.0000  0.0000  0.0000  0.0000  0.0000  0.0000  0.0000  0.0000
  o =  0.1823  v =  0.0000  0.0000  0.0000  0.0000  0.0000 -0.0000  0.6824 -0.0000 -0.7310  0.0000      0.0000  0.0000  0.0000  0.0000  0.0000  0.0000  0.0000  0.0000  0.0000  0.0000
  o =  0.1823  v =  0.0000  0.0000  0.0000  0.0000  0.0000  0.0000  0.7310 -0.0000  0.6824  0.0000      0.0000  0.0000  0.0000  0.0000  0.0000  0.0000  0.0000  0.0000  0.0000  0.0000
  o =  0.2056  v =  0.0000  0.0000  0.0000  0.0000  0.0000  1.0000 -0.0000  0.0000 -0.0000 -0.0000      0.0000  0.0000  0.0000  0.0000  0.0000  0.0000  0.0000  0.0000  0.0000  0.0000
  o =  1.2091  v =  1.0000 -0.0000  0.0000 -0.0000 -0.0000  0.0000  0.0000  0.0000  0.0000  0.0000      0.0000  0.0000  0.0000  0.0000  0.0000  0.0000  0.0000  0.0000  0.0000  0.0000
  o =  1.2203  v = -0.0000 -0.9422  0.0000  0.3351 -0.0000  0.0000  0.0000  0.0000  0.0000  0.0000      0.0000  0.0000  0.0000  0.0000  0.0000  0.0000  0.0000  0.0000  0.0000  0.0000
  o =  1.2203  v = -0.0000 -0.3351  0.0000 -0.9422  0.0000  0.0000  0.0000  0.0000  0.0000  0.0000      0.0000  0.0000  0.0000  0.0000  0.0000  0.0000  0.0000  0.0000  0.0000  0.0000
  o =  1.2771  v =  0.0000  0.0000  1.0000  0.0000  0.0000 -0.0000 -0.0000 -0.0000 -0.0000 -0.0000      0.0000 -0.0000 -0.0000 -0.0000  0.0000  0.0000  0.0000  0.0000  0.0000  0.0000
  o =  1.2849  v =  0.0000 -0.0000 -0.0000  0.0000  1.0000  0.0000  0.0000  0.0000  0.0000  0.0000      0.0000  0.0000  0.0000  0.0000  0.0000  0.0000  0.0000  0.0000  0.0000  0.0000

atom =   4  type =  3  l = 0

 onsite density matrix

spin component  1

  0.7738

spin component  2

  0.8588

 occupancies and eigenvectors

  o =  0.7738  v =  1.0000  0.0000      0.0000  0.0000
  o =  0.8588  v =  0.0000  1.0000      0.0000  0.0000

atom =   5  type =  3  l = 0

 onsite density matrix

spin component  1

  0.7738

spin component  2

  0.8588

 occupancies and eigenvectors

  o =  0.7738  v =  1.0000  0.0000      0.0000  0.0000
  o =  0.8588  v =  0.0000  1.0000      0.0000  0.0000

atom =   6  type =  3  l = 0

 onsite density matrix

spin component  1

  0.7743

spin component  2

  0.8553

 occupancies and eigenvectors

  o =  0.7743  v =  1.0000  0.0000      0.0000  0.0000
  o =  0.8553  v =  0.0000  1.0000      0.0000  0.0000

atom =   7  type =  3  l = 0

 onsite density matrix

spin component  1

  0.7743

spin component  2

  0.8553

 occupancies and eigenvectors

  o =  0.7743  v =  1.0000  0.0000      0.0000  0.0000
  o =  0.8553  v =  0.0000  1.0000      0.0000  0.0000

    EDDIAG:  cpu time    0.5789: real time    0.5811
  RMM-DIIS:  cpu time    1.6676: real time    1.6676
    ORTHCH:  cpu time    0.0505: real time    0.0505
 BZINTS: Fermi energy:    7.050878;   62.000000 electrons
         Band energy:-0.643960E+03;  BLOECHL correction:   -0.053947
       DOS:  cpu time    0.0745: real time    0.0748
    CHARGE:  cpu time    0.1325: real time    0.1325
    MIXING:  cpu time    0.0006: real time    0.0006
    --------------------------------------------
      LOOP:  cpu time    3.4101: real time    3.4128

 eigenvalue-minimisations  : 18259
 total energy-change (2. order) :-0.4754814E+01  (-0.2471792E+02)
 number of electron      61.9999977 magnetization       5.2273241
 augmentation part       10.3225702 magnetization       4.4424574

 Broyden mixing:
  rms(total) = 0.12237E+02    rms(broyden)= 0.12236E+02
  rms(prec ) = 0.12778E+02
  weight for this iteration     100.00

 eigenvalues of (default mixing * dielectric matrix)
  average eigenvalue GAMMA=   0.0061
  0.0061

 Free energy of the ion-electron system (eV)
  ---------------------------------------------------
  alpha Z        PSCENC =       289.24764634
  Ewald energy   TEWEN  =     -4724.10058348
  -Hartree energ DENC   =     -2102.19619492
  -exchange      EXHF   =         0.00000000
  -V(xc)+E(xc)   XCENC  =       263.66721323
  PAW double counting   =      5690.17969040    -5797.29781657
  entropy T*S    EENTRO =         0.00000000
  eigenvalues    EBANDS =      -643.96006144
  atomic energy  EATOM  =      6962.44817098
  Solvation  Ediel_sol  =         0.00000000
  ---------------------------------------------------
  free energy    TOTEN  =       -62.01193546 eV

  energy without entropy =      -62.01193546  energy(sigma->0) =      -62.01193546


--------------------------------------------------------------------------------------------------------




--------------------------------------- Iteration      1(   7)  ---------------------------------------


    POTLOK:  cpu time    0.0182: real time    0.0184
    SETDIJ:  cpu time    0.8807: real time    0.8807
atom =   1  type =  1  l = 0

 onsite density matrix

spin component  1

  1.0341

spin component  2

  1.0813

 occupancies and eigenvectors

  o =  1.0341  v =  1.0000  0.0000      0.0000  0.0000
  o =  1.0813  v =  0.0000  1.0000      0.0000  0.0000

atom =   2  type =  1  l = 0

 onsite density matrix

spin component  1

  1.0341

spin component  2

  1.0813

 occupancies and eigenvectors

  o =  1.0341  v =  1.0000  0.0000      0.0000  0.0000
  o =  1.0813  v =  0.0000  1.0000      0.0000  0.0000

atom =   3  type =  2  l = 2

 onsite density matrix

spin component  1

  1.0729  0.0000  0.0000  0.0000  0.0000
  0.0000  1.0784  0.0000  0.0000 -0.0000
  0.0000  0.0000  1.1495  0.0000  0.0000
  0.0000  0.0000  0.0000  1.0784  0.0000
  0.0000 -0.0000  0.0000  0.0000  1.2218

spin component  2

  0.3830 -0.0000  0.0000 -0.0000 -0.0000
 -0.0000  0.3658 -0.0000  0.0000  0.0000
  0.0000 -0.0000  0.2763 -0.0000  0.0000
 -0.0000  0.0000 -0.0000  0.3658 -0.0000
 -0.0000  0.0000  0.0000 -0.0000  0.1921

 occupancies and eigenvectors

  o =  0.1921  v =  0.0000  0.0000  0.0000  0.0000  0.0000 -0.0000  0.0000  0.0000 -0.0000 -1.0000      0.0000  0.0000  0.0000  0.0000  0.0000  0.0000  0.0000  0.0000  0.0000  0.0000
  o =  0.2763  v =  0.0000  0.0000  0.0000  0.0000  0.0000 -0.0000 -0.0000 -1.0000 -0.0000 -0.0000      0.0000  0.0000  0.0000  0.0000  0.0000  0.0000  0.0000  0.0000  0.0000  0.0000
  o =  0.3658  v =  0.0000  0.0000  0.0000  0.0000  0.0000 -0.0000 -0.9789  0.0000 -0.2043 -0.0000      0.0000  0.0000  0.0000  0.0000  0.0000  0.0000  0.0000  0.0000  0.0000  0.0000
  o =  0.3658  v =  0.0000  0.0000  0.0000  0.0000  0.0000 -0.0000  0.2043  0.0000 -0.9789  0.0000      0.0000  0.0000  0.0000  0.0000  0.0000  0.0000  0.0000  0.0000  0.0000  0.0000
  o =  0.3830  v =  0.0000  0.0000  0.0000  0.0000  0.0000  1.0000 -0.0000  0.0000 -0.0000 -0.0000      0.0000  0.0000  0.0000  0.0000  0.0000  0.0000  0.0000  0.0000  0.0000  0.0000
  o =  1.0729  v =  1.0000 -0.0000  0.0000 -0.0000 -0.0000  0.0000  0.0000  0.0000  0.0000  0.0000      0.0000  0.0000  0.0000  0.0000  0.0000  0.0000  0.0000  0.0000  0.0000  0.0000
  o =  1.0784  v = -0.0000 -0.5425  0.0000 -0.8401  0.0000 -0.0000 -0.0000 -0.0000 -0.0000 -0.0000      0.0000  0.0000  0.0000  0.0000  0.0000  0.0000  0.0000  0.0000  0.0000  0.0000
  o =  1.0784  v = -0.0000 -0.8401  0.0000  0.5425 -0.0000  0.0000  0.0000  0.0000  0.0000  0.0000      0.0000  0.0000  0.0000  0.0000  0.0000  0.0000  0.0000  0.0000  0.0000  0.0000
  o =  1.1495  v =  0.0000  0.0000  1.0000 -0.0000  0.0000 -0.0000 -0.0000 -0.0000 -0.0000 -0.0000      0.0000 -0.0000 -0.0000  0.0000  0.0000  0.0000  0.0000  0.0000  0.0000  0.0000
  o =  1.2218  v =  0.0000 -0.0000 -0.0000  0.0000  1.0000  0.0000  0.0000  0.0000  0.0000  0.0000      0.0000  0.0000  0.0000  0.0000  0.0000  0.0000  0.0000  0.0000  0.0000  0.0000

atom =   4  type =  3  l = 0

 onsite density matrix

spin component  1

  0.7838

spin component  2

  0.8443

 occupancies and eigenvectors

  o =  0.7838  v =  1.0000  0.0000      0.0000  0.0000
  o =  0.8443  v =  0.0000  1.0000      0.0000  0.0000

atom =   5  type =  3  l = 0

 onsite density matrix

spin component  1

  0.7838

spin component  2

  0.8443

 occupancies and eigenvectors

  o =  0.7838  v =  1.0000  0.0000      0.0000  0.0000
  o =  0.8443  v =  0.0000  1.0000      0.0000  0.0000

atom =   6  type =  3  l = 0

 onsite density matrix

spin component  1

  0.7848

spin component  2

  0.8388

 occupancies and eigenvectors

  o =  0.7848  v =  1.0000  0.0000      0.0000  0.0000
  o =  0.8388  v =  0.0000  1.0000      0.0000  0.0000

atom =   7  type =  3  l = 0

 onsite density matrix

spin component  1

  0.7848

spin component  2

  0.8388

 occupancies and eigenvectors

  o =  0.7848  v =  1.0000  0.0000      0.0000  0.0000
  o =  0.8388  v =  0.0000  1.0000      0.0000  0.0000

    EDDIAG:  cpu time    0.5680: real time    0.5680
  RMM-DIIS:  cpu time    1.6845: real time    1.6846
    ORTHCH:  cpu time    0.0506: real time    0.0506
 BZINTS: Fermi energy:    6.840410;   62.000000 electrons
         Band energy:-0.594487E+03;  BLOECHL correction:   -0.063666
       DOS:  cpu time    0.0727: real time    0.0729
    CHARGE:  cpu time    0.1379: real time    0.1379
    MIXING:  cpu time    0.0004: real time    0.0004
    --------------------------------------------
      LOOP:  cpu time    3.4131: real time    3.4136

 eigenvalue-minimisations  : 20020
 total energy-change (2. order) : 0.1271120E+01  (-0.4445057E+01)
 number of electron      61.9999978 magnetization       3.8704447
 augmentation part        9.9932557 magnetization       2.9346941

 Broyden mixing:
  rms(total) = 0.67366E+01    rms(broyden)= 0.67366E+01
  rms(prec ) = 0.74973E+01
  weight for this iteration     100.00

 eigenvalues of (default mixing * dielectric matrix)
  average eigenvalue GAMMA=   0.3916
  0.3916  0.3916

 Free energy of the ion-electron system (eV)
  ---------------------------------------------------
  alpha Z        PSCENC =       289.24764634
  Ewald energy   TEWEN  =     -4724.10058348
  -Hartree energ DENC   =     -2139.98975291
  -exchange      EXHF   =         0.00000000
  -V(xc)+E(xc)   XCENC  =       263.95631095
  PAW double counting   =      5953.16650651    -6070.98189794
  entropy T*S    EENTRO =         0.00000000
  eigenvalues    EBANDS =      -594.48721613
  atomic energy  EATOM  =      6962.44817098
  Solvation  Ediel_sol  =         0.00000000
  ---------------------------------------------------
  free energy    TOTEN  =       -60.74081568 eV

  energy without entropy =      -60.74081568  energy(sigma->0) =      -60.74081568


--------------------------------------------------------------------------------------------------------




--------------------------------------- Iteration      1(   8)  ---------------------------------------


    POTLOK:  cpu time    0.0196: real time    0.0199
    SETDIJ:  cpu time    0.8817: real time    0.8817
atom =   1  type =  1  l = 0

 onsite density matrix

spin component  1

  1.0394

spin component  2

  1.0527

 occupancies and eigenvectors

  o =  1.0394  v =  1.0000  0.0000      0.0000  0.0000
  o =  1.0527  v =  0.0000  1.0000      0.0000  0.0000

atom =   2  type =  1  l = 0

 onsite density matrix

spin component  1

  1.0394

spin component  2

  1.0527

 occupancies and eigenvectors

  o =  1.0394  v =  1.0000  0.0000      0.0000  0.0000
  o =  1.0527  v =  0.0000  1.0000      0.0000  0.0000

atom =   3  type =  2  l = 2

 onsite density matrix

spin component  1

  0.9359  0.0000  0.0000  0.0000 -0.0000
  0.0000  0.9360  0.0000  0.0000 -0.0000
  0.0000  0.0000  0.9759  0.0000 -0.0000
  0.0000  0.0000  0.0000  0.9360  0.0000
 -0.0000 -0.0000 -0.0000  0.0000  1.1026

spin component  2

  0.6304  0.0000  0.0000  0.0000  0.0000
  0.0000  0.6197  0.0000  0.0000 -0.0000
  0.0000  0.0000  0.5433  0.0000 -0.0000
  0.0000  0.0000  0.0000  0.6197  0.0000
  0.0000 -0.0000 -0.0000  0.0000  0.2968

 occupancies and eigenvectors

  o =  0.2968  v =  0.0000  0.0000  0.0000  0.0000  0.0000  0.0000  0.0000  0.0000 -0.0000  1.0000      0.0000  0.0000  0.0000  0.0000  0.0000  0.0000  0.0000  0.0000  0.0000  0.0000
  o =  0.5433  v =  0.0000  0.0000  0.0000  0.0000  0.0000  0.0000 -0.0000  1.0000 -0.0000 -0.0000      0.0000  0.0000  0.0000  0.0000  0.0000  0.0000  0.0000  0.0000  0.0000  0.0000
  o =  0.6197  v =  0.0000  0.0000  0.0000  0.0000  0.0000  0.0000  0.3318  0.0000  0.9434  0.0000      0.0000  0.0000  0.0000  0.0000  0.0000  0.0000  0.0000  0.0000  0.0000  0.0000
  o =  0.6197  v =  0.0000  0.0000  0.0000  0.0000  0.0000  0.0000  0.9434  0.0000 -0.3318 -0.0000      0.0000  0.0000  0.0000  0.0000  0.0000  0.0000  0.0000  0.0000  0.0000  0.0000
  o =  0.6304  v =  0.0000  0.0000  0.0000  0.0000  0.0000  1.0000  0.0000  0.0000  0.0000  0.0000      0.0000  0.0000  0.0000  0.0000  0.0000  0.0000  0.0000  0.0000  0.0000  0.0000
  o =  0.9359  v =  1.0000 -0.0000  0.0000 -0.0000  0.0000  0.0000  0.0000  0.0000  0.0000  0.0000      0.0000  0.0000  0.0000  0.0000  0.0000  0.0000  0.0000  0.0000  0.0000  0.0000
  o =  0.9360  v = -0.0000 -0.9850  0.0000 -0.1725 -0.0000  0.0000  0.0000  0.0000  0.0000  0.0000      0.0000  0.0000  0.0000  0.0000  0.0000  0.0000  0.0000  0.0000  0.0000  0.0000
  o =  0.9360  v = -0.0000  0.1725  0.0000 -0.9850  0.0000  0.0000  0.0000  0.0000  0.0000  0.0000      0.0000  0.0000  0.0000  0.0000  0.0000  0.0000  0.0000  0.0000  0.0000  0.0000
  o =  0.9759  v = -0.0000 -0.0000 -1.0000 -0.0000 -0.0000 -0.0000 -0.0000 -0.0000 -0.0000 -0.0000      0.0000  0.0000  0.0000  0.0000  0.0000  0.0000  0.0000  0.0000  0.0000  0.0000
  o =  1.1026  v = -0.0000 -0.0000 -0.0000  0.0000  1.0000  0.0000  0.0000  0.0000  0.0000  0.0000      0.0000  0.0000  0.0000  0.0000  0.0000  0.0000  0.0000  0.0000  0.0000  0.0000

atom =   4  type =  3  l = 0

 onsite density matrix

spin component  1

  0.8002

spin component  2

  0.8160

 occupancies and eigenvectors

  o =  0.8002  v =  1.0000  0.0000      0.0000  0.0000
  o =  0.8160  v =  0.0000  1.0000      0.0000  0.0000

atom =   5  type =  3  l = 0

 onsite density matrix

spin component  1

  0.8002

spin component  2

  0.8160

 occupancies and eigenvectors

  o =  0.8002  v =  1.0000  0.0000      0.0000  0.0000
  o =  0.8160  v =  0.0000  1.0000      0.0000  0.0000

atom =   6  type =  3  l = 0

 onsite density matrix

spin component  1

  0.7961

spin component  2

  0.8135

 occupancies and eigenvectors

  o =  0.7961  v =  1.0000  0.0000      0.0000  0.0000
  o =  0.8135  v =  0.0000  1.0000      0.0000  0.0000

atom =   7  type =  3  l = 0

 onsite density matrix

spin component  1

  0.7961

spin component  2

  0.8135

 occupancies and eigenvectors

  o =  0.7961  v =  1.0000  0.0000      0.0000  0.0000
[...]
 -0.000   0.000  -0.000  -0.000   0.000  -0.000  -0.000   0.000
 -0.000   0.000   0.000   0.000   0.000  -0.000   0.000  -0.000
  0.000  -0.000   0.005   0.000   0.000  -0.004   0.000   0.000
  0.005   0.003  -0.000   0.011  -0.000  -0.000  -0.001  -0.000
  0.000  -0.000   0.000   0.000   0.005   0.000   0.000  -0.004
 -0.000   0.000  -0.000  -0.000   0.000  -0.000  -0.000   0.000
  0.000  -0.000   0.002  -0.000   0.000  -0.001   0.000  -0.000
 -0.000   0.000  -0.000   0.000  -0.000   0.000  -0.000   0.000
  0.000  -0.000   0.008  -0.000   0.000  -0.004   0.000  -0.000
 -0.005  -0.002   0.000   0.012   0.000  -0.000  -0.008  -0.000
  0.000  -0.000   0.000  -0.000   0.008  -0.000   0.000  -0.004
  0.000  -0.000   0.000   0.000  -0.000  -0.000  -0.000   0.000
 -0.000   0.000  -0.000   0.000  -0.002   0.000  -0.000   0.001
  0.000  -0.000   0.002  -0.000   0.000  -0.001   0.000  -0.000
 -0.000   0.000  -0.000   0.000  -0.000   0.000  -0.000   0.000
  0.000  -0.000   0.007  -0.000   0.000  -0.004   0.000  -0.000
 -0.005  -0.002   0.000   0.011   0.000  -0.000  -0.008  -0.000
  0.000  -0.000   0.000  -0.000   0.007  -0.000   0.000  -0.004
  0.000  -0.000   0.000   0.000  -0.000  -0.000  -0.000   0.000
 -0.000   0.000  -0.000   0.000  -0.002   0.000  -0.000   0.001
 total augmentation occupancy for first ion, spin component:           1
  1.993   0.032   0.000   0.002   0.000   0.000   0.001   0.000   0.000   0.000   0.009   0.000   0.000   0.000  -0.000  -0.014
  0.032   0.543   0.000   0.008   0.000  -0.000  -0.003  -0.000  -0.000   0.000   0.351   0.000   0.000   0.000  -0.000  -0.169
  0.000   0.000   2.027   0.000   0.000  -0.001  -0.000   0.000  -0.000  -0.065   0.000   0.000   0.000   0.000   0.028  -0.000
  0.002   0.008   0.000   2.035   0.000  -0.000  -0.013  -0.000   0.000   0.000   0.155   0.000   0.000   0.000  -0.000  -0.059
  0.000   0.000   0.000   0.000   2.027  -0.000  -0.000  -0.001  -0.000   0.000   0.000  -0.065  -0.000   0.000  -0.000  -0.000
  0.000  -0.000  -0.001  -0.000  -0.000   0.011   0.000   0.000   0.000   0.031  -0.000  -0.000  -0.000  -0.000  -0.015   0.000
  0.001  -0.003  -0.000  -0.013  -0.000   0.000   0.019   0.000   0.000  -0.000  -0.083  -0.000   0.000  -0.000   0.000   0.039
  0.000  -0.000   0.000  -0.000  -0.001   0.000   0.000   0.011   0.000   0.000  -0.000   0.031   0.000  -0.000   0.000   0.000
 -0.000   0.000  -0.000   0.000  -0.000   0.000   0.000   0.000   1.142   0.000  -0.000   0.000  -0.000  -0.535  -0.000   0.000
  0.000   0.000  -0.065   0.000  -0.000   0.031  -0.000  -0.000   0.000   1.524   0.000  -0.000  -0.000  -0.000  -0.716  -0.000
  0.009   0.351   0.000   0.155   0.000  -0.000  -0.083  -0.000  -0.000   0.000   2.270   0.000   0.000  -0.000  -0.000  -1.080
  0.000   0.000  -0.000   0.000  -0.065   0.000  -0.000   0.031   0.000   0.000   0.000   1.524   0.000  -0.000  -0.000  -0.000
  0.000   0.000   0.000   0.000  -0.000  -0.000   0.000   0.000   0.000  -0.000   0.000   0.000   1.072  -0.000   0.000   0.000
  0.000  -0.000   0.000   0.000   0.000  -0.000  -0.000  -0.000  -0.535  -0.000  -0.000  -0.000   0.000   0.252   0.000   0.000
 -0.000  -0.000   0.028  -0.000   0.000  -0.015   0.000  -0.000  -0.000  -0.716  -0.000  -0.000   0.000   0.000   0.339   0.000
 -0.014  -0.169  -0.000  -0.059  -0.000   0.000   0.039   0.000  -0.000  -0.000  -1.080  -0.000   0.000   0.000   0.000   0.521
 -0.000  -0.000   0.000  -0.000   0.028  -0.000   0.000  -0.015  -0.000   0.000  -0.000  -0.716  -0.000   0.000   0.000   0.000
  0.000   0.000  -0.000   0.000   0.000   0.000   0.000  -0.000  -0.000   0.000   0.000  -0.000  -0.488  -0.000  -0.000   0.000
  0.000   0.000   0.019   0.000   0.000  -0.004  -0.000  -0.000   0.000   0.161  -0.000   0.000  -0.000  -0.000  -0.075   0.000
  0.000  -0.000   0.000   0.000   0.000  -0.000   0.000  -0.000   0.024  -0.000   0.000  -0.000  -0.000  -0.006   0.000   0.000
 -0.000   0.000   0.031   0.000   0.000  -0.015  -0.000   0.000  -0.000  -0.125   0.000  -0.000  -0.000   0.000   0.064  -0.000
 -0.027   0.218   0.000   0.035   0.000  -0.000  -0.040  -0.000  -0.000   0.000   0.725   0.000   0.000  -0.000  -0.000  -0.348
 -0.000   0.000   0.000   0.000   0.031  -0.000  -0.000  -0.015  -0.000   0.000   0.000  -0.125   0.000   0.000   0.000  -0.000
  0.000   0.000  -0.000  -0.000   0.000   0.000  -0.000  -0.000   0.000   0.000   0.000  -0.000  -0.401   0.000  -0.000   0.000
  0.000   0.000   0.000   0.000  -0.019  -0.000   0.000   0.004  -0.000   0.000   0.000  -0.161  -0.000   0.000  -0.000  -0.000
  0.000  -0.000  -0.025   0.000   0.000   0.005   0.000  -0.000  -0.000  -0.218   0.000   0.000   0.000   0.000   0.100  -0.000
  0.000  -0.000  -0.000  -0.000  -0.000   0.000   0.000   0.000  -0.046   0.000  -0.000   0.000   0.000   0.014  -0.000   0.000
  0.000  -0.000  -0.044  -0.000  -0.000   0.020   0.000   0.000   0.000   0.159  -0.000  -0.000   0.000  -0.000  -0.080   0.000
  0.034  -0.282  -0.000  -0.062  -0.000   0.000   0.054   0.000   0.000  -0.000  -0.954  -0.000   0.000   0.000   0.000   0.453
  0.000  -0.000  -0.000  -0.000  -0.044   0.000   0.000   0.020   0.000   0.000  -0.000   0.159  -0.000  -0.000  -0.000   0.000
  0.000   0.000   0.000   0.000  -0.000  -0.000   0.000   0.000  -0.000  -0.000   0.000   0.000   0.525   0.000   0.000   0.000
 -0.000   0.000   0.000   0.000   0.025  -0.000   0.000  -0.005   0.000   0.000  -0.000   0.218   0.000  -0.000   0.000   0.000
 total augmentation occupancy for first ion, spin component:           2
 -0.000  -0.002   0.000   0.000   0.000   0.000   0.000   0.000   0.000   0.000   0.001   0.000   0.000  -0.000  -0.000  -0.001
 -0.002   0.006   0.000   0.002   0.000  -0.000  -0.001  -0.000   0.000   0.000   0.011   0.000   0.000  -0.000  -0.000  -0.004
  0.000   0.000  -0.000   0.000   0.000   0.000  -0.000  -0.000   0.000   0.001   0.000   0.000  -0.000  -0.000  -0.001  -0.000
  0.000   0.002   0.000   0.000   0.000  -0.000  -0.000  -0.000   0.000   0.000   0.004   0.000   0.000  -0.000  -0.000  -0.001
  0.000   0.000   0.000   0.000  -0.000   0.000  -0.000   0.000   0.000  -0.000   0.000   0.001   0.000  -0.000   0.000  -0.000
  0.000  -0.000   0.000  -0.000   0.000  -0.000   0.000   0.000  -0.000  -0.000  -0.000   0.000   0.000   0.000   0.000   0.000
  0.000  -0.001  -0.000  -0.000  -0.000   0.000   0.000   0.000   0.000  -0.000  -0.003  -0.000   0.000  -0.000   0.000   0.001
  0.000  -0.000  -0.000  -0.000   0.000   0.000   0.000  -0.000  -0.000   0.000  -0.000  -0.000  -0.000   0.000  -0.000   0.000
 -0.000   0.000   0.000   0.000   0.000  -0.000   0.000  -0.000  -0.010  -0.000   0.000  -0.000  -0.000   0.004   0.000  -0.000
  0.000   0.000   0.001   0.000  -0.000  -0.000  -0.000   0.000  -0.000  -0.007   0.000  -0.000   0.000   0.000   0.003  -0.000
  0.001   0.011   0.000   0.004   0.000  -0.000  -0.003  -0.000   0.000   0.000   0.033   0.000   0.000  -0.000  -0.000  -0.012
  0.000   0.000   0.000   0.000   0.001   0.000  -0.000  -0.000  -0.000   0.000   0.000  -0.007  -0.000   0.000   0.000  -0.000
  0.000   0.000  -0.000   0.000   0.000   0.000   0.000  -0.000  -0.000   0.000   0.000  -0.000  -0.007   0.000  -0.000   0.000
  0.000  -0.000  -0.000  -0.000  -0.000   0.000  -0.000   0.000   0.004   0.000   0.000   0.000   0.000  -0.002  -0.000   0.000
 -0.000  -0.000  -0.001  -0.000   0.000   0.000   0.000  -0.000   0.000   0.003  -0.000   0.000  -0.000  -0.000  -0.001   0.000
 -0.001  -0.004  -0.000  -0.001  -0.000   0.000   0.001   0.000   0.000  -0.000  -0.012  -0.000   0.000   0.000   0.000   0.004
 -0.000  -0.000   0.000  -0.000  -0.001   0.000   0.000   0.000   0.000  -0.000  -0.000   0.003   0.000  -0.000   0.000   0.000
  0.000   0.000   0.000   0.000  -0.000  -0.000   0.000   0.000   0.000  -0.000   0.000   0.000   0.003   0.000   0.000   0.000
 -0.000  -0.000  -0.000  -0.000   0.000   0.000  -0.000  -0.000   0.000  -0.000   0.000   0.000   0.000  -0.000   0.000  -0.000
  0.000   0.000   0.000  -0.000   0.000  -0.000  -0.000  -0.000   0.004   0.000   0.000   0.000   0.000  -0.001  -0.000  -0.000
 -0.000   0.000   0.000  -0.000   0.000  -0.000  -0.000  -0.000  -0.000   0.000   0.000   0.000  -0.000   0.000  -0.000  -0.000
 -0.000   0.003  -0.000  -0.000  -0.000  -0.000  -0.001  -0.000   0.000   0.000   0.011   0.000  -0.000   0.000  -0.000  -0.004
 -0.000   0.000   0.000  -0.000   0.000   0.000  -0.000  -0.000  -0.000  -0.000   0.000   0.000   0.000   0.000   0.000  -0.000
 -0.000   0.000  -0.000   0.000   0.000   0.000   0.000  -0.000  -0.000  -0.000   0.000   0.000   0.001  -0.000   0.000   0.000
 -0.000  -0.000   0.000   0.000   0.000  -0.000   0.000  -0.000  -0.000   0.000  -0.000   0.000   0.000   0.000   0.000   0.000
 -0.000   0.000   0.000   0.000   0.000   0.000  -0.000  -0.000  -0.000   0.001  -0.000  -0.000  -0.000   0.000  -0.000   0.000
  0.000  -0.000  -0.000  -0.000  -0.000   0.000   0.000   0.000  -0.005  -0.000   0.000  -0.000   0.000   0.002   0.000   0.000
  0.000  -0.000  -0.000  -0.000   0.000   0.000   0.000   0.000   0.000  -0.000  -0.000   0.000  -0.000  -0.000   0.000   0.000
  0.000  -0.007  -0.000  -0.001  -0.000   0.000   0.002   0.000   0.000  -0.000  -0.022  -0.000   0.000   0.000   0.000   0.008
  0.000  -0.000   0.000  -0.000  -0.000   0.000   0.000   0.000   0.000   0.000  -0.000  -0.000   0.000  -0.000   0.000   0.000
  0.000   0.000   0.000   0.000  -0.000  -0.000   0.000   0.000   0.000   0.000   0.000  -0.000  -0.002  -0.000  -0.000   0.000
 -0.000   0.000  -0.000   0.000  -0.000   0.000  -0.000  -0.000   0.000   0.000   0.000  -0.001  -0.000  -0.000   0.000  -0.000


------------------------ aborting loop because EDIFF is reached ----------------------------------------





 total charge

# of ion       s       p       d       f       tot
--------------------------------------------------
    1        2.008   5.697   0.607   0.231   8.543
    2        2.008   5.697   0.607   0.231   8.543
    3        0.244   6.243   7.926   0.000  14.413
    4        1.561   3.406   0.000   0.000   4.967
    5        1.561   3.406   0.000   0.000   4.967
    6        1.556   3.502   0.000   0.000   5.058
    7        1.556   3.502   0.000   0.000   5.058
--------------------------------------------------
tot         10.493  31.454   9.139   0.463  51.549



 magnetization (x)

# of ion       s       p       d       f       tot
--------------------------------------------------
    1        0.001   0.000   0.001  -0.009  -0.007
    2        0.001   0.000   0.001  -0.009  -0.007
    3        0.014   0.012   1.766   0.000   1.792
    4        0.003   0.035   0.000   0.000   0.038
    5        0.003   0.035   0.000   0.000   0.038
    6        0.009   0.078   0.000   0.000   0.087
    7        0.009   0.078   0.000   0.000   0.087
--------------------------------------------------
tot          0.041   0.239   1.769  -0.019   2.030

    CHARGE:  cpu time    0.1359: real time    0.1359
    FORLOC:  cpu time    0.0007: real time    0.0007
    FORNL :  cpu time    0.4214: real time    0.4216
    STRESS:  cpu time    3.2545: real time    3.2547
    FORCOR:  cpu time    0.0159: real time    0.0159
    FORHAR:  cpu time    0.0023: real time    0.0023
    MIXING:  cpu time    0.0011: real time    0.0011
    OFIELD:  cpu time    0.0000: real time    0.0000

  FORCE on cell =-STRESS in cart. coord.  units (eV):
  Direction    XX          YY          ZZ          XY          YZ          ZX
  --------------------------------------------------------------------------------------
  Alpha Z   289.24765   289.24765   289.24765
  Ewald   -1256.63665 -1256.63665 -2210.83260    -0.00000     0.00000     0.00000
  Hartree  1057.79532  1057.79532   153.67673     0.00001    -0.00004    -0.00004
  E(xc)    -318.48808  -318.48808  -318.00928    -0.00000     0.00000     0.00000
  Local   -1114.97068 -1114.97068   739.63554     0.00001    -0.00004    -0.00004
  n-local   128.07718   125.20476   114.18364    -0.00272    -0.03370     0.03490
  augment   120.91880   120.91880   120.66967     0.00007     0.00038     0.00037
  Kinetic  1089.78074  1105.33300  1113.56460    -0.00084     0.08114    -0.08220
  Fock        0.00000     0.00000     0.00000     0.00000     0.00000     0.00000
  -------------------------------------------------------------------------------------
  Total       2.06419     2.06419     2.13595    -0.00000     0.00000     0.00000
  in kB      35.00816    35.00816    36.22521    -0.00000     0.00000     0.00000
  external pressure =       35.41 kB  Pullay stress =        0.00 kB


 VOLUME and BASIS-vectors are now :
 -----------------------------------------------------------------------------
  energy-cutoff  :      520.00
  volume of cell :       94.47
      direct lattice vectors                 reciprocal lattice vectors
     3.897753032  0.000000000  0.000000000     0.256558071 -0.000000000  0.080409522
     0.000000000  3.897753032  0.000000000    -0.000000000  0.256558071  0.080409522
    -1.948876516 -1.948876516  6.218169070     0.000000000  0.000000000  0.160819043

  length of vectors
     3.897753032  3.897753032  6.801607599     0.268863785  0.268863785  0.160819043


 FORCES acting on ions
    electron-ion (+dipol)            ewald-force                    non-local-force                 convergence-correction
 -----------------------------------------------------------------------------------------------
   -.589E-05 -.589E-05 0.344E+03   0.435E-11 0.435E-11 -.344E+03   0.343E-16 0.373E-16 0.195E+00   -.225E-06 -.225E-06 -.351E-01
   0.589E-05 0.589E-05 -.344E+03   -.436E-11 -.434E-11 0.344E+03   -.343E-16 -.356E-16 -.195E+00   0.225E-06 0.225E-06 0.351E-01
   0.390E-13 0.220E-14 -.776E-13   0.554E-14 -.727E-14 0.285E-13   0.000E+00 0.000E+00 0.000E+00   0.286E-13 0.818E-13 0.872E-13
   0.387E-04 0.387E-04 -.215E+03   0.447E-12 0.457E-12 0.215E+03   0.737E-16 0.711E-16 0.380E+00   -.522E-07 -.522E-07 0.225E-01
   -.387E-04 -.387E-04 0.215E+03   -.439E-12 -.459E-12 -.215E+03   -.737E-16 -.711E-16 -.380E+00   0.522E-07 0.522E-07 -.225E-01
   -.123E-12 -.668E-12 0.330E-11   -.584E-14 -.643E-15 -.712E-14   0.000E+00 -.847E-21 0.000E+00   0.700E-14 0.132E-13 -.798E-14
   0.700E-14 0.834E-13 0.196E-14   0.520E-14 0.716E-14 0.710E-14   -.847E-21 0.000E+00 0.000E+00   0.112E-13 -.228E-13 -.987E-14
 -----------------------------------------------------------------------------------------------
   0.103E-11 0.540E-11 0.524E-11   0.173E-14 0.143E-14 0.284E-13   -.847E-21 0.173E-17 0.000E+00   0.224E-13 0.341E-13 0.116E-12


 POSITION                                       TOTAL-FORCE (eV/Angst)
 -----------------------------------------------------------------------------------
      0.00000      0.00000      4.52027        -0.000000     -0.000000     -0.252545
      1.94888      1.94888      1.69790         0.000000      0.000000      0.252545
      0.00000      0.00000      0.00000        -0.000000     -0.000000      0.000000
      0.00000      0.00000      2.22602        -0.000000     -0.000000     -0.177059
      1.94888      1.94888      3.99215         0.000000      0.000000      0.177059
      1.94888      0.00000      0.00000        -0.000000      0.000000      0.000000
      0.00000      1.94888      0.00000         0.000000      0.000000      0.000000
 -----------------------------------------------------------------------------------
    total drift:                                0.000000      0.000000      0.000000


--------------------------------------------------------------------------------------------------------



  FREE ENERGIE OF THE ION-ELECTRON SYSTEM (eV)
  ---------------------------------------------------
  free  energy   TOTEN  =       -50.64484966 eV

  energy  without entropy=      -50.64484966  energy(sigma->0) =      -50.64484966



--------------------------------------------------------------------------------------------------------


    POTLOK:  cpu time    0.8955: real time    0.8955


--------------------------------------------------------------------------------------------------------


 stress matrix after NEB project (eV)
      2.06419      0.00000      0.00000
     -0.00000      2.06419      0.00000
      0.00000      0.00000      2.13595
  FORCES: max atom, RMS     0.252545    0.164863
  FORCE total and by dimension    0.436186    0.252545
  Stress total and by dimension    3.617189    2.135952
     LOOP+:  cpu time  106.9867: real time  107.0059
 -----------------------------------------------------------------------------
|                                                                             |
|           W    W    AA    RRRRR   N    N  II  N    N   GGGG   !!!           |
|           W    W   A  A   R    R  NN   N  II  NN   N  G    G  !!!           |
|           W    W  A    A  R    R  N N  N  II  N N  N  G       !!!           |
|           W WW W  AAAAAA  RRRRR   N  N N  II  N  N N  G  GGG   !            |
|           WW  WW  A    A  R   R   N   NN  II  N   NN  G    G                |
|           W    W  A    A  R    R  N    N  II  N    N   GGGG   !!!           |
|                                                                             |
|     Tetrahedron method does not include variations of the Fermi             |
|     occupations, so forces and stress will be inaccurate. We suggest        |
|     using a different smearing scheme ISMEAR = 1 or 2 for metals in         |
|     relaxations.                                                            |
|                                                                             |
 -----------------------------------------------------------------------------

    4ORBIT:  cpu time    0.0000: real time    0.0000



 total charge

# of ion       s       p       d       f       tot
--------------------------------------------------
    1        2.008   5.697   0.607   0.231   8.543
    2        2.008   5.697   0.607   0.231   8.543
    3        0.244   6.243   7.926   0.000  14.413
    4        1.561   3.406   0.000   0.000   4.967
    5        1.561   3.406   0.000   0.000   4.967
    6        1.556   3.502   0.000   0.000   5.058
    7        1.556   3.502   0.000   0.000   5.058
--------------------------------------------------
tot         10.493  31.454   9.139   0.463  51.549



 magnetization (x)

# of ion       s       p       d       f       tot
--------------------------------------------------
    1        0.001   0.000   0.001  -0.009  -0.007
    2        0.001   0.000   0.001  -0.009  -0.007
    3        0.014   0.012   1.766   0.000   1.792
    4        0.003   0.035   0.000   0.000   0.038
    5        0.003   0.035   0.000   0.000   0.038
    6        0.009   0.078   0.000   0.000   0.087
    7        0.009   0.078   0.000   0.000   0.087
--------------------------------------------------
tot          0.041   0.239   1.769  -0.019   2.030

 BZINTS: Fermi energy:    9.825548;   62.000000 electrons
         Band energy:-0.443991E+03;  BLOECHL correction:   -0.054892

 total amount of memory used by VASP MPI-rank0   161352. kBytes
=======================================================================

   base      :      30000. kBytes
   nonl-proj :     119729. kBytes
   fftplans  :        608. kBytes
   grid      :       5074. kBytes
   one-center:        688. kBytes
   wavefun   :       5253. kBytes

  
  
 General timing and accounting informations for this job:
 ========================================================
  
                  Total CPU time used (sec):      115.276
                            User time (sec):      110.516
                          System time (sec):        4.760
                         Elapsed time (sec):      114.718
  
                   Maximum memory used (kb):      141132.
                   Average memory used (kb):          N/A
  
                          Minor page faults:       209572
                          Major page faults:          477
                 Voluntary context switches:         3660
