   1   1   1   0
  0.1658294E+02  0.2862368E-09  0.2862368E-09  0.2862368E-09  0.5000000E-15
   1.0000000000000000E-004
  CAR 
 unknown system                          
    116.92776352     -8.87101103  301      8.00254732      1.00000000
     -8.871  0.0000E+00  0.0000E+00  0.0000E+00  0.0000E+00
     -8.452  0.0000E+00  0.0000E+00  0.0000E+00  0.0000E+00
     -8.032  0.0000E+00  0.0000E+00  0.0000E+00  0.0000E+00
     -7.613  0.0000E+00  0.0000E+00  0.0000E+00  0.0000E+00
     -7.194  0.0000E+00  0.0000E+00  0.0000E+00  0.0000E+00
     -6.774  0.0000E+00  0.0000E+00  0.0000E+00  0.0000E+00
     -6.355  0.0000E+00  0.0000E+00  0.0000E+00  0.0000E+00
     -5.936  0.0000E+00  0.0000E+00  0.0000E+00  0.0000E+00
     -5.516  0.0000E+00  0.0000E+00  0.0000E+00  0.0000E+00
     -5.097  0.0000E+00  0.0000E+00  0.0000E+00  0.0000E+00
     -4.678  0.0000E+00  0.0000E+00  0.0000E+00  0.0000E+00
     -4.258  0.0000E+00  0.0000E+00  0.0000E+00  0.0000E+00
     -3.839  0.0000E+00  0.0000E+00  0.0000E+00  0.0000E+00
     -3.420  0.0000E+00  0.0000E+00  0.0000E+00  0.0000E+00
     -3.000  0.1369E-01  0.1403E-01  0.6874E-03  0.7129E-03
     -2.581  0.4140E-01  0.4151E-01  0.1336E-01  0.1343E-01
     -2.162  0.5472E-01  0.5478E-01  0.3394E-01  0.3404E-01
     -1.742  0.6951E-01  0.6958E-01  0.5993E-01  0.6006E-01
     -1.323  0.7714E-01  0.7718E-01  0.9053E-01  0.9068E-01
     -0.904  0.8732E-01  0.8737E-01  0.1249E+00  0.1251E+00
     -0.484  0.9531E-01  0.9534E-01  0.1635E+00  0.1637E+00
     -0.065  0.1027E+00  0.1027E+00  0.2050E+00  0.2052E+00
      0.354  0.1108E+00  0.1108E+00  0.2497E+00  0.2499E+00
      0.774  0.1181E+00  0.1181E+00  0.2978E+00  0.2981E+00
      1.193  0.1239E+00  0.1240E+00  0.3486E+00  0.3488E+00
      1.612  0.1307E+00  0.1308E+00  0.4020E+00  0.4022E+00
      2.032  0.1382E+00  0.1383E+00  0.4583E+00  0.4585E+00
      2.451  0.1500E+00  0.1501E+00  0.5184E+00  0.5187E+00
      2.870  0.1634E+00  0.1634E+00  0.5843E+00  0.5846E+00
      3.290  0.1711E+00  0.1710E+00  0.6601E+00  0.6604E+00
      3.709  0.1472E+00  0.1472E+00  0.7248E+00  0.7251E+00
      4.128  0.1573E+00  0.1573E+00  0.7883E+00  0.7886E+00
      4.548  0.1896E+00  0.1895E+00  0.8589E+00  0.8592E+00
      4.967  0.1880E+00  0.1881E+00  0.9360E+00  0.9363E+00
      5.386  0.1817E+00  0.1817E+00  0.1017E+01  0.1017E+01
      5.806  0.1506E+00  0.1505E+00  0.1089E+01  0.1089E+01
      6.225  0.1432E+00  0.1433E+00  0.1148E+01  0.1148E+01
      6.644  0.2124E+00  0.2126E+00  0.1232E+01  0.1232E+01
      7.064  0.2098E+00  0.2099E+00  0.1323E+01  0.1324E+01
      7.483  0.1922E+00  0.1921E+00  0.1406E+01  0.1406E+01
      7.902  0.1708E+00  0.1707E+00  0.1483E+01  0.1483E+01
      8.321  0.1999E+00  0.2001E+00  0.1556E+01  0.1556E+01
      8.741  0.2498E+00  0.2499E+00  0.1654E+01  0.1654E+01
      9.160  0.2050E+00  0.2049E+00  0.1746E+01  0.1746E+01
      9.579  0.2118E+00  0.2118E+00  0.1833E+01  0.1833E+01
      9.999  0.2008E+00  0.2008E+00  0.1920E+01  0.1920E+01
     10.418  0.2338E+00  0.2338E+00  0.2016E+01  0.2017E+01
     10.837  0.2427E+00  0.2428E+00  0.2113E+01  0.2113E+01
     11.257  0.2396E+00  0.2396E+00  0.2217E+01  0.2217E+01
     11.676  0.2338E+00  0.2338E+00  0.2316E+01  0.2316E+01
     12.095  0.2410E+00  0.2411E+00  0.2416E+01  0.2416E+01
     12.515  0.2635E+00  0.2635E+00  0.2524E+01  0.2525E+01
     12.934  0.2795E+00  0.2796E+00  0.2637E+01  0.2638E+01
     13.353  0.2920E+00  0.2922E+00  0.2757E+01  0.2757E+01
     13.773  0.3035E+00  0.3037E+00  0.2883E+01  0.2884E+01
     14.192  0.2820E+00  0.2820E+00  0.3006E+01  0.3007E+01
     14.611  0.2746E+00  0.2746E+00  0.3123E+01  0.3123E+01
     15.031  0.2669E+00  0.2668E+00  0.3236E+01  0.3237E+01
     15.450  0.2608E+00  0.2607E+00  0.3347E+01  0.3347E+01
     15.869  0.2669E+00  0.2670E+00  0.3457E+01  0.3457E+01
     16.289  0.2635E+00  0.2634E+00  0.3569E+01  0.3569E+01
     16.708  0.2579E+00  0.2579E+00  0.3678E+01  0.3678E+01
     17.127  0.2565E+00  0.2565E+00  0.3785E+01  0.3786E+01
     17.547  0.2666E+00  0.2667E+00  0.3895E+01  0.3895E+01
     17.966  0.2778E+00  0.2779E+00  0.4009E+01  0.4010E+01
     18.385  0.2911E+00  0.2913E+00  0.4128E+01  0.4129E+01
     18.805  0.3106E+00  0.3106E+00  0.4256E+01  0.4256E+01
     19.224  0.3337E+00  0.3341E+00  0.4388E+01  0.4389E+01
     19.643  0.3890E+00  0.3889E+00  0.4541E+01  0.4543E+01
     20.063  0.3919E+00  0.3919E+00  0.4705E+01  0.4706E+01
     20.482  0.3422E+00  0.3412E+00  0.4870E+01  0.4871E+01
     20.901  0.2633E+00  0.2634E+00  0.4991E+01  0.4991E+01
     21.321  0.3084E+00  0.3128E+00  0.5099E+01  0.5100E+01
     21.740  0.2681E+00  0.2682E+00  0.5217E+01  0.5218E+01
     22.159  0.2540E+00  0.2543E+00  0.5325E+01  0.5325E+01
     22.579  0.3797E+00  0.3800E+00  0.5460E+01  0.5461E+01
     22.998  0.4316E+00  0.4318E+00  0.5631E+01  0.5632E+01
     23.417  0.3270E+00  0.3256E+00  0.5792E+01  0.5794E+01
     23.837  0.2891E+00  0.2900E+00  0.5913E+01  0.5914E+01
     24.256  0.3056E+00  0.3055E+00  0.6043E+01  0.6044E+01
     24.675  0.3007E+00  0.2987E+00  0.6168E+01  0.6170E+01
     25.095  0.3673E+00  0.3663E+00  0.6304E+01  0.6306E+01
     25.514  0.4554E+00  0.4555E+00  0.6479E+01  0.6481E+01
     25.933  0.4228E+00  0.4223E+00  0.6665E+01  0.6667E+01
     26.353  0.3997E+00  0.4000E+00  0.6834E+01  0.6836E+01
     26.772  0.3355E+00  0.3351E+00  0.6994E+01  0.6995E+01
     27.191  0.3204E+00  0.3201E+00  0.7133E+01  0.7134E+01
     27.611  0.2922E+00  0.2918E+00  0.7263E+01  0.7264E+01
     28.030  0.2908E+00  0.2912E+00  0.7383E+01  0.7384E+01
     28.449  0.4311E+00  0.4356E+00  0.7529E+01  0.7530E+01
     28.869  0.4169E+00  0.4132E+00  0.7732E+01  0.7734E+01
     29.288  0.5104E+00  0.5093E+00  0.7913E+01  0.7915E+01
     29.707  0.4235E+00  0.4234E+00  0.8100E+01  0.8102E+01
     30.127  0.4078E+00  0.4076E+00  0.8276E+01  0.8277E+01
     30.546  0.3510E+00  0.3507E+00  0.8434E+01  0.8436E+01
     30.965  0.3504E+00  0.3508E+00  0.8578E+01  0.8580E+01
     31.385  0.3988E+00  0.3989E+00  0.8735E+01  0.8737E+01
     31.804  0.4148E+00  0.4156E+00  0.8903E+01  0.8905E+01
     32.223  0.5476E+00  0.5460E+00  0.9130E+01  0.9132E+01
     32.643  0.4017E+00  0.4012E+00  0.9313E+01  0.9315E+01
     33.062  0.3615E+00  0.3593E+00  0.9478E+01  0.9480E+01
     33.481  0.3132E+00  0.3126E+00  0.9618E+01  0.9619E+01
     33.901  0.2558E+00  0.2554E+00  0.9735E+01  0.9736E+01
     34.320  0.2924E+00  0.2919E+00  0.9846E+01  0.9847E+01
     34.739  0.1857E+00  0.1855E+00  0.9942E+01  0.9943E+01
     35.159  0.1679E+00  0.1678E+00  0.1001E+02  0.1002E+02
     35.578  0.1712E+00  0.1713E+00  0.1009E+02  0.1009E+02
     35.997  0.1923E+00  0.1925E+00  0.1016E+02  0.1016E+02
     36.417  0.2432E+00  0.2436E+00  0.1025E+02  0.1025E+02
     36.836  0.2451E+00  0.2451E+00  0.1035E+02  0.1035E+02
     37.255  0.2635E+00  0.2635E+00  0.1046E+02  0.1046E+02
     37.675  0.2894E+00  0.2895E+00  0.1057E+02  0.1057E+02
     38.094  0.3996E+00  0.3997E+00  0.1072E+02  0.1072E+02
     38.513  0.3950E+00  0.3949E+00  0.1087E+02  0.1087E+02
     38.933  0.3142E+00  0.3139E+00  0.1102E+02  0.1102E+02
     39.352  0.3763E+00  0.3767E+00  0.1115E+02  0.1115E+02
     39.771  0.5304E+00  0.5314E+00  0.1134E+02  0.1134E+02
     40.191  0.4972E+00  0.4971E+00  0.1156E+02  0.1156E+02
     40.610  0.4284E+00  0.4284E+00  0.1175E+02  0.1175E+02
     41.029  0.4519E+00  0.4523E+00  0.1193E+02  0.1193E+02
     41.448  0.6302E+00  0.6373E+00  0.1215E+02  0.1215E+02
     41.868  0.5086E+00  0.5087E+00  0.1237E+02  0.1237E+02
     42.287  0.5197E+00  0.5192E+00  0.1259E+02  0.1259E+02
     42.706  0.4547E+00  0.4578E+00  0.1277E+02  0.1277E+02
     43.126  0.4428E+00  0.4420E+00  0.1299E+02  0.1299E+02
     43.545  0.4289E+00  0.4298E+00  0.1316E+02  0.1316E+02
     43.964  0.5050E+00  0.5053E+00  0.1336E+02  0.1337E+02
     44.384  0.4362E+00  0.4359E+00  0.1356E+02  0.1356E+02
     44.803  0.3933E+00  0.3928E+00  0.1374E+02  0.1374E+02
     45.222  0.3862E+00  0.3866E+00  0.1389E+02  0.1390E+02
     45.642  0.4998E+00  0.5002E+00  0.1408E+02  0.1408E+02
     46.061  0.5750E+00  0.5749E+00  0.1431E+02  0.1431E+02
     46.480  0.5458E+00  0.5456E+00  0.1454E+02  0.1454E+02
     46.900  0.4390E+00  0.4386E+00  0.1475E+02  0.1475E+02
     47.319  0.4218E+00  0.4224E+00  0.1493E+02  0.1493E+02
     47.738  0.4575E+00  0.4571E+00  0.1512E+02  0.1512E+02
     48.158  0.4617E+00  0.4620E+00  0.1531E+02  0.1531E+02
     48.577  0.5483E+00  0.5488E+00  0.1552E+02  0.1552E+02
     48.996  0.4612E+00  0.4608E+00  0.1574E+02  0.1574E+02
     49.416  0.3999E+00  0.4017E+00  0.1591E+02  0.1591E+02
     49.835  0.6534E+00  0.6607E+00  0.1612E+02  0.1612E+02
     50.254  0.3151E+00  0.3153E+00  0.1627E+02  0.1627E+02
     50.674  0.3837E+00  0.3843E+00  0.1641E+02  0.1641E+02
     51.093  0.5406E+00  0.5416E+00  0.1660E+02  0.1660E+02
     51.512  0.6486E+00  0.6487E+00  0.1685E+02  0.1685E+02
     51.932  0.4535E+00  0.4541E+00  0.1708E+02  0.1709E+02
     52.351  0.3932E+00  0.3935E+00  0.1725E+02  0.1725E+02
     52.770  0.4752E+00  0.4756E+00  0.1744E+02  0.1744E+02
     53.190  0.7213E+00  0.7212E+00  0.1771E+02  0.1771E+02
     53.609  0.9613E+00  0.9621E+00  0.1804E+02  0.1804E+02
     54.028  0.9292E+00  0.9278E+00  0.1848E+02  0.1848E+02
     54.448  0.9014E+00  0.9018E+00  0.1881E+02  0.1882E+02
     54.867  0.1039E+01  0.1040E+01  0.1919E+02  0.1919E+02
     55.286  0.9434E+00  0.9434E+00  0.1963E+02  0.1963E+02
     55.706  0.9666E+00  0.9669E+00  0.2003E+02  0.2003E+02
     56.125  0.1773E+01  0.1773E+01  0.2055E+02  0.2056E+02
     56.544  0.1096E+01  0.1096E+01  0.2118E+02  0.2118E+02
     56.964  0.1436E+01  0.1423E+01  0.2165E+02  0.2165E+02
     57.383  0.9012E+00  0.9043E+00  0.2202E+02  0.2203E+02
     57.802  0.7517E+00  0.7504E+00  0.2240E+02  0.2240E+02
     58.222  0.6463E+00  0.6474E+00  0.2266E+02  0.2266E+02
     58.641  0.6613E+00  0.6625E+00  0.2292E+02  0.2292E+02
     59.060  0.9245E+00  0.9255E+00  0.2325E+02  0.2325E+02
     59.480  0.8861E+00  0.8916E+00  0.2362E+02  0.2362E+02
     59.899  0.6277E+00  0.6360E+00  0.2392E+02  0.2392E+02
     60.318  0.4745E+00  0.4746E+00  0.2413E+02  0.2413E+02
     60.738  0.5358E+00  0.5362E+00  0.2434E+02  0.2434E+02
     61.157  0.6235E+00  0.6234E+00  0.2459E+02  0.2459E+02
     61.576  0.7008E+00  0.7012E+00  0.2487E+02  0.2487E+02
     61.996  0.5742E+00  0.5733E+00  0.2515E+02  0.2515E+02
     62.415  0.4779E+00  0.4777E+00  0.2536E+02  0.2536E+02
     62.834  0.5487E+00  0.5488E+00  0.2557E+02  0.2557E+02
     63.254  0.5575E+00  0.5569E+00  0.2581E+02  0.2581E+02
     63.673  0.5270E+00  0.5265E+00  0.2604E+02  0.2604E+02
     64.092  0.4869E+00  0.4870E+00  0.2625E+02  0.2625E+02
     64.512  0.5445E+00  0.5449E+00  0.2646E+02  0.2646E+02
     64.931  0.5779E+00  0.5774E+00  0.2672E+02  0.2672E+02
     65.350  0.4460E+00  0.4457E+00  0.2692E+02  0.2692E+02
     65.770  0.4692E+00  0.4693E+00  0.2711E+02  0.2711E+02
     66.189  0.5055E+00  0.5054E+00  0.2732E+02  0.2732E+02
     66.608  0.4776E+00  0.4773E+00  0.2752E+02  0.2753E+02
     67.028  0.3832E+00  0.3832E+00  0.2770E+02  0.2770E+02
     67.447  0.3897E+00  0.3897E+00  0.2786E+02  0.2786E+02
     67.866  0.3908E+00  0.3908E+00  0.2802E+02  0.2803E+02
     68.286  0.4313E+00  0.4315E+00  0.2820E+02  0.2820E+02
     68.705  0.5802E+00  0.5800E+00  0.2841E+02  0.2841E+02
     69.124  0.5167E+00  0.5307E+00  0.2864E+02  0.2864E+02
     69.544  0.4933E+00  0.4929E+00  0.2885E+02  0.2885E+02
     69.963  0.4736E+00  0.4736E+00  0.2905E+02  0.2905E+02
     70.382  0.5358E+00  0.5356E+00  0.2925E+02  0.2925E+02
     70.802  0.4996E+00  0.4997E+00  0.2947E+02  0.2947E+02
     71.221  0.5226E+00  0.5229E+00  0.2968E+02  0.2968E+02
     71.640  0.5302E+00  0.5303E+00  0.2990E+02  0.2991E+02
     72.060  0.5182E+00  0.5180E+00  0.3012E+02  0.3012E+02
     72.479  0.4684E+00  0.4680E+00  0.3033E+02  0.3033E+02
     72.898  0.4242E+00  0.4240E+00  0.3052E+02  0.3052E+02
     73.318  0.3673E+00  0.3670E+00  0.3069E+02  0.3069E+02
     73.737  0.4276E+00  0.4274E+00  0.3086E+02  0.3086E+02
     74.156  0.3928E+00  0.3929E+00  0.3103E+02  0.3103E+02
     74.576  0.3973E+00  0.3977E+00  0.3119E+02  0.3119E+02
     74.995  0.5247E+00  0.5241E+00  0.3141E+02  0.3141E+02
     75.414  0.4634E+00  0.4635E+00  0.3160E+02  0.3160E+02
     75.833  0.4780E+00  0.4783E+00  0.3180E+02  0.3180E+02
     76.253  0.7290E+00  0.7282E+00  0.3204E+02  0.3204E+02
     76.672  0.5440E+00  0.5515E+00  0.3229E+02  0.3229E+02
     77.091  0.4703E+00  0.4623E+00  0.3251E+02  0.3251E+02
     77.511  0.4347E+00  0.4349E+00  0.3269E+02  0.3269E+02
     77.930  0.6460E+00  0.6475E+00  0.3290E+02  0.3290E+02
     78.349  0.6743E+00  0.6737E+00  0.3318E+02  0.3319E+02
     78.769  0.5569E+00  0.5562E+00  0.3342E+02  0.3343E+02
     79.188  0.5102E+00  0.5081E+00  0.3367E+02  0.3367E+02
     79.607  0.4533E+00  0.4536E+00  0.3386E+02  0.3386E+02
     80.027  0.4887E+00  0.4877E+00  0.3406E+02  0.3406E+02
     80.446  0.5002E+00  0.5007E+00  0.3426E+02  0.3426E+02
     80.865  0.5722E+00  0.5723E+00  0.3448E+02  0.3448E+02
     81.285  0.6205E+00  0.6208E+00  0.3473E+02  0.3473E+02
     81.704  0.6655E+00  0.6645E+00  0.3500E+02  0.3501E+02
     82.123  0.6303E+00  0.6291E+00  0.3528E+02  0.3528E+02
     82.543  0.5458E+00  0.5458E+00  0.3552E+02  0.3552E+02
     82.962  0.5025E+00  0.5026E+00  0.3575E+02  0.3575E+02
     83.381  0.6657E+00  0.6664E+00  0.3598E+02  0.3598E+02
     83.801  0.6535E+00  0.6534E+00  0.3624E+02  0.3624E+02
     84.220  0.5973E+00  0.5970E+00  0.3652E+02  0.3652E+02
     84.639  0.4960E+00  0.4956E+00  0.3674E+02  0.3674E+02
     85.059  0.3791E+00  0.3787E+00  0.3693E+02  0.3693E+02
     85.478  0.3914E+00  0.3916E+00  0.3709E+02  0.3709E+02
     85.897  0.4654E+00  0.4658E+00  0.3726E+02  0.3727E+02
     86.317  0.4778E+00  0.4781E+00  0.3746E+02  0.3746E+02
     86.736  0.4705E+00  0.4707E+00  0.3766E+02  0.3766E+02
     87.155  0.5640E+00  0.5646E+00  0.3787E+02  0.3787E+02
     87.575  0.5730E+00  0.5725E+00  0.3811E+02  0.3811E+02
     87.994  0.5941E+00  0.5937E+00  0.3836E+02  0.3836E+02
     88.413  0.7251E+00  0.7272E+00  0.3862E+02  0.3863E+02
     88.833  0.7426E+00  0.7411E+00  0.3896E+02  0.3896E+02
     89.252  0.5135E+00  0.5136E+00  0.3920E+02  0.3920E+02
     89.671  0.5868E+00  0.5869E+00  0.3943E+02  0.3943E+02
     90.091  0.6841E+00  0.6832E+00  0.3970E+02  0.3970E+02
     90.510  0.5025E+00  0.5020E+00  0.3994E+02  0.3995E+02
     90.929  0.5128E+00  0.5173E+00  0.4015E+02  0.4015E+02
     91.349  0.4560E+00  0.4561E+00  0.4035E+02  0.4035E+02
     91.768  0.5108E+00  0.5110E+00  0.4055E+02  0.4055E+02
     92.187  0.5249E+00  0.5256E+00  0.4076E+02  0.4076E+02
     92.607  0.6219E+00  0.6222E+00  0.4101E+02  0.4101E+02
     93.026  0.5377E+00  0.5372E+00  0.4126E+02  0.4126E+02
     93.445  0.4021E+00  0.4019E+00  0.4144E+02  0.4144E+02
     93.865  0.4227E+00  0.4230E+00  0.4161E+02  0.4161E+02
     94.284  0.6468E+00  0.6487E+00  0.4182E+02  0.4183E+02
     94.703  0.6726E+00  0.6724E+00  0.4212E+02  0.4212E+02
     95.123  0.6016E+00  0.6014E+00  0.4238E+02  0.4238E+02
     95.542  0.6188E+00  0.6190E+00  0.4264E+02  0.4264E+02
     95.961  0.7348E+00  0.7344E+00  0.4291E+02  0.4291E+02
     96.381  0.7187E+00  0.7190E+00  0.4322E+02  0.4322E+02
     96.800  0.6176E+00  0.6175E+00  0.4350E+02  0.4350E+02
     97.219  0.5987E+00  0.5995E+00  0.4374E+02  0.4375E+02
     97.639  0.5909E+00  0.5908E+00  0.4401E+02  0.4401E+02
     98.058  0.4361E+00  0.4360E+00  0.4422E+02  0.4422E+02
     98.477  0.4298E+00  0.4297E+00  0.4440E+02  0.4440E+02
     98.897  0.4214E+00  0.4216E+00  0.4458E+02  0.4458E+02
     99.316  0.5408E+00  0.5406E+00  0.4479E+02  0.4480E+02
     99.735  0.6353E+00  0.6358E+00  0.4503E+02  0.4503E+02
    100.155  0.6533E+00  0.6532E+00  0.4531E+02  0.4531E+02
    100.574  0.6602E+00  0.6602E+00  0.4558E+02  0.4559E+02
    100.993  0.5703E+00  0.5693E+00  0.4585E+02  0.4585E+02
    101.413  0.5119E+00  0.5118E+00  0.4608E+02  0.4608E+02
    101.832  0.5101E+00  0.5102E+00  0.4629E+02  0.4629E+02
    102.251  0.4795E+00  0.4793E+00  0.4650E+02  0.4650E+02
    102.671  0.5355E+00  0.5357E+00  0.4671E+02  0.4672E+02
    103.090  0.4900E+00  0.4905E+00  0.4693E+02  0.4693E+02
    103.509  0.4528E+00  0.4523E+00  0.4713E+02  0.4714E+02
    103.929  0.3722E+00  0.3722E+00  0.4730E+02  0.4730E+02
    104.348  0.4226E+00  0.4231E+00  0.4746E+02  0.4747E+02
    104.767  0.3809E+00  0.3807E+00  0.4764E+02  0.4764E+02
    105.187  0.3060E+00  0.3036E+00  0.4778E+02  0.4778E+02
    105.606  0.2070E+00  0.2065E+00  0.4789E+02  0.4789E+02
    106.025  0.6958E-01  0.6895E-01  0.4795E+02  0.4795E+02
    106.445  0.3599E-01  0.3593E-01  0.4797E+02  0.4797E+02
    106.864  0.1447E-01  0.1445E-01  0.4798E+02  0.4798E+02
    107.283  0.1134E-01  0.1132E-01  0.4798E+02  0.4798E+02
    107.703  0.8746E-02  0.8731E-02  0.4799E+02  0.4799E+02
    108.122  0.6700E-02  0.6688E-02  0.4799E+02  0.4799E+02
    108.541  0.5198E-02  0.5189E-02  0.4799E+02  0.4799E+02
    108.961  0.4176E-02  0.4169E-02  0.4800E+02  0.4800E+02
    109.380  0.3270E-02  0.3263E-02  0.4800E+02  0.4800E+02
    109.799  0.2423E-02  0.2416E-02  0.4800E+02  0.4800E+02
    110.218  0.1633E-02  0.1626E-02  0.4800E+02  0.4800E+02
    110.638  0.9026E-03  0.8958E-03  0.4800E+02  0.4800E+02
    111.057  0.2301E-03  0.2238E-03  0.4800E+02  0.4800E+02
    111.476  0.0000E+00  0.0000E+00  0.4800E+02  0.4800E+02
    111.896  0.0000E+00  0.0000E+00  0.4800E+02  0.4800E+02
    112.315  0.0000E+00  0.0000E+00  0.4800E+02  0.4800E+02
    112.734  0.0000E+00  0.0000E+00  0.4800E+02  0.4800E+02
    113.154  0.0000E+00  0.0000E+00  0.4800E+02  0.4800E+02
    113.573  0.0000E+00  0.0000E+00  0.4800E+02  0.4800E+02
    113.992  0.0000E+00  0.0000E+00  0.4800E+02  0.4800E+02
    114.412  0.0000E+00  0.0000E+00  0.4800E+02  0.4800E+02
    114.831  0.0000E+00  0.0000E+00  0.4800E+02  0.4800E+02
    115.250  0.0000E+00  0.0000E+00  0.4800E+02  0.4800E+02
    115.670  0.0000E+00  0.0000E+00  0.4800E+02  0.4800E+02
    116.089  0.0000E+00  0.0000E+00  0.4800E+02  0.4800E+02
    116.508  0.0000E+00  0.0000E+00  0.4800E+02  0.4800E+02
    116.928  0.0000E+00  0.0000E+00  0.4800E+02  0.4800E+02
    116.92776352     -8.87101103  301      8.00254732      1.00000000
     -8.871  0.0000E+00  0.0000E+00  0.0000E+00  0.0000E+00  0.0000E+00  0.0000E+00  0.0000E+00  0.0000E+00  0.0000E+00  0.0000E+00  0.0000E+00  0.0000E+00  0.0000E+00  0.0000E+00  0.0000E+00  0.0000E+00  0.0000E+00  0.0000E+00
     -8.452  0.0000E+00  0.0000E+00  0.0000E+00  0.0000E+00  0.0000E+00  0.0000E+00  0.0000E+00  0.0000E+00  0.0000E+00  0.0000E+00  0.0000E+00  0.0000E+00  0.0000E+00  0.0000E+00  0.0000E+00  0.0000E+00  0.0000E+00  0.0000E+00
     -8.032  0.0000E+00  0.0000E+00  0.0000E+00  0.0000E+00  0.0000E+00  0.0000E+00  0.0000E+00  0.0000E+00  0.0000E+00  0.0000E+00  0.0000E+00  0.0000E+00  0.0000E+00  0.0000E+00  0.0000E+00  0.0000E+00  0.0000E+00  0.0000E+00
     -7.613  0.0000E+00  0.0000E+00  0.0000E+00  0.0000E+00  0.0000E+00  0.0000E+00  0.0000E+00  0.0000E+00  0.0000E+00  0.0000E+00  0.0000E+00  0.0000E+00  0.0000E+00  0.0000E+00  0.0000E+00  0.0000E+00  0.0000E+00  0.0000E+00
     -7.194  0.0000E+00  0.0000E+00  0.0000E+00  0.0000E+00  0.0000E+00  0.0000E+00  0.0000E+00  0.0000E+00  0.0000E+00  0.0000E+00  0.0000E+00  0.0000E+00  0.0000E+00  0.0000E+00  0.0000E+00  0.0000E+00  0.0000E+00  0.0000E+00
     -6.774  0.0000E+00  0.0000E+00  0.0000E+00  0.0000E+00  0.0000E+00  0.0000E+00  0.0000E+00  0.0000E+00  0.0000E+00  0.0000E+00  0.0000E+00  0.0000E+00  0.0000E+00  0.0000E+00  0.0000E+00  0.0000E+00  0.0000E+00  0.0000E+00
     -6.355  0.0000E+00  0.0000E+00  0.0000E+00  0.0000E+00  0.0000E+00  0.0000E+00  0.0000E+00  0.0000E+00  0.0000E+00  0.0000E+00  0.0000E+00  0.0000E+00  0.0000E+00  0.0000E+00  0.0000E+00  0.0000E+00  0.0000E+00  0.0000E+00
     -5.936  0.0000E+00  0.0000E+00  0.0000E+00  0.0000E+00  0.0000E+00  0.0000E+00  0.0000E+00  0.0000E+00  0.0000E+00  0.0000E+00  0.0000E+00  0.0000E+00  0.0000E+00  0.0000E+00  0.0000E+00  0.0000E+00  0.0000E+00  0.0000E+00
     -5.516  0.0000E+00  0.0000E+00  0.0000E+00  0.0000E+00  0.0000E+00  0.0000E+00  0.0000E+00  0.0000E+00  0.0000E+00  0.0000E+00  0.0000E+00  0.0000E+00  0.0000E+00  0.0000E+00  0.0000E+00  0.0000E+00  0.0000E+00  0.0000E+00
     -5.097  0.0000E+00  0.0000E+00  0.0000E+00  0.0000E+00  0.0000E+00  0.0000E+00  0.0000E+00  0.0000E+00  0.0000E+00  0.0000E+00  0.0000E+00  0.0000E+00  0.0000E+00  0.0000E+00  0.0000E+00  0.0000E+00  0.0000E+00  0.0000E+00
     -4.678  0.0000E+00  0.0000E+00  0.0000E+00  0.0000E+00  0.0000E+00  0.0000E+00  0.0000E+00  0.0000E+00  0.0000E+00  0.0000E+00  0.0000E+00  0.0000E+00  0.0000E+00  0.0000E+00  0.0000E+00  0.0000E+00  0.0000E+00  0.0000E+00
     -4.258  0.0000E+00  0.0000E+00  0.0000E+00  0.0000E+00  0.0000E+00  0.0000E+00  0.0000E+00  0.0000E+00  0.0000E+00  0.0000E+00  0.0000E+00  0.0000E+00  0.0000E+00  0.0000E+00  0.0000E+00  0.0000E+00  0.0000E+00  0.0000E+00
     -3.839  0.0000E+00  0.0000E+00  0.0000E+00  0.0000E+00  0.0000E+00  0.0000E+00  0.0000E+00  0.0000E+00  0.0000E+00  0.0000E+00  0.0000E+00  0.0000E+00  0.0000E+00  0.0000E+00  0.0000E+00  0.0000E+00  0.0000E+00  0.0000E+00
     -3.420  0.0000E+00  0.0000E+00  0.0000E+00  0.0000E+00  0.0000E+00  0.0000E+00  0.0000E+00  0.0000E+00  0.0000E+00  0.0000E+00  0.0000E+00  0.0000E+00  0.0000E+00  0.0000E+00  0.0000E+00  0.0000E+00  0.0000E+00  0.0000E+00
     -3.000  0.3635E-02  0.3727E-02  0.1723E-04  0.1766E-04  0.1723E-04  0.1766E-04  0.1723E-04  0.1766E-04  0.0000E+00  0.0000E+00  0.0000E+00  0.0000E+00  0.0000E+00  0.0000E+00  0.0000E+00  0.0000E+00  0.0000E+00  0.0000E+00
     -2.581  0.1067E-01  0.1070E-01  0.1618E-03  0.1626E-03  0.1618E-03  0.1626E-03  0.1618E-03  0.1626E-03  0.0000E+00  0.0000E+00  0.0000E+00  0.0000E+00  0.0000E+00  0.0000E+00  0.0000E+00  0.0000E+00  0.0000E+00  0.0000E+00
     -2.162  0.1359E-01  0.1361E-01  0.3842E-03  0.3854E-03  0.3842E-03  0.3854E-03  0.3842E-03  0.3854E-03  0.0000E+00  0.0000E+00  0.0000E+00  0.0000E+00  0.0000E+00  0.0000E+00  0.0000E+00  0.0000E+00  0.0000E+00  0.0000E+00
     -1.742  0.1684E-01  0.1687E-01  0.6258E-03  0.6272E-03  0.6258E-03  0.6272E-03  0.6258E-03  0.6272E-03  0.0000E+00  0.0000E+00  0.0000E+00  0.0000E+00  0.0000E+00  0.0000E+00  0.0000E+00  0.0000E+00  0.0000E+00  0.0000E+00
     -1.323  0.1790E-01  0.1792E-01  0.9500E-03  0.9518E-03  0.9500E-03  0.9518E-03  0.9500E-03  0.9518E-03  0.0000E+00  0.0000E+00  0.0000E+00  0.0000E+00  0.0000E+00  0.0000E+00  0.0000E+00  0.0000E+00  0.0000E+00  0.0000E+00
     -0.904  0.1965E-01  0.1967E-01  0.1269E-02  0.1271E-02  0.1269E-02  0.1271E-02  0.1269E-02  0.1271E-02  0.0000E+00  0.0000E+00  0.0000E+00  0.0000E+00  0.0000E+00  0.0000E+00  0.0000E+00  0.0000E+00  0.0000E+00  0.0000E+00
     -0.484  0.2062E-01  0.2064E-01  0.1646E-02  0.1648E-02  0.1646E-02  0.1648E-02  0.1646E-02  0.1648E-02  0.0000E+00  0.0000E+00  0.0000E+00  0.0000E+00  0.0000E+00  0.0000E+00  0.0000E+00  0.0000E+00  0.0000E+00  0.0000E+00
     -0.065  0.2134E-01  0.2136E-01  0.2044E-02  0.2046E-02  0.2044E-02  0.2046E-02  0.2044E-02  0.2046E-02  0.0000E+00  0.0000E+00  0.0000E+00  0.0000E+00  0.0000E+00  0.0000E+00  0.0000E+00  0.0000E+00  0.0000E+00  0.0000E+00
      0.354  0.2222E-01  0.2224E-01  0.2446E-02  0.2449E-02  0.2446E-02  0.2449E-02  0.2446E-02  0.2449E-02  0.0000E+00  0.0000E+00  0.0000E+00  0.0000E+00  0.0000E+00  0.0000E+00  0.0000E+00  0.0000E+00  0.0000E+00  0.0000E+00
      0.774  0.2273E-01  0.2275E-01  0.2889E-02  0.2892E-02  0.2889E-02  0.2892E-02  0.2889E-02  0.2892E-02  0.0000E+00  0.0000E+00  0.0000E+00  0.0000E+00  0.0000E+00  0.0000E+00  0.0000E+00  0.0000E+00  0.0000E+00  0.0000E+00
      1.193  0.2267E-01  0.2269E-01  0.3382E-02  0.3385E-02  0.3382E-02  0.3385E-02  0.3382E-02  0.3385E-02  0.0000E+00  0.0000E+00  0.0000E+00  0.0000E+00  0.0000E+00  0.0000E+00  0.0000E+00  0.0000E+00  0.0000E+00  0.0000E+00
      1.612  0.2280E-01  0.2282E-01  0.3880E-02  0.3883E-02  0.3880E-02  0.3883E-02  0.3880E-02  0.3883E-02  0.0000E+00  0.0000E+00  0.0000E+00  0.0000E+00  0.0000E+00  0.0000E+00  0.0000E+00  0.0000E+00  0.0000E+00  0.0000E+00
      2.032  0.2295E-01  0.2297E-01  0.4423E-02  0.4427E-02  0.4423E-02  0.4427E-02  0.4423E-02  0.4427E-02  0.0000E+00  0.0000E+00  0.0000E+00  0.0000E+00  0.0000E+00  0.0000E+00  0.0000E+00  0.0000E+00  0.0000E+00  0.0000E+00
      2.451  0.2325E-01  0.2328E-01  0.5235E-02  0.5241E-02  0.5235E-02  0.5241E-02  0.5235E-02  0.5241E-02  0.0000E+00  0.0000E+00  0.0000E+00  0.0000E+00  0.0000E+00  0.0000E+00  0.0000E+00  0.0000E+00  0.0000E+00  0.0000E+00
      2.870  0.2342E-01  0.2345E-01  0.6193E-02  0.6198E-02  0.6193E-02  0.6198E-02  0.6193E-02  0.6198E-02  0.0000E+00  0.0000E+00  0.0000E+00  0.0000E+00  0.0000E+00  0.0000E+00  0.0000E+00  0.0000E+00  0.0000E+00  0.0000E+00
      3.290  0.2264E-01  0.2265E-01  0.6964E-02  0.6962E-02  0.6964E-02  0.6962E-02  0.6964E-02  0.6962E-02  0.0000E+00  0.0000E+00  0.0000E+00  0.0000E+00  0.0000E+00  0.0000E+00  0.0000E+00  0.0000E+00  0.0000E+00  0.0000E+00
      3.709  0.1811E-01  0.1813E-01  0.6362E-02  0.6362E-02  0.6362E-02  0.6362E-02  0.6362E-02  0.6362E-02  0.0000E+00  0.0000E+00  0.0000E+00  0.0000E+00  0.0000E+00  0.0000E+00  0.0000E+00  0.0000E+00  0.0000E+00  0.0000E+00
      4.128  0.1757E-01  0.1759E-01  0.7265E-02  0.7268E-02  0.7265E-02  0.7268E-02  0.7265E-02  0.7268E-02  0.0000E+00  0.0000E+00  0.0000E+00  0.0000E+00  0.0000E+00  0.0000E+00  0.0000E+00  0.0000E+00  0.0000E+00  0.0000E+00
      4.548  0.1984E-01  0.1984E-01  0.9180E-02  0.9177E-02  0.9180E-02  0.9177E-02  0.9180E-02  0.9177E-02  0.0000E+00  0.0000E+00  0.0000E+00  0.0000E+00  0.0000E+00  0.0000E+00  0.0000E+00  0.0000E+00  0.0000E+00  0.0000E+00
      4.967  0.1933E-01  0.1935E-01  0.9262E-02  0.9268E-02  0.9262E-02  0.9268E-02  0.9262E-02  0.9268E-02  0.0000E+00  0.0000E+00  0.0000E+00  0.0000E+00  0.0000E+00  0.0000E+00  0.0000E+00  0.0000E+00  0.0000E+00  0.0000E+00
      5.386  0.1875E-01  0.1876E-01  0.8893E-02  0.8898E-02  0.8893E-02  0.8898E-02  0.8893E-02  0.8898E-02  0.0000E+00  0.0000E+00  0.0000E+00  0.0000E+00  0.0000E+00  0.0000E+00  0.0000E+00  0.0000E+00  0.0000E+00  0.0000E+00
      5.806  0.1573E-01  0.1573E-01  0.7292E-02  0.7288E-02  0.7292E-02  0.7288E-02  0.7292E-02  0.7288E-02  0.0000E+00  0.0000E+00  0.0000E+00  0.0000E+00  0.0000E+00  0.0000E+00  0.0000E+00  0.0000E+00  0.0000E+00  0.0000E+00
      6.225  0.1563E-01  0.1564E-01  0.6772E-02  0.6781E-02  0.6772E-02  0.6781E-02  0.6772E-02  0.6781E-02  0.0000E+00  0.0000E+00  0.0000E+00  0.0000E+00  0.0000E+00  0.0000E+00  0.0000E+00  0.0000E+00  0.0000E+00  0.0000E+00
      6.644  0.1942E-01  0.1944E-01  0.1080E-01  0.1082E-01  0.1080E-01  0.1082E-01  0.1080E-01  0.1082E-01  0.0000E+00  0.0000E+00  0.0000E+00  0.0000E+00  0.0000E+00  0.0000E+00  0.0000E+00  0.0000E+00  0.0000E+00  0.0000E+00
      7.064  0.1796E-01  0.1800E-01  0.1066E-01  0.1066E-01  0.1066E-01  0.1066E-01  0.1066E-01  0.1066E-01  0.0000E+00  0.0000E+00  0.0000E+00  0.0000E+00  0.0000E+00  0.0000E+00  0.0000E+00  0.0000E+00  0.0000E+00  0.0000E+00
      7.483  0.1743E-01  0.1743E-01  0.9261E-02  0.9266E-02  0.9261E-02  0.9266E-02  0.9261E-02  0.9266E-02  0.0000E+00  0.0000E+00  0.0000E+00  0.0000E+00  0.0000E+00  0.0000E+00  0.0000E+00  0.0000E+00  0.0000E+00  0.0000E+00
      7.902  0.1390E-01  0.1391E-01  0.8622E-02  0.8622E-02  0.8622E-02  0.8622E-02  0.8622E-02  0.8622E-02  0.0000E+00  0.0000E+00  0.0000E+00  0.0000E+00  0.0000E+00  0.0000E+00  0.0000E+00  0.0000E+00  0.0000E+00  0.0000E+00
      8.321  0.2003E-01  0.2008E-01  0.9178E-02  0.9195E-02  0.9178E-02  0.9195E-02  0.9178E-02  0.9195E-02  0.0000E+00  0.0000E+00  0.0000E+00  0.0000E+00  0.0000E+00  0.0000E+00  0.0000E+00  0.0000E+00  0.0000E+00  0.0000E+00
      8.741  0.2575E-01  0.2578E-01  0.1144E-01  0.1145E-01  0.1144E-01  0.1145E-01  0.1144E-01  0.1145E-01  0.0000E+00  0.0000E+00  0.0000E+00  0.0000E+00  0.0000E+00  0.0000E+00  0.0000E+00  0.0000E+00  0.0000E+00  0.0000E+00
      9.160  0.1907E-01  0.1908E-01  0.9759E-02  0.9766E-02  0.9759E-02  0.9766E-02  0.9759E-02  0.9766E-02  0.0000E+00  0.0000E+00  0.0000E+00  0.0000E+00  0.0000E+00  0.0000E+00  0.0000E+00  0.0000E+00  0.0000E+00  0.0000E+00
      9.579  0.1904E-01  0.1906E-01  0.1020E-01  0.1021E-01  0.1020E-01  0.1021E-01  0.1020E-01  0.1021E-01  0.0000E+00  0.0000E+00  0.0000E+00  0.0000E+00  0.0000E+00  0.0000E+00  0.0000E+00  0.0000E+00  0.0000E+00  0.0000E+00
      9.999  0.1762E-01  0.1763E-01  0.9734E-02  0.9742E-02  0.9734E-02  0.9742E-02  0.9734E-02  0.9742E-02  0.0000E+00  0.0000E+00  0.0000E+00  0.0000E+00  0.0000E+00  0.0000E+00  0.0000E+00  0.0000E+00  0.0000E+00  0.0000E+00
     10.418  0.2554E-01  0.2555E-01  0.1119E-01  0.1120E-01  0.1119E-01  0.1120E-01  0.1119E-01  0.1120E-01  0.0000E+00  0.0000E+00  0.0000E+00  0.0000E+00  0.0000E+00  0.0000E+00  0.0000E+00  0.0000E+00  0.0000E+00  0.0000E+00
     10.837  0.2316E-01  0.2318E-01  0.1213E-01  0.1214E-01  0.1213E-01  0.1214E-01  0.1213E-01  0.1214E-01  0.0000E+00  0.0000E+00  0.0000E+00  0.0000E+00  0.0000E+00  0.0000E+00  0.0000E+00  0.0000E+00  0.0000E+00  0.0000E+00
     11.257  0.2285E-01  0.2285E-01  0.1200E-01  0.1201E-01  0.1200E-01  0.1201E-01  0.1200E-01  0.1201E-01  0.0000E+00  0.0000E+00  0.0000E+00  0.0000E+00  0.0000E+00  0.0000E+00  0.0000E+00  0.0000E+00  0.0000E+00  0.0000E+00
     11.676  0.2215E-01  0.2216E-01  0.1201E-01  0.1202E-01  0.1201E-01  0.1202E-01  0.1201E-01  0.1202E-01  0.0000E+00  0.0000E+00  0.0000E+00  0.0000E+00  0.0000E+00  0.0000E+00  0.0000E+00  0.0000E+00  0.0000E+00  0.0000E+00
     12.095  0.2230E-01  0.2231E-01  0.1305E-01  0.1307E-01  0.1305E-01  0.1307E-01  0.1305E-01  0.1307E-01  0.0000E+00  0.0000E+00  0.0000E+00  0.0000E+00  0.0000E+00  0.0000E+00  0.0000E+00  0.0000E+00  0.0000E+00  0.0000E+00