    1    1    1    2
  0.1658294E+02  0.2862368E-09  0.2862368E-09  0.2862368E-09  0.5000000E-15
   1.0000000000000000E-004
  CAR 
 unknown system                          
      3     56     48

  0.1262379E-14  0.1262379E-14  0.1262379E-14  0.7513148E-03
    1       -3.151045     -3.152885   1.000000   1.000000
    2       20.540726     20.539356   0.000000   0.000000
    3       20.540726     20.539356   0.000000   0.000000
    4       20.540726     20.539356   0.000000   0.000000
    5       21.995464     21.990046   0.000000   0.000000
    6       21.995464     21.990046   0.000000   0.000000
    7       21.995464     21.990047   0.000000   0.000000
    8       24.377872     24.378077   0.000000   0.000000
    9       27.315475     27.311542   0.000000   0.000000
   10       27.315475     27.311542   0.000000   0.000000
   11       30.160756     30.157560   0.000000   0.000000
   12       32.511230     32.510160   0.000000   0.000000
   13       32.511230     32.510160   0.000000   0.000000
   14       32.511230     32.510161   0.000000   0.000000
   15       41.063374     41.060811   0.000000   0.000000
   16       56.069781     56.068734   0.000000   0.000000
   17       56.069782     56.068735   0.000000   0.000000
   18       56.069782     56.068735   0.000000   0.000000
   19       56.071621     56.071762   0.000000   0.000000
   20       59.218420     59.215509   0.000000   0.000000
   21       59.218420     59.215509   0.000000   0.000000
   22       59.218420     59.215509   0.000000   0.000000
   23       62.836977     62.836402   0.000000   0.000000
   24       62.836977     62.836402   0.000000   0.000000
   25       65.079850     65.075797   0.000000   0.000000
   26       65.079851     65.075797   0.000000   0.000000
   27       65.079851     65.075797   0.000000   0.000000
   28       73.184882     73.183607   0.000000   0.000000
   29       73.184882     73.183607   0.000000   0.000000
   30       73.184882     73.183608   0.000000   0.000000
   31       80.821094     80.819858   0.000000   0.000000
   32       83.081109     83.079005   0.000000   0.000000
   33       83.081109     83.079005   0.000000   0.000000
   34       87.214193     87.214078   0.000000   0.000000
   35       87.214193     87.214079   0.000000   0.000000
   36       87.214193     87.214080   0.000000   0.000000
   37       90.094635     90.088340   0.000000   0.000000
   38       90.094635     90.088341   0.000000   0.000000
   39       90.094636     90.088341   0.000000   0.000000
   40       90.906886     90.899631   0.000000   0.000000
   41       93.463222     93.462830   0.000000   0.000000
   42       93.463222     93.462831   0.000000   0.000000
   43       93.463222     93.462831   0.000000   0.000000
   44       93.937831     93.934081   0.000000   0.000000
   45       93.937831     93.934081   0.000000   0.000000
   46       93.937831     93.934081   0.000000   0.000000
   47       96.376050     96.376466   0.000000   0.000000
   48       96.376050     96.376500   0.000000   0.000000

  0.9090909E-01  0.1262062E-14  0.1262062E-14  0.6010518E-02
    1       -2.927224     -2.929064   1.000000   1.000000
    2       17.619481     17.617377   0.000000   0.000000
    3       19.894123     19.891779   0.000000   0.000000
    4       19.894123     19.891779   0.000000   0.000000
    5       22.670036     22.666497   0.000000   0.000000
    6       22.980727     22.976121   0.000000   0.000000
    7       22.980727     22.976121   0.000000   0.000000
    8       26.202625     26.199390   0.000000   0.000000
    9       26.202625     26.199390   0.000000   0.000000
   10       26.470811     26.469959   0.000000   0.000000
   11       29.408853     29.406068   0.000000   0.000000
   12       33.604006     33.602286   0.000000   0.000000
   13       34.081440     34.079778   0.000000   0.000000
   14       34.081440     34.079779   0.000000   0.000000
   15       41.938440     41.936005   0.000000   0.000000
   16       55.311249     55.310688   0.000000   0.000000
   17       55.613319     55.611862   0.000000   0.000000
   18       55.613319     55.611862   0.000000   0.000000
   19       56.367574     56.367033   0.000000   0.000000
   20       57.191889     57.189405   0.000000   0.000000
   21       57.191889     57.189406   0.000000   0.000000
   22       59.211738     59.209031   0.000000   0.000000
   23       61.583610     61.582145   0.000000   0.000000
   24       61.583610     61.582146   0.000000   0.000000
   25       65.280159     65.276061   0.000000   0.000000
   26       68.936827     68.933780   0.000000   0.000000
   27       68.936828     68.933780   0.000000   0.000000
   28       71.535117     71.534013   0.000000   0.000000
   29       72.985352     72.983812   0.000000   0.000000
   30       72.985352     72.983813   0.000000   0.000000
   31       81.832882     81.830370   0.000000   0.000000
   32       81.832882     81.830370   0.000000   0.000000
   33       82.305547     82.303889   0.000000   0.000000
   34       84.092970     84.089746   0.000000   0.000000
   35       85.797426     85.797062   0.000000   0.000000
   36       85.797426     85.797062   0.000000   0.000000
   37       87.987641     87.985042   0.000000   0.000000
   38       87.987641     87.985043   0.000000   0.000000
   39       89.008880     89.007028   0.000000   0.000000
   40       90.095528     90.089321   0.000000   0.000000
   41       91.307100     91.305202   0.000000   0.000000
   42       91.307100     91.305202   0.000000   0.000000
   43       92.884992     92.883623   0.000000   0.000000
   44       94.805618     94.805860   0.000000   0.000000
   45       95.647863     95.648259   0.000000   0.000000
   46       95.647863     95.648259   0.000000   0.000000
   47       97.102944     97.099134   0.000000   0.000000
   48       97.102945     97.099134   0.000000   0.000000

  0.1818182E+00  0.1266963E-14  0.1266963E-14  0.6010518E-02
    1       -2.257845     -2.259685   1.000000   1.000000
    2       13.974475     13.972454   0.000000   0.000000
    3       19.160996     19.158304   0.000000   0.000000
    4       19.160996     19.158304   0.000000   0.000000
    5       22.437341     22.434403   0.000000   0.000000
    6       23.803177     23.798915   0.000000   0.000000
    7       23.803177     23.798915   0.000000   0.000000
    8       25.316400     25.313517   0.000000   0.000000
    9       25.316400     25.313517   0.000000   0.000000
   10       27.892902     27.890310   0.000000   0.000000
   11       29.979824     29.978409   0.000000   0.000000
   12       36.431484     36.429067   0.000000   0.000000
   13       37.235283     37.233081   0.000000   0.000000
   14       37.235283     37.233081   0.000000   0.000000
   15       44.145412     44.143288   0.000000   0.000000
   16       51.714807     51.712441   0.000000   0.000000
   17       51.714807     51.712441   0.000000   0.000000
   18       53.899194     53.898451   0.000000   0.000000
   19       56.449645     56.448340   0.000000   0.000000
   20       56.449645     56.448340   0.000000   0.000000
   21       56.571217     56.570504   0.000000   0.000000
   22       58.904019     58.901840   0.000000   0.000000
   23       61.724286     61.722611   0.000000   0.000000
   24       61.724286     61.722612   0.000000   0.000000
   25       65.870594     65.866348   0.000000   0.000000
   26       68.899762     68.898475   0.000000   0.000000
   27       71.072157     71.069689   0.000000   0.000000
   28       71.072157     71.069690   0.000000   0.000000
   29       73.955269     73.952995   0.000000   0.000000
   30       73.955270     73.952996   0.000000   0.000000
   31       78.850521     78.846546   0.000000   0.000000
   32       78.989487     78.987094   0.000000   0.000000
   33       78.989488     78.987095   0.000000   0.000000
   34       82.817577     82.817800   0.000000   0.000000
   35       82.817577     82.817801   0.000000   0.000000
   36       84.824644     84.822973   0.000000   0.000000
   37       85.652549     85.652172   0.000000   0.000000
   38       86.585583     86.584013   0.000000   0.000000
   39       86.585584     86.584013   0.000000   0.000000
   40       87.497310     87.495705   0.000000   0.000000
   41       89.453968     89.448579   0.000000   0.000000
   42       90.018968     90.016673   0.000000   0.000000
   43       90.018968     90.016675   0.000000   0.000000
   44       93.917872     93.918447   0.000000   0.000000
   45       97.289520     97.288940   0.000000   0.000000
   46       97.289521     97.288940   0.000000   0.000000
   47       99.492334     99.490699   0.000000   0.000000
   48       99.492334     99.490700   0.000000   0.000000

  0.2727273E+00  0.1237835E-14  0.1237835E-14  0.6010518E-02
    1       -1.149133     -1.150973   1.000000   1.000000
    2       10.549767     10.547809  -0.016184  -0.016290
    3       18.752182     18.749365   0.000000   0.000000
    4       18.752182     18.749366   0.000000   0.000000
    5       22.225396     22.222694   0.000000   0.000000
    6       22.258119     22.254834   0.000000   0.000000
    7       22.258119     22.254834   0.000000   0.000000
    8       26.247232     26.244661   0.000000   0.000000
    9       27.361411     27.357694   0.000000   0.000000
   10       27.361411     27.357694   0.000000   0.000000
   11       33.314587     33.312812   0.000000   0.000000
   12       40.516667     40.513678   0.000000   0.000000
   13       40.849994     40.847274   0.000000   0.000000
   14       40.849994     40.847274   0.000000   0.000000
   15       47.031721     47.029971   0.000000   0.000000
   16       47.368999     47.367031   0.000000   0.000000
   17       47.368999     47.367031   0.000000   0.000000
   18       51.912495     51.911819   0.000000   0.000000
   19       56.395914     56.394698   0.000000   0.000000
   20       56.395915     56.394699   0.000000   0.000000
   21       56.797112     56.796190   0.000000   0.000000
   22       57.946123     57.944659   0.000000   0.000000
   23       62.171912     62.169965   0.000000   0.000000
   24       62.171913     62.169967   0.000000   0.000000
   25       66.338984     66.336632   0.000000   0.000000
   26       66.808511     66.803960   0.000000   0.000000
   27       67.838487     67.835693   0.000000   0.000000
   28       67.838487     67.835694   0.000000   0.000000
   29       74.390230     74.389289   0.000000   0.000000
   30       74.390231     74.389289   0.000000   0.000000
   31       75.747710     75.743604   0.000000   0.000000
   32       78.381832     78.382195   0.000000   0.000000
   33       79.125347     79.124910   0.000000   0.000000
   34       79.125349     79.124910   0.000000   0.000000
   35       79.973563     79.971857   0.000000   0.000000
   36       79.973566     79.971857   0.000000   0.000000
   37       81.183872     81.182544   0.000000   0.000000
   38       88.169040     88.167387   0.000000   0.000000
   39       88.169040     88.167389   0.000000   0.000000
   40       88.747729     88.743797   0.000000   0.000000
   41       89.489906     89.487557   0.000000   0.000000
   42       89.489896     89.487560   0.000000   0.000000
   43       91.122521     91.120683   0.000000   0.000000
   44       93.035975     93.035734   0.000000   0.000000
   45       97.515405     97.513910   0.000000   0.000000
   46       97.515399     97.513940   0.000000   0.000000
   47      101.498189    101.496444   0.000000   0.000000
   48      102.448094    102.447588   0.000000   0.000000

  0.3636364E+00  0.1236297E-14  0.1236297E-14  0.6010518E-02
    1        0.388962      0.387125   1.000000   1.000000
    2        7.447277      7.445354   0.711073   0.711880
    3       18.708261     18.705362   0.000000   0.000000
    4       18.708261     18.705362   0.000000   0.000000
    5       20.828941     20.825910   0.000000   0.000000
    6       20.828941     20.825910   0.000000   0.000000
    7       22.296338     22.293786   0.000000   0.000000
    8       24.759549     24.756940   0.000000   0.000000
    9       29.889816     29.885638   0.000000   0.000000
   10       29.889816     29.885638   0.000000   0.000000
   11       36.445006     36.442715   0.000000   0.000000
   12       41.903282     41.900540   0.000000   0.000000
   13       41.903282     41.900541   0.000000   0.000000
   14       45.038556     45.035179   0.000000   0.000000
   15       46.438510     46.436741   0.000000   0.000000
   16       46.438510     46.436741   0.000000   0.000000
   17       48.330701     48.329290   0.000000   0.000000
   18       51.747821     51.747613   0.000000   0.000000
   19       56.316101     56.314905   0.000000   0.000000
   20       56.316101     56.314906   0.000000   0.000000
   21       56.407572     56.406505   0.000000   0.000000
   22       57.075823     57.074618   0.000000   0.000000
   23       61.350122     61.347003   0.000000   0.000000
   24       61.350122     61.347003   0.000000   0.000000
   25       63.757608     63.754189   0.000000   0.000000
   26       64.408634     64.407201   0.000000   0.000000
   27       64.408635     64.407201   0.000000   0.000000
   28       67.970061     67.964950   0.000000   0.000000
   29       69.672906     69.671759   0.000000   0.000000
   30       73.834488     73.833743   0.000000   0.000000
   31       73.834491     73.833745   0.000000   0.000000
   32       76.557656     76.555784   0.000000   0.000000
   33       76.969486     76.969174   0.000000   0.000000
   34       76.969486     76.969174   0.000000   0.000000
   35       78.221067     78.220323   0.000000   0.000000
   36       80.445424     80.444258   0.000000   0.000000
   37       80.445425     80.444260   0.000000   0.000000
   38       88.546698     88.542643   0.000000   0.000000
   39       89.127874     89.125673   0.000000   0.000000
   40       89.127882     89.125671   0.000000   0.000000
   41       90.471030     90.470974   0.000000   0.000000
   42       92.018117     92.016044   0.000000   0.000000
   43       92.018115     92.016046   0.000000   0.000000
   44       94.234077     94.233212   0.000000   0.000000
   45       98.970137     98.968134   0.000000   0.000000
   46       98.970178     98.968156   0.000000   0.000000
   47      102.345735    102.342765   0.000000   0.000000
   48      104.099276    104.098429   0.000000   0.000000

  0.4545455E+00  0.1248969E-14  0.1248969E-14  0.6010518E-02
    1        2.341835      2.340024   1.000000   1.000000
    2        4.708110      4.706178   1.000000   1.000000
    3       19.037443     19.034390   0.000000   0.000000
    4       19.037443     19.034391   0.000000   0.000000
    5       19.749655     19.746836   0.000000   0.000000
    6       19.749655     19.746836   0.000000   0.000000
    7       22.733815     22.731503   0.000000   0.000000
    8       23.570893     23.568090   0.000000   0.000000
    9       32.213294     32.208245   0.000000   0.000000
   10       32.213294     32.208245   0.000000   0.000000
   11       39.008570     39.005399   0.000000   0.000000
   12       39.226543     39.225061   0.000000   0.000000
   13       39.226543     39.225061   0.000000   0.000000
   14       45.811411     45.811074   0.000000   0.000000
   15       49.629875     49.626188   0.000000   0.000000
   16       50.323052     50.320619   0.000000   0.000000
   17       50.323052     50.320619   0.000000   0.000000
   18       54.216629     54.215305   0.000000   0.000000
   19       55.460183     55.460015   0.000000   0.000000
   20       55.484654     55.483123   0.000000   0.000000
   21       55.484655     55.483124   0.000000   0.000000
   22       57.656254     57.654684   0.000000   0.000000
   23       57.962688     57.960088   0.000000   0.000000
   24       57.962688     57.960088   0.000000   0.000000
   25       61.677042     61.674493   0.000000   0.000000
   26       63.632280     63.630986   0.000000   0.000000
   27       64.234733     64.233444   0.000000   0.000000
   28       64.234733     64.233444   0.000000   0.000000
   29       68.959673     68.953763   0.000000   0.000000
   30       73.603056     73.602362   0.000000   0.000000
   31       73.603056     73.602362   0.000000   0.000000
   32       75.530890     75.530317   0.000000   0.000000
   33       75.530890     75.530317   0.000000   0.000000
   34       76.330426     76.330492   0.000000   0.000000
   35       76.866929     76.864815   0.000000   0.000000
   36       80.545287     80.544603   0.000000   0.000000
   37       80.545287     80.544605   0.000000   0.000000
   38       88.597529     88.593226   0.000000   0.000000
   39       88.883818     88.881702   0.000000   0.000000
   40       88.883819     88.881704   0.000000   0.000000
   41       89.211128     89.211407   0.000000   0.000000
   42       94.211158     94.210684   0.000000   0.000000
   43       95.099749     95.097722   0.000000   0.000000
   44       95.099750     95.097722   0.000000   0.000000
   45      101.195542    101.194402   0.000000   0.000000
   46      101.195543    101.194402   0.000000   0.000000
   47      105.132857    105.130143   0.000000   0.000000
   48      105.132858    105.130143   0.000000   0.000000

  0.9090909E-01  0.9090909E-01  0.1262379E-14  0.4507889E-02
    1       -2.852691     -2.854532   1.000000   1.000000
    2       18.632079     18.629484   0.000000   0.000000
    3       18.632079     18.629484   0.000000   0.000000
    4       18.931853     18.930905   0.000000   0.000000
    5       21.328435     21.323135   0.000000   0.000000
    6       24.292114     24.289308   0.000000   0.000000
    7       24.336404     24.332027   0.000000   0.000000
    8       24.336404     24.332027   0.000000   0.000000
    9       26.582989     26.582757   0.000000   0.000000
   10       27.591504     27.587524   0.000000   0.000000
   11       30.594395     30.590955   0.000000   0.000000
   12       32.856914     32.855992   0.000000   0.000000
   13       32.856914     32.855993   0.000000   0.000000
   14       35.566836     35.564535   0.000000   0.000000
   15       42.373621     42.371245   0.000000   0.000000
   16       55.222836     55.221131   0.000000   0.000000
   17       55.222836     55.221131   0.000000   0.000000
   18       55.448912     55.448762   0.000000   0.000000
   19       56.544236     56.543492   0.000000   0.000000
   20       57.476816     57.474348   0.000000   0.000000
   21       57.476816     57.474348   0.000000   0.000000
   22       57.857827     57.855992   0.000000   0.000000
   23       59.412909     59.409979   0.000000   0.000000
   24       62.760973     62.760361   0.000000   0.000000
   25       67.474344     67.470590   0.000000   0.000000
   26       67.474344     67.470590   0.000000   0.000000
   27       70.397894     70.396193   0.000000   0.000000
   28       70.436115     70.433484   0.000000   0.000000
   29       73.443059     73.442017   0.000000   0.000000
   30       73.443059     73.442017   0.000000   0.000000
   31       80.628644     80.626288   0.000000   0.000000
   32       82.578873     82.576656   0.000000   0.000000
   33       82.688404     82.685677   0.000000   0.000000
   34       82.688405     82.685677   0.000000   0.000000
   35       83.415024     83.411634   0.000000   0.000000
   36       84.130093     84.128718   0.000000   0.000000
   37       88.742818     88.745128   0.000000   0.000000
   38       90.085383     90.083061   0.000000   0.000000
   39       90.085384     90.083061   0.000000   0.000000
   40       90.116907     90.114971   0.000000   0.000000
   41       90.116907     90.114972   0.000000   0.000000
   42       92.132310     92.130105   0.000000   0.000000
   43       93.138915     93.133388   0.000000   0.000000
   44       94.410675     94.406387   0.000000   0.000000
   45       94.798239     94.797848   0.000000   0.000000
   46       97.779423     97.778094   0.000000   0.000000
   47       97.805831     97.804065   0.000000   0.000000
   48       97.805849     97.804171   0.000000   0.000000

  0.1818182E+00  0.9090909E-01  0.1261396E-14  0.1803156E-01
    1       -2.332041     -2.333880   1.000000   1.000000
    2       15.296417     15.294437   0.000000   0.000000
    3       17.705989     17.703324   0.000000   0.000000
    4       19.047263     19.045204   0.000000   0.000000
    5       21.665741     21.660520   0.000000   0.000000
    6       22.281008     22.278953   0.000000   0.000000
    7       24.715535     24.712096   0.000000   0.000000
    8       25.736306     25.731532   0.000000   0.000000
    9       27.076193     27.073054   0.000000   0.000000
   10       29.500743     29.498860   0.000000   0.000000
   11       29.951869     29.949749   0.000000   0.000000
   12       34.729908     34.728462   0.000000   0.000000
   13       35.037628     35.035823   0.000000   0.000000
   14       37.875792     37.873030   0.000000   0.000000
   15       44.422274     44.420125   0.000000   0.000000
   16       51.722568     51.720267   0.000000   0.000000
   17       52.816461     52.814321   0.000000   0.000000
   18       55.457781     55.457110   0.000000   0.000000
   19       55.688790     55.687821   0.000000   0.000000
   20       56.230021     56.228732   0.000000   0.000000
   21       57.065884     57.064469   0.000000   0.000000
   22       57.982526     57.980161   0.000000   0.000000
   23       59.390602     59.387955   0.000000   0.000000
   24       62.321159     62.320138   0.000000   0.000000
   25       67.469894     67.467762   0.000000   0.000000
   26       68.419216     68.415592   0.000000   0.000000
   27       71.322074     71.319255   0.000000   0.000000
   28       72.543187     72.541795   0.000000   0.000000
   29       72.586164     72.584512   0.000000   0.000000
   30       74.921098     74.919386   0.000000   0.000000
   31       77.302105     77.299462   0.000000   0.000000
   32       78.432114     78.428640   0.000000   0.000000
   33       80.665698     80.662788   0.000000   0.000000
   34       81.709503     81.707497   0.000000   0.000000
   35       82.490105     82.488404   0.000000   0.000000
   36       84.090866     84.090222   0.000000   0.000000
   37       86.215517     86.213982   0.000000   0.000000
   38       86.276637     86.274566   0.000000   0.000000
   39       89.144219     89.143296   0.000000   0.000000
   40       89.262675     89.261566   0.000000   0.000000
   41       89.789873     89.788343   0.000000   0.000000
   42       91.359868     91.359240   0.000000   0.000000
   43       93.744622     93.742367   0.000000   0.000000
   44       94.428200     94.424777   0.000000   0.000000
   45       94.521406     94.519601   0.000000   0.000000
   46       96.178531     96.177197   0.000000   0.000000
   47       97.034379     97.034053   0.000000   0.000000
   48       97.627090     97.625198   0.000000   0.000000

  0.2727273E+00  0.9090909E-01  0.1266963E-14  0.1803156E-01
    1       -1.370192     -1.372031   1.000000   1.000000
    2       11.821778     11.819830   0.000000   0.000000
    3       17.149805     17.147106   0.000000   0.000000
    4       18.707093     18.704684   0.000000   0.000000
    5       20.016232     20.013119   0.000000   0.000000
    6       23.795975     23.791808   0.000000   0.000000
    7       24.649700     24.647037   0.000000   0.000000
    8       24.757790     24.754036   0.000000   0.000000
    9       28.254511     28.252014   0.000000   0.000000
   10       28.540117     28.536219   0.000000   0.000000
   11       33.055839     33.054055   0.000000   0.000000
   12       38.084980     38.082930   0.000000   0.000000
   13       39.026673     39.024255   0.000000   0.000000
   14       40.880658     40.877590   0.000000   0.000000
   15       47.133552     47.131554   0.000000   0.000000
   16       47.328877     47.326962   0.000000   0.000000
   17       49.081017     49.078893   0.000000   0.000000
   18       53.685456     53.684454   0.000000   0.000000
   19       55.582604     55.582062   0.000000   0.000000
   20       56.231757     56.230563   0.000000   0.000000
   21       57.168959     57.167463   0.000000   0.000000
   22       58.552679     58.550169   0.000000   0.000000
   23       58.649513     58.647617   0.000000   0.000000
   24       62.537284     62.535994   0.000000   0.000000
   25       65.019624     65.016933   0.000000   0.000000
   26       68.787415     68.783714   0.000000   0.000000
   27       68.851910     68.849152   0.000000   0.000000
   28       71.534991     71.533784   0.000000   0.000000
   29       72.020127     72.019159   0.000000   0.000000
   30       73.730362     73.727117   0.000000   0.000000
   31       77.007141     77.004428   0.000000   0.000000
   32       77.128740     77.128163   0.000000   0.000000
   33       78.612930     78.610485   0.000000   0.000000
   34       80.690115     80.688965   0.000000   0.000000
   35       81.022466     81.020581   0.000000   0.000000
   36       81.481503     81.480234   0.000000   0.000000
   37       82.629346     82.628648   0.000000   0.000000
   38       86.755297     86.753312   0.000000   0.000000
   39       86.799925     86.797434   0.000000   0.000000
   40       87.052981     87.051768   0.000000   0.000000
   41       91.015717     91.014070   0.000000   0.000000
   42       92.386404     92.386197   0.000000   0.000000
   43       92.607562     92.605443   0.000000   0.000000
   44       94.147693     94.144525   0.000000   0.000000
   45       94.487442     94.485721   0.000000   0.000000
   46       97.277624     97.276676   0.000000   0.000000
   47       99.735863     99.734789   0.000000   0.000000
   48      100.802917    100.802447   0.000000   0.000000

  0.3636364E+00  0.9090909E-01  0.1237502E-14  0.1803156E-01
    1        0.024109      0.022272   1.000000   1.000000
    2        8.621145      8.619225   0.196704   0.197551
    3       16.970587     16.967856   0.000000   0.000000
    4       18.366636     18.364693   0.000000   0.000000
    5       18.618482     18.614968   0.000000   0.000000
    6       23.298854     23.295479   0.000000   0.000000
    7       24.394460     24.390750   0.000000   0.000000
    8       26.046137     26.043504   0.000000   0.000000
    9       27.216619     27.213644   0.000000   0.000000
   10       30.850918     30.846445   0.000000   0.000000
   11       36.280367     36.278095   0.000000   0.000000
   12       40.872352     40.869795   0.000000   0.000000
   13       43.233317     43.230080   0.000000   0.000000
   14       43.715288     43.712017   0.000000   0.000000
   15       44.218574     44.217215   0.000000   0.000000
   16       46.385491     46.384098   0.000000   0.000000
   17       49.786786     49.784864   0.000000   0.000000
   18       52.270592     52.270139   0.000000   0.000000
   19       55.671141     55.670501   0.000000   0.000000
   20       56.297209     56.296063   0.000000   0.000000
   21       56.696328     56.694662   0.000000   0.000000
   22       57.622201     57.620912   0.000000   0.000000
   23       59.159393     59.156610   0.000000   0.000000
   24       61.736420     61.733339   0.000000   0.000000
   25       63.231350     63.230021   0.000000   0.000000
   26       64.924447     64.921121   0.000000   0.000000
   27       66.458203     66.455121   0.000000   0.000000
   28       70.430327     70.429780   0.000000   0.000000
   29       70.483358     70.482399   0.000000   0.000000
   30       71.363052     71.359366   0.000000   0.000000
   31       72.604361     72.603060   0.000000   0.000000
   32       76.128989     76.128458   0.000000   0.000000
   33       77.159728     77.158817   0.000000   0.000000
   34       78.176497     78.175627   0.000000   0.000000
   35       80.590096     80.588945   0.000000   0.000000
   36       81.543913     81.542457   0.000000   0.000000
   37       83.339310     83.335958   0.000000   0.000000
   38       84.621406     84.620790   0.000000   0.000000
   39       87.289364     87.287550   0.000000   0.000000
   40       88.624513     88.622192   0.000000   0.000000
   41       92.523393     92.522852   0.000000   0.000000
   42       93.593681     93.591087   0.000000   0.000000
   43       93.732687     93.730818   0.000000   0.000000
   44       94.472437     94.470755   0.000000   0.000000
   45       96.189563     96.186815   0.000000   0.000000
   46       98.330184     98.328262   0.000000   0.000000
   47      101.142989    101.142695   0.000000   0.000000
   48      103.254049    103.253746   0.000000   0.000000

  0.4545455E+00  0.9090909E-01  0.1249509E-14  0.1803156E-01
    1        1.838137      1.836311   1.000000   1.000000
    2        5.764690      5.762776   1.045090   1.044836
    3       17.143390     17.140835   0.000000   0.000000
    4       17.170872     17.168094   0.000000   0.000000
    5       18.834291     18.831414   0.000000   0.000000
    6       22.121684     22.118503   0.000000   0.000000
    7       24.645141     24.640865   0.000000   0.000000
    8       25.336276     25.334838   0.000000   0.000000
    9       29.468123     29.464125   0.000000   0.000000
   10       32.730733     32.725374   0.000000   0.000000
   11       39.107300     39.104328   0.000000   0.000000
   12       39.153714     39.152482   0.000000   0.000000
   13       40.666964     40.664766   0.000000   0.000000
   14       47.123327     47.121336   0.000000   0.000000
   15       47.444663     47.442533   0.000000   0.000000
   16       48.742089     48.739512   0.000000   0.000000
   17       49.816387     49.814274   0.000000   0.000000
   18       54.217337     54.215920   0.000000   0.000000
   19       55.071151     55.070395   0.000000   0.000000
   20       55.707718     55.706533   0.000000   0.000000
   21       56.258179     56.257080   0.000000   0.000000
   22       56.824543     56.823440   0.000000   0.000000