<?xml version="1.0" encoding="ISO-8859-1"?>
<modeling>
 <generator>
  <i name="program" type="string">vasp </i>
  <i name="version" type="string">6.2.1  </i>
  <i name="subversion" type="string">16May21 (build Aug 15 2022 14:47:30) complex                          parallel </i>
  <i name="platform" type="string">LinuxGNU </i>
  <i name="date" type="string">2025 12 11 </i>
  <i name="time" type="string">13:43:33 </i>
 </generator>
 <incar>
  <i type="string" name="PREC">Accurate</i>
  <i type="string" name="ALGO">Fast</i>
  <i type="int" name="ISPIN">     2</i>
  <i type="int" name="NELM">   100</i>
  <i name="EDIFF">      0.00005000</i>
  <i type="int" name="NSW">     0</i>
  <i name="ENCUT">    500.00000000</i>
  <v name="MAGMOM">      0.60000000</v>
  <i type="logical" name="LREAL"> F  </i>
  <i type="int" name="ISMEAR">    -5</i>
  <i name="SIGMA">      0.05000000</i>
  <i type="logical" name="LWAVE"> F  </i>
  <i type="logical" name="LCHARG"> T  </i>
  <i type="int" name="LORBIT">    11</i>
  <i type="logical" name="LASPH"> T  </i>
 </incar>
 <primitive_cell>
  <structure name="primitive_cell" >
   <crystal>
    <varray name="basis" >
     <v>       0.00000000       2.02400000       2.02400000 </v>
     <v>       2.02400000       0.00000000       2.02400000 </v>
     <v>       2.02400000       2.02400000       0.00000000 </v>
    </varray>
    <i name="volume">     16.58293965 </i>
    <varray name="rec_basis" >
     <v>      -0.24703557       0.24703557       0.24703557 </v>
     <v>       0.24703557      -0.24703557       0.24703557 </v>
     <v>       0.24703557       0.24703557      -0.24703557 </v>
    </varray>
   </crystal>
   <varray name="positions" >
    <v>       0.00000000       0.00000000       0.00000000 </v>
   </varray>
  </structure>
  <varray name="primitive_index" >
   <v type="int" >        1 </v>
  </varray>
 </primitive_cell>
 <kpoints>
  <generation param="Gamma">
   <v type="int" name="divisions">      11       11       11 </v>
   <v name="usershift">      0.00000000       0.00000000       0.00000000 </v>
   <v name="genvec1">      0.09090909       0.00000000       0.00000000 </v>
   <v name="genvec2">      0.00000000       0.09090909       0.00000000 </v>
   <v name="genvec3">      0.00000000       0.00000000       0.09090909 </v>
   <v name="shift">      0.00000000       0.00000000       0.00000000 </v>
  </generation>
  <varray name="kpointlist" >
   <v>       0.00000000       0.00000000       0.00000000 </v>
   <v>       0.09090909       0.00000000       0.00000000 </v>
   <v>       0.18181818       0.00000000       0.00000000 </v>
   <v>       0.27272727       0.00000000       0.00000000 </v>
   <v>       0.36363636       0.00000000       0.00000000 </v>
   <v>       0.45454545       0.00000000       0.00000000 </v>
   <v>       0.09090909       0.09090909       0.00000000 </v>
   <v>       0.18181818       0.09090909       0.00000000 </v>
   <v>       0.27272727       0.09090909       0.00000000 </v>
   <v>       0.36363636       0.09090909       0.00000000 </v>
   <v>       0.45454545       0.09090909       0.00000000 </v>
   <v>      -0.45454545       0.09090909       0.00000000 </v>
   <v>      -0.36363636       0.09090909       0.00000000 </v>
   <v>      -0.27272727       0.09090909       0.00000000 </v>
   <v>      -0.18181818       0.09090909       0.00000000 </v>
   <v>      -0.09090909       0.09090909       0.00000000 </v>
   <v>       0.18181818       0.18181818       0.00000000 </v>
   <v>       0.27272727       0.18181818       0.00000000 </v>
   <v>       0.36363636       0.18181818       0.00000000 </v>
   <v>       0.45454545       0.18181818       0.00000000 </v>
   <v>      -0.45454545       0.18181818       0.00000000 </v>
   <v>      -0.36363636       0.18181818       0.00000000 </v>
   <v>      -0.27272727       0.18181818       0.00000000 </v>
   <v>      -0.18181818       0.18181818       0.00000000 </v>
   <v>       0.27272727       0.27272727       0.00000000 </v>
   <v>       0.36363636       0.27272727       0.00000000 </v>
   <v>       0.45454545       0.27272727       0.00000000 </v>
   <v>      -0.45454545       0.27272727       0.00000000 </v>
   <v>      -0.36363636       0.27272727       0.00000000 </v>
   <v>      -0.27272727       0.27272727       0.00000000 </v>
   <v>       0.36363636       0.36363636       0.00000000 </v>
   <v>       0.45454545       0.36363636       0.00000000 </v>
   <v>      -0.45454545       0.36363636       0.00000000 </v>
   <v>      -0.36363636       0.36363636       0.00000000 </v>
   <v>       0.45454545       0.45454545       0.00000000 </v>
   <v>      -0.45454545       0.45454545       0.00000000 </v>
   <v>       0.27272727       0.18181818       0.09090909 </v>
   <v>       0.36363636       0.18181818       0.09090909 </v>
   <v>       0.45454545       0.18181818       0.09090909 </v>
   <v>      -0.45454545       0.18181818       0.09090909 </v>
   <v>       0.36363636       0.27272727       0.09090909 </v>
   <v>       0.45454545       0.27272727       0.09090909 </v>
   <v>      -0.45454545       0.27272727       0.09090909 </v>
   <v>      -0.36363636       0.27272727       0.09090909 </v>
   <v>      -0.27272727       0.27272727       0.09090909 </v>
   <v>      -0.18181818       0.27272727       0.09090909 </v>
   <v>       0.45454545       0.36363636       0.09090909 </v>
   <v>      -0.45454545       0.36363636       0.09090909 </v>
   <v>      -0.36363636       0.36363636       0.09090909 </v>
   <v>      -0.27272727       0.36363636       0.09090909 </v>
   <v>      -0.45454545       0.45454545       0.09090909 </v>
   <v>      -0.36363636       0.45454545       0.09090909 </v>
   <v>      -0.45454545       0.36363636       0.18181818 </v>
   <v>      -0.36363636       0.36363636       0.18181818 </v>
   <v>      -0.36363636       0.45454545       0.18181818 </v>
   <v>      -0.27272727       0.45454545       0.18181818 </v>
  </varray>
  <varray name="weights" >
   <v>       0.00075131 </v>
   <v>       0.00601052 </v>
   <v>       0.00601052 </v>
   <v>       0.00601052 </v>
   <v>       0.00601052 </v>
   <v>       0.00601052 </v>
   <v>       0.00450789 </v>
   <v>       0.01803156 </v>
   <v>       0.01803156 </v>
   <v>       0.01803156 </v>
   <v>       0.01803156 </v>
   <v>       0.01803156 </v>
   <v>       0.01803156 </v>
   <v>       0.01803156 </v>
   <v>       0.01803156 </v>
   <v>       0.00901578 </v>
   <v>       0.00450789 </v>
   <v>       0.01803156 </v>
   <v>       0.01803156 </v>
   <v>       0.01803156 </v>
   <v>       0.01803156 </v>
   <v>       0.01803156 </v>
   <v>       0.01803156 </v>
   <v>       0.00901578 </v>
   <v>       0.00450789 </v>
   <v>       0.01803156 </v>
   <v>       0.01803156 </v>
   <v>       0.01803156 </v>
   <v>       0.01803156 </v>
   <v>       0.00901578 </v>
   <v>       0.00450789 </v>
   <v>       0.01803156 </v>
   <v>       0.01803156 </v>
   <v>       0.00901578 </v>
   <v>       0.00450789 </v>
   <v>       0.00901578 </v>
   <v>       0.01803156 </v>
   <v>       0.03606311 </v>
   <v>       0.03606311 </v>
   <v>       0.03606311 </v>
   <v>       0.01803156 </v>
   <v>       0.03606311 </v>
   <v>       0.03606311 </v>
   <v>       0.03606311 </v>
   <v>       0.03606311 </v>
   <v>       0.01803156 </v>
   <v>       0.01803156 </v>
   <v>       0.03606311 </v>
   <v>       0.03606311 </v>
   <v>       0.01803156 </v>
   <v>       0.01803156 </v>
   <v>       0.01803156 </v>
   <v>       0.01803156 </v>
   <v>       0.03606311 </v>
   <v>       0.01803156 </v>
   <v>       0.01803156 </v>
  </varray>
  <varray name="tetrahedronlist"  type="int" >
   <v type="int" >       24        1        2        2        7 </v>
   <v type="int" >       48        2        7        8       16 </v>
   <v type="int" >       48        2        3        8       16 </v>
   <v type="int" >       24        2        2        7       16 </v>
   <v type="int" >       48        3        8        9       15 </v>
   <v type="int" >       48        3        4        9       15 </v>
   <v type="int" >       48        3        8       15       16 </v>
   <v type="int" >       48        4        9       10       14 </v>
   <v type="int" >       48        4        5       10       14 </v>
   <v type="int" >       48        4        9       14       15 </v>
   <v type="int" >       48        5       10       11       13 </v>
   <v type="int" >       48        5        6       11       13 </v>
   <v type="int" >       48        5       10       13       14 </v>
   <v type="int" >       48        6       11       12       12 </v>
   <v type="int" >       24        6        6       12       12 </v>
   <v type="int" >       48        6       11       12       13 </v>
   <v type="int" >       24        7        8        8       17 </v>
   <v type="int" >       24        7        8        8       16 </v>
   <v type="int" >       48        8       17       18       37 </v>
   <v type="int" >       48        8        9       18       37 </v>
   <v type="int" >       48        8        9       15       37 </v>
   <v type="int" >       24        8        8       17       37 </v>
   <v type="int" >       24        8        8       16       37 </v>
   <v type="int" >       48        8       15       16       37 </v>
   <v type="int" >       48        9       18       19       38 </v>
   <v type="int" >       48        9       10       19       38 </v>
   <v type="int" >       48        9       10       14       38 </v>
   <v type="int" >       48        9       18       37       38 </v>
   <v type="int" >       48        9       15       37       38 </v>
   <v type="int" >       48        9       14       15       38 </v>
   <v type="int" >       48       10       19       20       39 </v>
   <v type="int" >       48       10       11       20       39 </v>
   <v type="int" >       48       10       11       13       39 </v>
   <v type="int" >       48       10       19       38       39 </v>
   <v type="int" >       48       10       14       38       39 </v>
   <v type="int" >       48       10       13       14       39 </v>
   <v type="int" >       48       11       20       21       40 </v>
   <v type="int" >       48       11       12       21       40 </v>
   <v type="int" >       48       11       12       12       40 </v>
   <v type="int" >       48       11       20       39       40 </v>
   <v type="int" >       48       11       13       39       40 </v>
   <v type="int" >       48       11       12       13       40 </v>
   <v type="int" >       48       12       21       22       40 </v>
   <v type="int" >       48       12       13       22       40 </v>
   <v type="int" >       48       12       21       40       40 </v>
   <v type="int" >       24       12       12       40       40 </v>
   <v type="int" >       48       13       22       23       39 </v>
   <v type="int" >       48       13       14       23       39 </v>
   <v type="int" >       48       13       22       39       40 </v>
   <v type="int" >       48       14       23       24       38 </v>
   <v type="int" >       48       14       15       24       38 </v>
   <v type="int" >       48       14       23       38       39 </v>
   <v type="int" >       24       15       15       24       37 </v>
   <v type="int" >       24       15       15       16       37 </v>
   <v type="int" >       48       15       24       37       38 </v>
   <v type="int" >       24       17       18       18       25 </v>
   <v type="int" >       24       17       18       18       37 </v>
   <v type="int" >       48       18       25       26       41 </v>
   <v type="int" >       48       18       19       26       41 </v>
   <v type="int" >       48       18       19       38       41 </v>
   <v type="int" >       24       18       18       25       41 </v>
   <v type="int" >       24       18       18       37       41 </v>
   <v type="int" >       48       18       37       38       41 </v>
   <v type="int" >       48       19       26       27       42 </v>
   <v type="int" >       48       19       20       27       42 </v>
   <v type="int" >       48       19       20       39       42 </v>
   <v type="int" >       48       19       26       41       42 </v>
   <v type="int" >       48       19       38       41       42 </v>
   <v type="int" >       48       19       38       39       42 </v>
   <v type="int" >       48       20       27       28       43 </v>
   <v type="int" >       48       20       21       28       43 </v>
   <v type="int" >       48       20       21       40       43 </v>
   <v type="int" >       48       20       27       42       43 </v>
   <v type="int" >       48       20       39       42       43 </v>
   <v type="int" >       48       20       39       40       43 </v>
   <v type="int" >       48       21       28       29       44 </v>
   <v type="int" >       48       21       22       29       44 </v>
   <v type="int" >       48       21       22       40       44 </v>
   <v type="int" >       48       21       28       43       44 </v>
   <v type="int" >       48       21       40       43       44 </v>
   <v type="int" >       48       21       40       40       44 </v>
   <v type="int" >       48       22       29       30       45 </v>
   <v type="int" >       48       22       23       30       45 </v>
   <v type="int" >       48       22       23       39       45 </v>
   <v type="int" >       48       22       29       44       45 </v>
   <v type="int" >       48       22       40       44       45 </v>
   <v type="int" >       48       22       39       40       45 </v>
   <v type="int" >       24       23       23       30       46 </v>
   <v type="int" >       24       23       23       24       46 </v>
   <v type="int" >       48       23       24       38       46 </v>
   <v type="int" >       48       23       30       45       46 </v>
   <v type="int" >       48       23       39       45       46 </v>
   <v type="int" >       48       23       38       39       46 </v>
   <v type="int" >       24       24       38       38       46 </v>
   <v type="int" >       24       24       37       38       38 </v>
   <v type="int" >       24       25       26       26       31 </v>
   <v type="int" >       24       25       26       26       41 </v>
   <v type="int" >       48       26       31       32       47 </v>
   <v type="int" >       48       26       27       32       47 </v>
   <v type="int" >       48       26       27       42       47 </v>
   <v type="int" >       24       26       26       31       47 </v>
   <v type="int" >       24       26       26       41       47 </v>
   <v type="int" >       48       26       41       42       47 </v>
   <v type="int" >       48       27       32       33       48 </v>
   <v type="int" >       48       27       28       33       48 </v>
   <v type="int" >       48       27       28       43       48 </v>
   <v type="int" >       48       27       32       47       48 </v>
   <v type="int" >       48       27       42       47       48 </v>
   <v type="int" >       48       27       42       43       48 </v>
   <v type="int" >       48       28       33       34       49 </v>
   <v type="int" >       48       28       29       34       49 </v>
   <v type="int" >       48       28       29       44       49 </v>
   <v type="int" >       48       28       33       48       49 </v>
   <v type="int" >       48       28       43       48       49 </v>
   <v type="int" >       48       28       43       44       49 </v>
   <v type="int" >       24       29       29       34       50 </v>
   <v type="int" >       24       29       29       30       50 </v>
   <v type="int" >       48       29       30       45       50 </v>
   <v type="int" >       48       29       34       49       50 </v>
   <v type="int" >       48       29       44       49       50 </v>
   <v type="int" >       48       29       44       45       50 </v>
   <v type="int" >       24       30       45       45       50 </v>
   <v type="int" >       24       30       45       45       46 </v>
   <v type="int" >       24       31       32       32       35 </v>
   <v type="int" >       24       31       32       32       47 </v>
   <v type="int" >       48       32       35       36       51 </v>
   <v type="int" >       48       32       33       36       51 </v>
   <v type="int" >       48       32       33       48       51 </v>
   <v type="int" >       24       32       32       35       51 </v>
   <v type="int" >       24       32       32       47       51 </v>
   <v type="int" >       48       32       47       48       51 </v>
   <v type="int" >       24       33       33       36       52 </v>
   <v type="int" >       24       33       33       34       52 </v>
   <v type="int" >       48       33       34       49       52 </v>
   <v type="int" >       48       33       36       51       52 </v>
   <v type="int" >       48       33       48       51       52 </v>
   <v type="int" >       48       33       48       49       52 </v>
   <v type="int" >       24       34       49       49       52 </v>
   <v type="int" >       24       34       49       49       50 </v>
   <v type="int" >       12       35       35       36       36 </v>
   <v type="int" >       24       35       36       36       51 </v>
   <v type="int" >       12       36       36       51       51 </v>
   <v type="int" >       24       36       51       51       52 </v>
   <v type="int" >       24       37       38       38       41 </v>
   <v type="int" >       48       38       41       42       46 </v>
   <v type="int" >       48       38       39       42       46 </v>
   <v type="int" >       24       38       38       41       46 </v>
   <v type="int" >       48       39       42       43       45 </v>
   <v type="int" >       48       39       40       43       45 </v>
   <v type="int" >       48       39       42       45       46 </v>
   <v type="int" >       48       40       43       44       44 </v>
   <v type="int" >       24       40       40       44       44 </v>
   <v type="int" >       48       40       43       44       45 </v>
   <v type="int" >       24       41       42       42       47 </v>
   <v type="int" >       24       41       42       42       46 </v>
   <v type="int" >       48       42       47       48       53 </v>
   <v type="int" >       48       42       43       48       53 </v>
   <v type="int" >       48       42       43       45       53 </v>
   <v type="int" >       24       42       42       47       53 </v>
   <v type="int" >       24       42       42       46       53 </v>
   <v type="int" >       48       42       45       46       53 </v>
   <v type="int" >       48       43       48       49       54 </v>
   <v type="int" >       48       43       44       49       54 </v>
   <v type="int" >       48       43       44       44       54 </v>
   <v type="int" >       48       43       48       53       54 </v>
   <v type="int" >       48       43       45       53       54 </v>
   <v type="int" >       48       43       44       45       54 </v>
   <v type="int" >       48       44       49       50       54 </v>
   <v type="int" >       48       44       45       50       54 </v>
   <v type="int" >       48       44       49       54       54 </v>
   <v type="int" >       24       44       44       54       54 </v>
   <v type="int" >       24       45       45       50       53 </v>
   <v type="int" >       24       45       45       46       53 </v>
   <v type="int" >       48       45       50       53       54 </v>
   <v type="int" >       24       47       48       48       51 </v>
   <v type="int" >       24       47       48       48       53 </v>
   <v type="int" >       48       48       51       52       55 </v>
   <v type="int" >       48       48       49       52       55 </v>
   <v type="int" >       48       48       49       54       55 </v>
   <v type="int" >       24       48       48       51       55 </v>
   <v type="int" >       24       48       48       53       55 </v>
   <v type="int" >       48       48       53       54       55 </v>
   <v type="int" >       24       49       49       52       56 </v>
   <v type="int" >       24       49       49       50       56 </v>
   <v type="int" >       48       49       50       54       56 </v>
   <v type="int" >       48       49       52       55       56 </v>
   <v type="int" >       48       49       54       55       56 </v>
   <v type="int" >       48       49       54       54       56 </v>
   <v type="int" >       24       50       54       54       56 </v>
   <v type="int" >       24       50       53       54       54 </v>
   <v type="int" >       12       51       51       52       52 </v>
   <v type="int" >       24       51       52       52       55 </v>
   <v type="int" >       12       52       52       55       55 </v>
   <v type="int" >       24       52       55       55       56 </v>
   <v type="int" >       24       53       54       54       55 </v>
   <v type="int" >       48       54       55       56       56 </v>
   <v type="int" >       24       54       54       56       56 </v>
   <v type="int" >       24       54       54       55       56 </v>
   <v type="int" >       12       55       55       56       56 </v>
   <v type="int" >       24       55       56       56       56 </v>
   <v type="int" >        6       56       56       56       56 </v>
  </varray>
  <i name="volumeweight">      0.00012522 </i>
 </kpoints>
 <parameters>
  <separator name="general" >
   <i type="string" name="SYSTEM">unknown system</i>
   <i type="logical" name="LCOMPAT"> F  </i>
  </separator>
  <separator name="electronic" >
   <i type="string" name="PREC">accura</i>
   <i name="ENMAX">    500.00000000</i>
   <i name="ENAUG">    291.05200000</i>
   <i name="EDIFF">      0.00005000</i>
   <i type="int" name="IALGO">    68</i>
   <i type="int" name="IWAVPR">    10</i>
   <i type="int" name="NBANDS">    48</i>
   <i type="int" name="NBANDSLOW">    -1</i>
   <i type="int" name="NBANDSHIGH">    -1</i>
   <i name="NELECT">      3.00000000</i>
   <i type="int" name="TURBO">     0</i>
   <i type="int" name="IRESTART">     0</i>
   <i type="int" name="NREBOOT">     0</i>
   <i type="int" name="NMIN">     0</i>
   <i name="EREF">      0.00000000</i>
   <separator name="electronic smearing" >
    <i type="int" name="ISMEAR">    -5</i>
    <i name="SIGMA">      0.05000000</i>
    <i name="KSPACING">      0.50000000</i>
    <i type="logical" name="KGAMMA"> T  </i>
    <i type="logical" name="KBLOWUP"> T  </i>
   </separator>
   <separator name="electronic projectors" >
    <i type="logical" name="LREAL"> F  </i>
    <v name="ROPT">      0.00000000</v>
    <i type="int" name="LMAXPAW">  -100</i>
    <i type="int" name="LMAXMIX">     2</i>
    <i type="logical" name="NLSPLINE"> F  </i>
   </separator>
   <separator name="electronic startup" >
    <i type="int" name="ISTART">     0</i>
    <i type="int" name="ICHARG">     2</i>
    <i type="int" name="INIWAV">     1</i>
   </separator>
   <separator name="electronic spin" >
    <i type="int" name="ISPIN">     2</i>
    <i type="logical" name="LNONCOLLINEAR"> F  </i>
    <v name="MAGMOM">      0.60000000</v>
    <i name="NUPDOWN">     -1.00000000</i>
    <i type="logical" name="LSORBIT"> F  </i>
    <v name="SAXIS">      0.00000000      0.00000000      1.00000000</v>
    <i type="logical" name="LSPIRAL"> F  </i>
    <v name="QSPIRAL">      0.00000000      0.00000000      0.00000000</v>
    <i type="logical" name="LZEROZ"> F  </i>
   </separator>
   <separator name="electronic exchange-correlation" >
    <i type="logical" name="LASPH"> T  </i>
    <i type="logical" name="LMETAGGA"> F  </i>
   </separator>
   <separator name="electronic convergence" >
    <i type="int" name="NELM">   100</i>
    <i type="int" name="NELMDL">    -5</i>
    <i type="int" name="NELMIN">     2</i>
    <i name="ENINI">    500.00000000</i>
    <separator name="electronic convergence detail" >
     <i type="logical" name="LDIAG"> T  </i>
     <i type="logical" name="LSUBROT"> F  </i>
     <i name="WEIMIN">      0.00000000</i>
     <i name="EBREAK">      0.00000026</i>
     <i name="DEPER">      0.30000000</i>
     <i type="int" name="NRMM">     4</i>
     <i name="TIME">      0.40000000</i>
    </separator>
   </separator>
   <separator name="electronic mixer" >
    <i name="AMIX">      0.40000000</i>
    <i name="BMIX">      1.00000000</i>
    <i name="AMIN">      0.10000000</i>
    <i name="AMIX_MAG">      1.60000000</i>
    <i name="BMIX_MAG">      1.00000000</i>
    <separator name="electronic mixer details" >
     <i type="int" name="IMIX">     4</i>
     <i type="logical" name="MIXFIRST"> F  </i>
     <i type="int" name="MAXMIX">   -45</i>
     <i name="WC">    100.00000000</i>
     <i type="int" name="INIMIX">     1</i>
     <i type="int" name="MIXPRE">     1</i>
     <i type="int" name="MREMOVE">     5</i>
    </separator>
   </separator>
   <separator name="electronic dipolcorrection" >
    <i type="logical" name="LDIPOL"> F  </i>
    <i type="logical" name="LMONO"> F  </i>
    <i type="int" name="IDIPOL">     0</i>
    <i name="EPSILON">      1.00000000</i>
    <v name="DIPOL">   -100.00000000   -100.00000000   -100.00000000</v>
    <i name="EFIELD">      0.00000000</i>
   </separator>
  </separator>
  <separator name="grids" >
   <i type="int" name="NGX">    24</i>
   <i type="int" name="NGY">    24</i>
   <i type="int" name="NGZ">    24</i>
   <i type="int" name="NGXF">    48</i>
   <i type="int" name="NGYF">    48</i>
   <i type="int" name="NGZF">    48</i>
   <i type="logical" name="ADDGRID"> F  </i>
  </separator>
  <separator name="ionic" >
   <i type="int" name="NSW">     0</i>
   <i type="int" name="IBRION">    -1</i>
   <i type="int" name="MDALGO">     0</i>
   <i type="int" name="ISIF">     2</i>
   <i name="PSTRESS">      0.00000000</i>
   <i name="EDIFFG">      0.00050000</i>
   <i type="int" name="NFREE">     0</i>
   <i name="POTIM">      0.50000000</i>
   <i name="SMASS">     -3.00000000</i>
   <i name="SCALEE">      1.00000000</i>
  </separator>
  <separator name="ionic md" >
   <i name="TEBEG">      0.00010000</i>
   <i name="TEEND">      0.00010000</i>
   <i type="int" name="NBLOCK">     1</i>
   <i type="int" name="KBLOCK">     1</i>
   <i type="int" name="NPACO">   256</i>
   <i name="APACO">     16.00000000</i>
  </separator>
  <separator name="symmetry" >
   <i type="int" name="ISYM">     2</i>
   <i name="SYMPREC">      0.00001000</i>
  </separator>
  <separator name="dos" >
   <i type="int" name="LORBIT">    11</i>
   <v name="RWIGS">     -1.00000000</v>
   <i type="int" name="NEDOS">   301</i>
   <i name="EMIN">     10.00000000</i>
   <i name="EMAX">    -10.00000000</i>
   <i name="EFERMI">      0.00000000</i>
  </separator>
  <separator name="writing" >
   <i type="int" name="NWRITE">     2</i>
   <i type="logical" name="LWAVE"> F  </i>
   <i type="logical" name="LDOWNSAMPLE"> F  </i>
   <i type="logical" name="LCHARG"> T  </i>
   <i type="logical" name="LPARD"> F  </i>
   <i type="logical" name="LVTOT"> F  </i>
   <i type="logical" name="LVHAR"> F  </i>
   <i type="logical" name="LELF"> F  </i>
   <i type="logical" name="LOPTICS"> F  </i>
   <v name="STM">      0.00000000      0.00000000      0.00000000      0.00000000      0.00000000      0.00000000      0.00000000</v>
  </separator>
  <separator name="performance" >
   <i type="int" name="NPAR">    48</i>
   <i type="int" name="NSIM">     4</i>
   <i type="int" name="NBLK">    -1</i>
   <i type="logical" name="LPLANE"> T  </i>
   <i type="logical" name="LSCALAPACK"> T  </i>
   <i type="logical" name="LSCAAWARE"> T  </i>
   <i type="logical" name="LSCALU"> F  </i>
   <i type="logical" name="LASYNC"> F  </i>
   <i type="logical" name="LORBITALREAL"> F  </i>
  </separator>
  <separator name="miscellaneous" >
   <i type="int" name="IDIOT">     3</i>
   <i type="int" name="PHON_NSTRUCT">    -1</i>
   <i type="logical" name="LMUSIC"> F  </i>
   <v name="POMASS">     26.98100000</v>
   <v name="DARWINR">      0.00000000</v>
   <v name="DARWINV">      1.00000000</v>
   <i type="logical" name="LCORR"> T  </i>
  </separator>
  <i type="logical" name="GGA_COMPAT"> T  </i>
  <i type="logical" name="LBERRY"> F  </i>
  <i type="int" name="ICORELEVEL">     0</i>
  <i type="logical" name="LDAU"> F  </i>
  <i type="int" name="I_CONSTRAINED_M">     0</i>
  <separator name="electronic exchange-correlation" >
   <i type="string" name="GGA">--</i>
   <i type="int" name="VOSKOWN">     0</i>
   <i type="logical" name="LHFCALC"> F  </i>
   <i type="string" name="PRECFOCK"></i>
   <i type="logical" name="LSYMGRAD"> F  </i>
   <i type="logical" name="LHFONE"> F  </i>
   <i type="logical" name="LRHFCALC"> F  </i>
   <i type="logical" name="LTHOMAS"> F  </i>
   <i type="logical" name="LMODELHF"> F  </i>
   <i type="logical" name="LFOCKACE"> F  </i>
   <i name="ENCUT4O">     -1.00000000</i>
   <i type="int" name="EXXOEP">     0</i>
   <i type="int" name="FOURORBIT">     0</i>
   <i name="AEXX">      0.00000000</i>
   <i name="HFALPHA">      0.00000000</i>
   <i name="MCALPHA">      0.00000000</i>
   <i name="ALDAX">      1.00000000</i>
   <i name="AGGAX">      1.00000000</i>
   <i name="ALDAC">      1.00000000</i>
   <i name="AGGAC">      1.00000000</i>
   <i type="int" name="NKREDX">     1</i>
   <i type="int" name="NKREDY">     1</i>
   <i type="int" name="NKREDZ">     1</i>
   <i type="logical" name="SHIFTRED"> F  </i>
   <i type="logical" name="ODDONLY"> F  </i>
   <i type="logical" name="EVENONLY"> F  </i>
   <i type="int" name="LMAXFOCK">     0</i>
   <i type="int" name="NMAXFOCKAE">     0</i>
   <i type="logical" name="LFOCKAEDFT"> F  </i>
   <i name="HFSCREEN">      0.00000000</i>
   <i name="HFSCREENC">      0.00000000</i>
   <i type="int" name="NBANDSGWLOW">     0</i>
  </separator>
  <separator name="vdW DFT" >
   <i type="logical" name="LUSE_VDW"> F  </i>
   <i name="Zab_VDW">     -0.84910000</i>
   <i name="PARAM1">      0.12340000</i>
   <i name="PARAM2">      1.00000000</i>
   <i name="PARAM3">      0.00000000</i>
  </separator>
  <separator name="model GW" >
   <i type="int" name="MODEL_GW">     0</i>
   <i name="MODEL_EPS0">      9.94976379</i>
   <i name="MODEL_ALPHA">      1.00000000</i>
  </separator>
  <separator name="linear response parameters" >
   <i type="logical" name="LEPSILON"> F  </i>
   <i type="logical" name="LRPA"> F  </i>
   <i type="logical" name="LNABLA"> F  </i>
   <i type="logical" name="LVEL"> F  </i>
   <i type="int" name="KINTER">     0</i>
   <i name="CSHIFT">      0.10000000</i>
   <i name="OMEGAMAX">     -1.00000000</i>
   <i name="DEG_THRESHOLD">      0.00200000</i>
   <i name="RTIME">     -0.10000000</i>
   <i name="WPLASMAI">      0.00000000</i>
   <v name="DFIELD">      0.00000000      0.00000000      0.00000000</v>
   <v name="WPLASMA">      0.00000000      0.00000000      0.00000000      0.00000000      0.00000000      0.00000000      0.00000000      0.00000000      0.00000000</v>
  </separator>
  <separator name="orbital magnetization" >
   <i type="logical" name="NUCIND"> F  </i>
   <v name="MAGPOS">      0.00000000      0.00000000      0.00000000</v>
   <i type="logical" name="LNICSALL"> T  </i>
   <i type="logical" name="ORBITALMAG"> F  </i>
   <i type="logical" name="LMAGBLOCH"> F  </i>
   <i type="logical" name="LCHIMAG"> F  </i>
   <i type="logical" name="LGAUGE"> T  </i>
   <i type="int" name="MAGATOM">     0</i>
   <v name="MAGDIPOL">      0.00000000      0.00000000      0.00000000</v>
   <v name="AVECCONST">      0.00000000      0.00000000      0.00000000</v>
  </separator>
  <separator name="response functions" >
   <i type="logical" name="LFINITE_TEMPERATURE"> F  </i>
   <i type="logical" name="LADDER"> F  </i>
   <i type="logical" name="LRPAFORCE"> F  </i>
   <i type="logical" name="LFXC"> F  </i>
   <i type="logical" name="LHARTREE"> T  </i>
   <i type="int" name="IBSE">     0</i>
   <v type="int" name="KPOINT">    -1     0     0     0</v>
   <i type="logical" name="LTCTC"> F  </i>
   <i type="logical" name="LTCTE"> F  </i>
   <i type="logical" name="LTETE"> F  </i>
   <i type="logical" name="LTRIPLET"> F  </i>
   <i type="logical" name="LFXCEPS"> F  </i>
   <i type="logical" name="LFXHEG"> F  </i>
   <i type="int" name="NATURALO">     2</i>
   <i type="logical" name="LHOLEGF"> F  </i>
   <i type="logical" name="L2ORDER"> F  </i>
   <i type="logical" name="LDMP1"> F  </i>
   <i type="logical" name="LMP2LT"> F  </i>
   <i type="logical" name="LSMP2LT"> F  </i>
   <i type="logical" name="LGWLF"> F  </i>
   <i name="ENCUTGW">     -2.00000000</i>
   <i name="ENCUTGWSOFT">     -2.00000000</i>
   <i name="ENCUTLF">     -1.00000000</i>
   <i type="logical" name="LESF_SPLINES"> F  </i>
   <i type="int" name="LMAXMP2">    -1</i>
   <i name="SCISSOR">      0.00000000</i>
   <i type="int" name="NOMEGA">     0</i>
   <i type="int" name="NOMEGAR">     0</i>
   <i type="int" name="NBANDSGW">    -1</i>
   <i type="int" name="NBANDSO">    -1</i>
   <i type="int" name="NBANDSV">    -1</i>
   <i type="int" name="NELM">   100</i>
   <i type="int" name="NELMHF">     1</i>
   <i type="int" name="DIM">     3</i>
   <i type="int" name="IESPILON">     4</i>
   <i type="int" name="ANTIRES">     0</i>
   <i name="OMEGAMAX">    -30.00000000</i>
   <i name="OMEGAMIN">    -30.00000000</i>
   <i name="OMEGATL">   -200.00000000</i>
   <i type="int" name="OMEGAGRID">     0</i>
   <i name="CSHIFT">     -0.10000000</i>
   <i type="logical" name="LSELFENERGY"> F  </i>
   <i type="logical" name="LSPECTRAL"> F  </i>
   <i type="logical" name="LSPECTRALGW"> F  </i>
   <i type="logical" name="LSINGLES"> F  </i>
   <i type="logical" name="LFERMIGW"> F  </i>
   <i type="logical" name="ODDONLYGW"> F  </i>
   <i type="logical" name="EVENONLYGW"> F  </i>
   <i type="int" name="NKREDLFX">     1</i>
   <i type="int" name="NKREDLFY">     1</i>
   <i type="int" name="NKREDLFZ">     1</i>
   <i type="int" name="MAXMEM">  2800</i>
   <i type="int" name="TELESCOPE">     0</i>
   <i type="int" name="NTAUPAR">    -1</i>
   <i type="int" name="NOMEGAPAR">    -1</i>
   <i name="DAMP_NEWTON">      0.80000001</i>
   <i name="LAMBDA">      1.00000000</i>
  </separator>
  <separator name="External order field" >
   <i name="OFIELD_KAPPA">      0.00000000</i>
   <v name="OFIELD_K">      0.00000000      0.00000000      0.00000000</v>
   <i name="OFIELD_Q6_NEAR">      0.00000000</i>
   <i name="OFIELD_Q6_FAR">      0.00000000</i>
   <i name="OFIELD_A">      0.00000000</i>
  </separator>
 </parameters>
 <atominfo>
  <atoms>       1 </atoms>
  <types>       1 </types>
  <array name="atoms" >
   <dimension dim="1">ion</dimension>
   <field type="string">element</field>
   <field type="int">atomtype</field>
   <set>
    <rc><c>Al</c><c>   1</c></rc>
   </set>
  </array>
  <array name="atomtypes" >
   <dimension dim="1">type</dimension>
   <field type="int">atomspertype</field>
   <field type="string">element</field>
   <field>mass</field>
   <field>valence</field>
   <field type="string">pseudopotential</field>
   <set>
    <rc><c>   1</c><c>Al</c><c>     26.98100000</c><c>      3.00000000</c><c>  PAW_PBE Al 04Jan2001                  </c></rc>
   </set>
  </array>
 </atominfo>
 <structure name="initialpos" >
  <crystal>
   <varray name="basis" >
    <v>       0.00000000       2.02400000       2.02400000 </v>
    <v>       2.02400000       0.00000000       2.02400000 </v>
    <v>       2.02400000       2.02400000       0.00000000 </v>
   </varray>
   <i name="volume">     16.58293965 </i>
   <varray name="rec_basis" >
    <v>      -0.24703557       0.24703557       0.24703557 </v>
    <v>       0.24703557      -0.24703557       0.24703557 </v>
    <v>       0.24703557       0.24703557      -0.24703557 </v>
   </varray>
  </crystal>
  <varray name="positions" >
   <v>       0.00000000       0.00000000       0.00000000 </v>
  </varray>
 </structure>
 <calculation>
  <scstep>
   <time name="dav">    8.43    8.43</time>
   <time name="total">    8.64    8.64</time>
   <energy>
    <i name="alphaZ">     -0.20254611 </i>
    <i name="ewald">    -73.39295237 </i>
    <i name="hartreedc">     -0.10329695 </i>
    <i name="XCdc">    -26.19545267 </i>
    <i name="pawpsdc">     66.16230985 </i>
    <i name="pawaedc">    -34.20858819 </i>
    <i name="eentropy">      0.00000000 </i>
    <i name="bandstr">     10.75998845 </i>
    <i name="atom">     53.53841038 </i>
    <i name="e_fr_energy">     -3.64212762 </i>
    <i name="e_wo_entrp">     -3.64212762 </i>
    <i name="e_0_energy">     -3.64212762 </i>
   </energy>
  </scstep>
  <scstep>
   <time name="dav">    7.09    7.09</time>
   <time name="total">    7.14    7.14</time>
   <energy>
    <i name="e_fr_energy">     -3.68270745 </i>
    <i name="e_wo_entrp">     -3.68270745 </i>
    <i name="e_0_energy">     -3.68270745 </i>
   </energy>
  </scstep>
  <scstep>
   <time name="dav">   12.69   12.69</time>
   <time name="total">   12.73   12.73</time>
   <energy>
    <i name="e_fr_energy">     -3.68270899 </i>
    <i name="e_wo_entrp">     -3.68270899 </i>
    <i name="e_0_energy">     -3.68270899 </i>
   </energy>
  </scstep>
  <scstep>
   <time name="dav">   10.14   10.14</time>
   <time name="total">   10.19   10.19</time>
   <energy>
    <i name="e_fr_energy">     -3.68270899 </i>
    <i name="e_wo_entrp">     -3.68270899 </i>
    <i name="e_0_energy">     -3.68270899 </i>
   </energy>
  </scstep>
  <scstep>
   <time name="dav">   11.57   11.57</time>
   <time name="total">   11.67   11.67</time>
   <energy>
    <i name="e_fr_energy">     -3.68270899 </i>
    <i name="e_wo_entrp">     -3.68270899 </i>
    <i name="e_0_energy">     -3.68270899 </i>
   </energy>
  </scstep>
  <scstep>
   <time name="diag">    0.37    0.37</time>
   <time name="diis">    0.22    0.22</time>
   <time name="orth">    0.04    0.04</time>
   <time name="total">    0.90    0.90</time>
   <energy>
    <i name="e_fr_energy">     -3.75433031 </i>
    <i name="e_wo_entrp">     -3.75433031 </i>
    <i name="e_0_energy">     -3.75433031 </i>
   </energy>
  </scstep>
  <scstep>
   <time name="diag">    0.36    0.36</time>
   <time name="diis">    0.25    0.25</time>
   <time name="orth">    0.04    0.04</time>
   <time name="total">    0.91    0.91</time>
   <energy>
    <i name="e_fr_energy">     -3.74591782 </i>
    <i name="e_wo_entrp">     -3.74591782 </i>
    <i name="e_0_energy">     -3.74591782 </i>
   </energy>
  </scstep>
  <scstep>
   <time name="diag">    0.36    0.36</time>
   <time name="diis">    0.25    0.25</time>
   <time name="orth">    0.04    0.04</time>
   <time name="total">    0.92    0.92</time>
   <energy>
    <i name="e_fr_energy">     -3.74585531 </i>
    <i name="e_wo_entrp">     -3.74585531 </i>
    <i name="e_0_energy">     -3.74585531 </i>
   </energy>
  </scstep>
  <scstep>
   <time name="diag">    0.36    0.36</time>
   <time name="diis">    0.31    0.31</time>
   <time name="orth">    0.05    0.05</time>
   <time name="total">    0.93    0.93</time>
   <energy>
    <i name="alphaZ">     -0.20254611 </i>
    <i name="ewald">    -73.39295237 </i>
    <i name="hartreedc">     -0.10530358 </i>
    <i name="XCdc">    -26.14049313 </i>
    <i name="pawpsdc">    145.48658530 </i>
    <i name="pawaedc">   -113.54177927 </i>
    <i name="eentropy">      0.00000000 </i>
    <i name="bandstr">     10.61222059 </i>
    <i name="atom">     53.53841038 </i>
    <i name="e_fr_energy">     -3.74585818 </i>
    <i name="e_wo_entrp">     -3.74585818 </i>
    <i name="e_0_energy">     -3.74585818 </i>
   </energy>
  </scstep>
  <structure>
   <crystal>
    <varray name="basis" >
     <v>       0.00000000       2.02400000       2.02400000 </v>
     <v>       2.02400000       0.00000000       2.02400000 </v>
     <v>       2.02400000       2.02400000       0.00000000 </v>
    </varray>
    <i name="volume">     16.58293965 </i>
    <varray name="rec_basis" >
     <v>      -0.24703557       0.24703557       0.24703557 </v>
     <v>       0.24703557      -0.24703557       0.24703557 </v>
     <v>       0.24703557       0.24703557      -0.24703557 </v>
    </varray>
   </crystal>
   <varray name="positions" >
    <v>       0.00000000       0.00000000       0.00000000 </v>
   </varray>
  </structure>
  <varray name="forces" >
   <v>       0.00000000       0.00000000       0.00000000 </v>
  </varray>
  <varray name="stress" >
   <v>      -9.04471570       0.00000000       0.00000000 </v>
   <v>      -0.00000000      -9.04471570      -0.00000000 </v>
   <v>      -0.00000000      -0.00000000      -9.04471570 </v>
  </varray>
  <energy>
   <i name="e_fr_energy">     -3.74585818 </i>
   <i name="e_wo_entrp">     -3.74585818 </i>
   <i name="e_0_energy">     -3.74585818 </i>
  </energy>
  <time name="totalsc">   54.66   54.67</time>
  <eigenvalues>
   <array>
    <dimension dim="1">band</dimension>
    <dimension dim="2">kpoint</dimension>
    <dimension dim="3">spin</dimension>
    <field>eigene</field>
    <field>occ</field>
    <set>
     <set comment="spin 1">
      <set comment="kpoint 1">
       <r>   -3.1510    1.0000 </r>
       <r>   20.5407    0.0000 </r>
       <r>   20.5407    0.0000 </r>
       <r>   20.5407    0.0000 </r>
       <r>   21.9955    0.0000 </r>
       <r>   21.9955    0.0000 </r>
       <r>   21.9955    0.0000 </r>
       <r>   24.3779    0.0000 </r>
       <r>   27.3155    0.0000 </r>
       <r>   27.3155    0.0000 </r>
       <r>   30.1608    0.0000 </r>
       <r>   32.5112    0.0000 </r>
       <r>   32.5112    0.0000 </r>
       <r>   32.5112    0.0000 </r>
       <r>   41.0634    0.0000 </r>
       <r>   56.0698    0.0000 </r>
       <r>   56.0698    0.0000 </r>
       <r>   56.0698    0.0000 </r>
       <r>   56.0716    0.0000 </r>
       <r>   59.2184    0.0000 </r>
       <r>   59.2184    0.0000 </r>
       <r>   59.2184    0.0000 </r>
       <r>   62.8370    0.0000 </r>
       <r>   62.8370    0.0000 </r>
       <r>   65.0799    0.0000 </r>
       <r>   65.0799    0.0000 </r>
       <r>   65.0799    0.0000 </r>
       <r>   73.1849    0.0000 </r>
       <r>   73.1849    0.0000 </r>
       <r>   73.1849    0.0000 </r>
       <r>   80.8211    0.0000 </r>
       <r>   83.0811    0.0000 </r>
       <r>   83.0811    0.0000 </r>
       <r>   87.2142    0.0000 </r>
       <r>   87.2142    0.0000 </r>
       <r>   87.2142    0.0000 </r>
       <r>   90.0946    0.0000 </r>
       <r>   90.0946    0.0000 </r>
       <r>   90.0946    0.0000 </r>
       <r>   90.9069    0.0000 </r>
       <r>   93.4632    0.0000 </r>
       <r>   93.4632    0.0000 </r>
       <r>   93.4632    0.0000 </r>
       <r>   93.9378    0.0000 </r>
       <r>   93.9378    0.0000 </r>
       <r>   93.9378    0.0000 </r>
       <r>   96.3760    0.0000 </r>
       <r>   96.3760    0.0000 </r>
      </set>
      <set comment="kpoint 2">
       <r>   -2.9272    1.0000 </r>
       <r>   17.6195    0.0000 </r>
       <r>   19.8941    0.0000 </r>
       <r>   19.8941    0.0000 </r>
       <r>   22.6700    0.0000 </r>
       <r>   22.9807    0.0000 </r>
       <r>   22.9807    0.0000 </r>
       <r>   26.2026    0.0000 </r>
       <r>   26.2026    0.0000 </r>
       <r>   26.4708    0.0000 </r>
       <r>   29.4089    0.0000 </r>
       <r>   33.6040    0.0000 </r>
       <r>   34.0814    0.0000 </r>
       <r>   34.0814    0.0000 </r>
       <r>   41.9384    0.0000 </r>
       <r>   55.3112    0.0000 </r>
       <r>   55.6133    0.0000 </r>
       <r>   55.6133    0.0000 </r>
       <r>   56.3676    0.0000 </r>
       <r>   57.1919    0.0000 </r>
       <r>   57.1919    0.0000 </r>
       <r>   59.2117    0.0000 </r>
       <r>   61.5836    0.0000 </r>
       <r>   61.5836    0.0000 </r>
       <r>   65.2802    0.0000 </r>
       <r>   68.9368    0.0000 </r>
       <r>   68.9368    0.0000 </r>
       <r>   71.5351    0.0000 </r>
       <r>   72.9854    0.0000 </r>
       <r>   72.9854    0.0000 </r>
       <r>   81.8329    0.0000 </r>
       <r>   81.8329    0.0000 </r>
       <r>   82.3055    0.0000 </r>
       <r>   84.0930    0.0000 </r>
       <r>   85.7974    0.0000 </r>
       <r>   85.7974    0.0000 </r>
       <r>   87.9876    0.0000 </r>
       <r>   87.9876    0.0000 </r>
       <r>   89.0089    0.0000 </r>
       <r>   90.0955    0.0000 </r>
       <r>   91.3071    0.0000 </r>
       <r>   91.3071    0.0000 </r>
       <r>   92.8850    0.0000 </r>
       <r>   94.8056    0.0000 </r>
       <r>   95.6479    0.0000 </r>
       <r>   95.6479    0.0000 </r>
       <r>   97.1029    0.0000 </r>
       <r>   97.1029    0.0000 </r>
      </set>
      <set comment="kpoint 3">
       <r>   -2.2578    1.0000 </r>
       <r>   13.9745    0.0000 </r>
       <r>   19.1610    0.0000 </r>
       <r>   19.1610    0.0000 </r>
       <r>   22.4373    0.0000 </r>
       <r>   23.8032    0.0000 </r>
       <r>   23.8032    0.0000 </r>
       <r>   25.3164    0.0000 </r>
       <r>   25.3164    0.0000 </r>
       <r>   27.8929    0.0000 </r>
       <r>   29.9798    0.0000 </r>
       <r>   36.4315    0.0000 </r>
       <r>   37.2353    0.0000 </r>
       <r>   37.2353    0.0000 </r>
       <r>   44.1454    0.0000 </r>
       <r>   51.7148    0.0000 </r>
       <r>   51.7148    0.0000 </r>
       <r>   53.8992    0.0000 </r>
       <r>   56.4496    0.0000 </r>
       <r>   56.4496    0.0000 </r>
       <r>   56.5712    0.0000 </r>
       <r>   58.9040    0.0000 </r>
       <r>   61.7243    0.0000 </r>
       <r>   61.7243    0.0000 </r>
       <r>   65.8706    0.0000 </r>
       <r>   68.8998    0.0000 </r>
       <r>   71.0722    0.0000 </r>
       <r>   71.0722    0.0000 </r>
       <r>   73.9553    0.0000 </r>
       <r>   73.9553    0.0000 </r>
       <r>   78.8505    0.0000 </r>
       <r>   78.9895    0.0000 </r>
       <r>   78.9895    0.0000 </r>
       <r>   82.8176    0.0000 </r>
       <r>   82.8176    0.0000 </r>
       <r>   84.8246    0.0000 </r>
       <r>   85.6525    0.0000 </r>
       <r>   86.5856    0.0000 </r>
       <r>   86.5856    0.0000 </r>
       <r>   87.4973    0.0000 </r>
       <r>   89.4540    0.0000 </r>
       <r>   90.0190    0.0000 </r>
       <r>   90.0190    0.0000 </r>
       <r>   93.9179    0.0000 </r>
       <r>   97.2895    0.0000 </r>
       <r>   97.2895    0.0000 </r>
       <r>   99.4923    0.0000 </r>
       <r>   99.4923    0.0000 </r>
      </set>
      <set comment="kpoint 4">
       <r>   -1.1491    1.0000 </r>
       <r>   10.5498   -0.0162 </r>
       <r>   18.7522    0.0000 </r>
       <r>   18.7522    0.0000 </r>
       <r>   22.2254    0.0000 </r>
       <r>   22.2581    0.0000 </r>
       <r>   22.2581    0.0000 </r>
       <r>   26.2472    0.0000 </r>
       <r>   27.3614    0.0000 </r>
       <r>   27.3614    0.0000 </r>
       <r>   33.3146    0.0000 </r>
       <r>   40.5167    0.0000 </r>
       <r>   40.8500    0.0000 </r>
       <r>   40.8500    0.0000 </r>
       <r>   47.0317    0.0000 </r>
       <r>   47.3690    0.0000 </r>
       <r>   47.3690    0.0000 </r>
       <r>   51.9125    0.0000 </r>
       <r>   56.3959    0.0000 </r>
       <r>   56.3959    0.0000 </r>
       <r>   56.7971    0.0000 </r>
       <r>   57.9461    0.0000 </r>
       <r>   62.1719    0.0000 </r>
       <r>   62.1719    0.0000 </r>
       <r>   66.3390    0.0000 </r>
       <r>   66.8085    0.0000 </r>
       <r>   67.8385    0.0000 </r>
       <r>   67.8385    0.0000 </r>
       <r>   74.3902    0.0000 </r>
       <r>   74.3902    0.0000 </r>
       <r>   75.7477    0.0000 </r>
       <r>   78.3818    0.0000 </r>
       <r>   79.1253    0.0000 </r>
       <r>   79.1253    0.0000 </r>
       <r>   79.9736    0.0000 </r>
       <r>   79.9736    0.0000 </r>
       <r>   81.1839    0.0000 </r>
       <r>   88.1690    0.0000 </r>
       <r>   88.1690    0.0000 </r>
       <r>   88.7477    0.0000 </r>
       <r>   89.4899    0.0000 </r>
       <r>   89.4899    0.0000 </r>
       <r>   91.1225    0.0000 </r>
       <r>   93.0360    0.0000 </r>
       <r>   97.5154    0.0000 </r>
       <r>   97.5154    0.0000 </r>
       <r>  101.4982    0.0000 </r>
       <r>  102.4481    0.0000 </r>
      </set>
      <set comment="kpoint 5">
       <r>    0.3890    1.0000 </r>
       <r>    7.4473    0.7111 </r>
       <r>   18.7083    0.0000 </r>
       <r>   18.7083    0.0000 </r>
       <r>   20.8289    0.0000 </r>
       <r>   20.8289    0.0000 </r>
       <r>   22.2963    0.0000 </r>
       <r>   24.7595    0.0000 </r>
       <r>   29.8898    0.0000 </r>
       <r>   29.8898    0.0000 </r>
       <r>   36.4450    0.0000 </r>
       <r>   41.9033    0.0000 </r>
       <r>   41.9033    0.0000 </r>
       <r>   45.0386    0.0000 </r>
       <r>   46.4385    0.0000 </r>
       <r>   46.4385    0.0000 </r>
       <r>   48.3307    0.0000 </r>
       <r>   51.7478    0.0000 </r>
       <r>   56.3161    0.0000 </r>
       <r>   56.3161    0.0000 </r>
       <r>   56.4076    0.0000 </r>
       <r>   57.0758    0.0000 </r>
       <r>   61.3501    0.0000 </r>
       <r>   61.3501    0.0000 </r>
       <r>   63.7576    0.0000 </r>
       <r>   64.4086    0.0000 </r>
       <r>   64.4086    0.0000 </r>
       <r>   67.9701    0.0000 </r>
       <r>   69.6729    0.0000 </r>
       <r>   73.8345    0.0000 </r>
       <r>   73.8345    0.0000 </r>
       <r>   76.5577    0.0000 </r>
       <r>   76.9695    0.0000 </r>
       <r>   76.9695    0.0000 </r>
       <r>   78.2211    0.0000 </r>
       <r>   80.4454    0.0000 </r>
       <r>   80.4454    0.0000 </r>
       <r>   88.5467    0.0000 </r>
       <r>   89.1279    0.0000 </r>
       <r>   89.1279    0.0000 </r>
       <r>   90.4710    0.0000 </r>
       <r>   92.0181    0.0000 </r>
       <r>   92.0181    0.0000 </r>
       <r>   94.2341    0.0000 </r>
       <r>   98.9701    0.0000 </r>
       <r>   98.9702    0.0000 </r>
       <r>  102.3457    0.0000 </r>
       <r>  104.0993    0.0000 </r>
      </set>
      <set comment="kpoint 6">
       <r>    2.3418    1.0000 </r>
       <r>    4.7081    1.0000 </r>
       <r>   19.0374    0.0000 </r>
       <r>   19.0374    0.0000 </r>
       <r>   19.7497    0.0000 </r>
       <r>   19.7497    0.0000 </r>
       <r>   22.7338    0.0000 </r>
       <r>   23.5709    0.0000 </r>
       <r>   32.2133    0.0000 </r>
       <r>   32.2133    0.0000 </r>
       <r>   39.0086    0.0000 </r>
       <r>   39.2265    0.0000 </r>
       <r>   39.2265    0.0000 </r>
       <r>   45.8114    0.0000 </r>
       <r>   49.6299    0.0000 </r>
       <r>   50.3231    0.0000 </r>
       <r>   50.3231    0.0000 </r>
       <r>   54.2166    0.0000 </r>
       <r>   55.4602    0.0000 </r>
       <r>   55.4847    0.0000 </r>
       <r>   55.4847    0.0000 </r>
       <r>   57.6563    0.0000 </r>
       <r>   57.9627    0.0000 </r>
       <r>   57.9627    0.0000 </r>
       <r>   61.6770    0.0000 </r>
       <r>   63.6323    0.0000 </r>
       <r>   64.2347    0.0000 </r>
       <r>   64.2347    0.0000 </r>
       <r>   68.9597    0.0000 </r>
       <r>   73.6031    0.0000 </r>
       <r>   73.6031    0.0000 </r>
       <r>   75.5309    0.0000 </r>
       <r>   75.5309    0.0000 </r>
       <r>   76.3304    0.0000 </r>
       <r>   76.8669    0.0000 </r>
       <r>   80.5453    0.0000 </r>
       <r>   80.5453    0.0000 </r>
       <r>   88.5975    0.0000 </r>
       <r>   88.8838    0.0000 </r>
       <r>   88.8838    0.0000 </r>
       <r>   89.2111    0.0000 </r>
       <r>   94.2112    0.0000 </r>
       <r>   95.0997    0.0000 </r>
       <r>   95.0998    0.0000 </r>
       <r>  101.1955    0.0000 </r>
       <r>  101.1955    0.0000 </r>
       <r>  105.1329    0.0000 </r>
       <r>  105.1329    0.0000 </r>
      </set>
      <set comment="kpoint 7">
       <r>   -2.8527    1.0000 </r>
       <r>   18.6321    0.0000 </r>
       <r>   18.6321    0.0000 </r>
       <r>   18.9319    0.0000 </r>
       <r>   21.3284    0.0000 </r>
       <r>   24.2921    0.0000 </r>
       <r>   24.3364    0.0000 </r>
       <r>   24.3364    0.0000 </r>
       <r>   26.5830    0.0000 </r>
       <r>   27.5915    0.0000 </r>
       <r>   30.5944    0.0000 </r>
       <r>   32.8569    0.0000 </r>
       <r>   32.8569    0.0000 </r>
       <r>   35.5668    0.0000 </r>
       <r>   42.3736    0.0000 </r>
       <r>   55.2228    0.0000 </r>
       <r>   55.2228    0.0000 </r>
       <r>   55.4489    0.0000 </r>
       <r>   56.5442    0.0000 </r>
       <r>   57.4768    0.0000 </r>
       <r>   57.4768    0.0000 </r>
       <r>   57.8578    0.0000 </r>
       <r>   59.4129    0.0000 </r>
       <r>   62.7610    0.0000 </r>
       <r>   67.4743    0.0000 </r>
       <r>   67.4743    0.0000 </r>
       <r>   70.3979    0.0000 </r>
       <r>   70.4361    0.0000 </r>
       <r>   73.4431    0.0000 </r>
       <r>   73.4431    0.0000 </r>
       <r>   80.6286    0.0000 </r>
       <r>   82.5789    0.0000 </r>
       <r>   82.6884    0.0000 </r>
       <r>   82.6884    0.0000 </r>
       <r>   83.4150    0.0000 </r>
       <r>   84.1301    0.0000 </r>
       <r>   88.7428    0.0000 </r>
       <r>   90.0854    0.0000 </r>
       <r>   90.0854    0.0000 </r>
       <r>   90.1169    0.0000 </r>
       <r>   90.1169    0.0000 </r>
       <r>   92.1323    0.0000 </r>
       <r>   93.1389    0.0000 </r>
       <r>   94.4107    0.0000 </r>
       <r>   94.7982    0.0000 </r>
       <r>   97.7794    0.0000 </r>
       <r>   97.8058    0.0000 </r>
       <r>   97.8058    0.0000 </r>
      </set>
      <set comment="kpoint 8">
       <r>   -2.3320    1.0000 </r>
       <r>   15.2964    0.0000 </r>
       <r>   17.7060    0.0000 </r>
       <r>   19.0473    0.0000 </r>
       <r>   21.6657    0.0000 </r>
       <r>   22.2810    0.0000 </r>
       <r>   24.7155    0.0000 </r>
       <r>   25.7363    0.0000 </r>
       <r>   27.0762    0.0000 </r>
       <r>   29.5007    0.0000 </r>
       <r>   29.9519    0.0000 </r>
       <r>   34.7299    0.0000 </r>
       <r>   35.0376    0.0000 </r>
       <r>   37.8758    0.0000 </r>
       <r>   44.4223    0.0000 </r>
       <r>   51.7226    0.0000 </r>
       <r>   52.8165    0.0000 </r>
       <r>   55.4578    0.0000 </r>
       <r>   55.6888    0.0000 </r>
       <r>   56.2300    0.0000 </r>
       <r>   57.0659    0.0000 </r>
       <r>   57.9825    0.0000 </r>
       <r>   59.3906    0.0000 </r>
       <r>   62.3212    0.0000 </r>
       <r>   67.4699    0.0000 </r>
       <r>   68.4192    0.0000 </r>
       <r>   71.3221    0.0000 </r>
       <r>   72.5432    0.0000 </r>
       <r>   72.5862    0.0000 </r>
       <r>   74.9211    0.0000 </r>
       <r>   77.3021    0.0000 </r>
       <r>   78.4321    0.0000 </r>
       <r>   80.6657    0.0000 </r>
       <r>   81.7095    0.0000 </r>
       <r>   82.4901    0.0000 </r>
       <r>   84.0909    0.0000 </r>
       <r>   86.2155    0.0000 </r>
       <r>   86.2766    0.0000 </r>
       <r>   89.1442    0.0000 </r>
       <r>   89.2627    0.0000 </r>
       <r>   89.7899    0.0000 </r>
       <r>   91.3599    0.0000 </r>
       <r>   93.7446    0.0000 </r>
       <r>   94.4282    0.0000 </r>
       <r>   94.5214    0.0000 </r>
       <r>   96.1785    0.0000 </r>
       <r>   97.0344    0.0000 </r>
       <r>   97.6271    0.0000 </r>
      </set>
      <set comment="kpoint 9">
       <r>   -1.3702    1.0000 </r>
       <r>   11.8218    0.0000 </r>
       <r>   17.1498    0.0000 </r>
       <r>   18.7071    0.0000 </r>
       <r>   20.0162    0.0000 </r>
       <r>   23.7960    0.0000 </r>
       <r>   24.6497    0.0000 </r>
       <r>   24.7578    0.0000 </r>
       <r>   28.2545    0.0000 </r>
       <r>   28.5401    0.0000 </r>
       <r>   33.0558    0.0000 </r>
       <r>   38.0850    0.0000 </r>
       <r>   39.0267    0.0000 </r>
       <r>   40.8807    0.0000 </r>
       <r>   47.1336    0.0000 </r>
       <r>   47.3289    0.0000 </r>
       <r>   49.0810    0.0000 </r>
       <r>   53.6855    0.0000 </r>
       <r>   55.5826    0.0000 </r>
       <r>   56.2318    0.0000 </r>
       <r>   57.1690    0.0000 </r>
       <r>   58.5527    0.0000 </r>
       <r>   58.6495    0.0000 </r>
       <r>   62.5373    0.0000 </r>
       <r>   65.0196    0.0000 </r>
       <r>   68.7874    0.0000 </r>
       <r>   68.8519    0.0000 </r>
       <r>   71.5350    0.0000 </r>
       <r>   72.0201    0.0000 </r>
       <r>   73.7304    0.0000 </r>
       <r>   77.0071    0.0000 </r>
       <r>   77.1287    0.0000 </r>
       <r>   78.6129    0.0000 </r>
       <r>   80.6901    0.0000 </r>
       <r>   81.0225    0.0000 </r>
       <r>   81.4815    0.0000 </r>
       <r>   82.6293    0.0000 </r>
       <r>   86.7553    0.0000 </r>
       <r>   86.7999    0.0000 </r>
       <r>   87.0530    0.0000 </r>
       <r>   91.0157    0.0000 </r>
       <r>   92.3864    0.0000 </r>
       <r>   92.6076    0.0000 </r>
       <r>   94.1477    0.0000 </r>
       <r>   94.4874    0.0000 </r>
       <r>   97.2776    0.0000 </r>
       <r>   99.7359    0.0000 </r>
       <r>  100.8029    0.0000 </r>
      </set>
      <set comment="kpoint 10">
       <r>    0.0241    1.0000 </r>
       <r>    8.6211    0.1967 </r>
       <r>   16.9706    0.0000 </r>
       <r>   18.3666    0.0000 </r>
       <r>   18.6185    0.0000 </r>
       <r>   23.2989    0.0000 </r>
       <r>   24.3945    0.0000 </r>
       <r>   26.0461    0.0000 </r>
       <r>   27.2166    0.0000 </r>
       <r>   30.8509    0.0000 </r>
       <r>   36.2804    0.0000 </r>
       <r>   40.8724    0.0000 </r>
       <r>   43.2333    0.0000 </r>
       <r>   43.7153    0.0000 </r>
       <r>   44.2186    0.0000 </r>
       <r>   46.3855    0.0000 </r>
       <r>   49.7868    0.0000 </r>
       <r>   52.2706    0.0000 </r>
       <r>   55.6711    0.0000 </r>
       <r>   56.2972    0.0000 </r>
       <r>   56.6963    0.0000 </r>
       <r>   57.6222    0.0000 </r>
       <r>   59.1594    0.0000 </r>
       <r>   61.7364    0.0000 </r>
       <r>   63.2313    0.0000 </r>
       <r>   64.9244    0.0000 </r>
       <r>   66.4582    0.0000 </r>
       <r>   70.4303    0.0000 </r>
       <r>   70.4834    0.0000 </r>
       <r>   71.3631    0.0000 </r>
       <r>   72.6044    0.0000 </r>
       <r>   76.1290    0.0000 </r>
       <r>   77.1597    0.0000 </r>
       <r>   78.1765    0.0000 </r>
       <r>   80.5901    0.0000 </r>
       <r>   81.5439    0.0000 </r>
       <r>   83.3393    0.0000 </r>
       <r>   84.6214    0.0000 </r>
       <r>   87.2894    0.0000 </r>
       <r>   88.6245    0.0000 </r>
       <r>   92.5234    0.0000 </r>
       <r>   93.5937    0.0000 </r>
       <r>   93.7327    0.0000 </r>
       <r>   94.4724    0.0000 </r>
       <r>   96.1896    0.0000 </r>
       <r>   98.3302    0.0000 </r>
       <r>  101.1430    0.0000 </r>
       <r>  103.2540    0.0000 </r>
      </set>
      <set comment="kpoint 11">
       <r>    1.8381    1.0000 </r>
       <r>    5.7647    1.0451 </r>
       <r>   17.1434    0.0000 </r>
       <r>   17.1709    0.0000 </r>
       <r>   18.8343    0.0000 </r>
       <r>   22.1217    0.0000 </r>
       <r>   24.6451    0.0000 </r>
       <r>   25.3363    0.0000 </r>
       <r>   29.4681    0.0000 </r>
       <r>   32.7307    0.0000 </r>
       <r>   39.1073    0.0000 </r>
       <r>   39.1537    0.0000 </r>
       <r>   40.6670    0.0000 </r>
       <r>   47.1233    0.0000 </r>
       <r>   47.4447    0.0000 </r>
       <r>   48.7421    0.0000 </r>
       <r>   49.8164    0.0000 </r>
       <r>   54.2173    0.0000 </r>
       <r>   55.0712    0.0000 </r>
       <r>   55.7077    0.0000 </r>
       <r>   56.2582    0.0000 </r>
       <r>   56.8245    0.0000 </r>
       <r>   58.7404    0.0000 </r>
       <r>   59.1055    0.0000 </r>
       <r>   62.0976    0.0000 </r>
       <r>   62.8294    0.0000 </r>
       <r>   63.9882    0.0000 </r>
       <r>   66.0851    0.0000 </r>
       <r>   69.1247    0.0000 </r>
       <r>   69.7679    0.0000 </r>
       <r>   71.9505    0.0000 </r>
       <r>   74.9644    0.0000 </r>
       <r>   76.1237    0.0000 </r>
       <r>   78.1234    0.0000 </r>
       <r>   80.4189    0.0000 </r>
       <r>   81.2914    0.0000 </r>
       <r>   82.7933    0.0000 </r>
       <r>   83.6201    0.0000 </r>
       <r>   88.4706    0.0000 </r>
       <r>   88.7031    0.0000 </r>
       <r>   92.3949    0.0000 </r>
       <r>   94.6366    0.0000 </r>
       <r>   95.6754    0.0000 </r>
       <r>   96.9557    0.0000 </r>
       <r>   99.6927    0.0000 </r>
       <r>  101.3893    0.0000 </r>
       <r>  101.4686    0.0000 </r>
       <r>  102.1453    0.0000 </r>
      </set>
      <set comment="kpoint 12">
       <r>    3.2644    1.0000 </r>
       <r>    4.0766    1.0000 </r>
       <r>   16.2849    0.0000 </r>
       <r>   17.7518    0.0000 </r>
       <r>   19.4598    0.0000 </r>
       <r>   21.2984    0.0000 </r>
       <r>   24.2600    0.0000 </r>
       <r>   25.4725    0.0000 </r>
       <r>   31.7379    0.0000 </r>
       <r>   31.8948    0.0000 </r>
       <r>   38.0387    0.0000 </r>
       <r>   39.7852    0.0000 </r>
       <r>   40.5279    0.0000 </r>
       <r>   46.3950    0.0000 </r>
       <r>   49.4038    0.0000 </r>
       <r>   50.6246    0.0000 </r>
       <r>   51.4134    0.0000 </r>
       <r>   53.6660    0.0000 </r>
       <r>   54.9745    0.0000 </r>
       <r>   55.3423    0.0000 </r>
       <r>   56.4241    0.0000 </r>
       <r>   56.9748    0.0000 </r>
       <r>   57.2179    0.0000 </r>
       <r>   58.8672    0.0000 </r>
       <r>   61.7029    0.0000 </r>
       <r>   61.8408    0.0000 </r>
       <r>   62.7854    0.0000 </r>
       <r>   64.7621    0.0000 </r>
       <r>   68.8625    0.0000 </r>
       <r>   69.3260    0.0000 </r>
       <r>   72.1703    0.0000 </r>
       <r>   74.6692    0.0000 </r>
       <r>   76.1281    0.0000 </r>
       <r>   78.2032    0.0000 </r>
       <r>   80.1524    0.0000 </r>
       <r>   81.3881    0.0000 </r>
       <r>   82.1678    0.0000 </r>
       <r>   83.4934    0.0000 </r>
       <r>   88.5008    0.0000 </r>
       <r>   88.6313    0.0000 </r>
       <r>   92.1408    0.0000 </r>
       <r>   94.8946    0.0000 </r>
       <r>   96.5988    0.0000 </r>
       <r>   98.1798    0.0000 </r>
       <r>   99.9370    0.0000 </r>
       <r>  100.6095    0.0000 </r>
       <r>  103.7155    0.0000 </r>
       <r>  104.5893    0.0000 </r>
      </set>
      <set comment="kpoint 13">
       <r>    1.1880    1.0000 </r>
       <r>    6.6744    1.0095 </r>
       <r>   15.8201    0.0000 </r>
       <r>   18.7109    0.0000 </r>
       <r>   20.4700    0.0000 </r>
       <r>   20.8466    0.0000 </r>
       <r>   23.7276    0.0000 </r>
       <r>   26.4147    0.0000 </r>
       <r>   29.2329    0.0000 </r>
       <r>   31.3133    0.0000 </r>
       <r>   38.1074    0.0000 </r>
       <r>   39.3519    0.0000 </r>
       <r>   42.8039    0.0000 </r>
       <r>   45.2739    0.0000 </r>
       <r>   46.5754    0.0000 </r>
       <r>   48.6885    0.0000 </r>
       <r>   49.4261    0.0000 </r>
       <r>   53.6143    0.0000 </r>
       <r>   55.5539    0.0000 </r>
       <r>   55.7597    0.0000 </r>
       <r>   55.8408    0.0000 </r>
       <r>   57.7536    0.0000 </r>
       <r>   59.1699    0.0000 </r>
       <r>   60.5323    0.0000 </r>
       <r>   60.9452    0.0000 </r>
       <r>   62.7635    0.0000 </r>
       <r>   64.9105    0.0000 </r>
       <r>   68.6696    0.0000 </r>
       <r>   69.3704    0.0000 </r>
       <r>   70.1699    0.0000 </r>
       <r>   71.3618    0.0000 </r>
       <r>   75.3323    0.0000 </r>
       <r>   76.4598    0.0000 </r>
       <r>   78.7547    0.0000 </r>
       <r>   79.8257    0.0000 </r>
       <r>   81.7481    0.0000 </r>
       <r>   82.9793    0.0000 </r>
       <r>   83.6782    0.0000 </r>
       <r>   87.9025    0.0000 </r>
       <r>   88.0913    0.0000 </r>
       <r>   92.9192    0.0000 </r>
       <r>   93.6629    0.0000 </r>
       <r>   94.8257    0.0000 </r>
       <r>   95.8963    0.0000 </r>
       <r>   98.8060    0.0000 </r>
       <r>  100.1818    0.0000 </r>
       <r>  102.3963    0.0000 </r>
       <r>  106.0500    0.0000 </r>
      </set>
      <set comment="kpoint 14">
       <r>   -0.4880    1.0000 </r>
       <r>    9.6458   -0.0577 </r>
       <r>   15.7545    0.0000 </r>
       <r>   20.0184    0.0000 </r>
       <r>   20.7852    0.0000 </r>
       <r>   21.8412    0.0000 </r>
       <r>   23.5151    0.0000 </r>
       <r>   26.5212    0.0000 </r>
       <r>   27.4027    0.0000 </r>
       <r>   29.3521    0.0000 </r>
       <r>   35.3834    0.0000 </r>
       <r>   39.7895    0.0000 </r>
       <r>   42.2397    0.0000 </r>
       <r>   43.8476    0.0000 </r>
       <r>   43.9670    0.0000 </r>
       <r>   48.0336    0.0000 </r>
       <r>   48.8562    0.0000 </r>
       <r>   51.9681    0.0000 </r>
       <r>   55.7384    0.0000 </r>
       <r>   55.9842    0.0000 </r>
       <r>   57.2186    0.0000 </r>
       <r>   57.8921    0.0000 </r>
       <r>   60.0103    0.0000 </r>
       <r>   61.4085    0.0000 </r>
       <r>   64.0361    0.0000 </r>
       <r>   64.9645    0.0000 </r>
       <r>   68.3858    0.0000 </r>
       <r>   70.3436    0.0000 </r>
       <r>   70.5953    0.0000 </r>
       <r>   72.6852    0.0000 </r>
       <r>   75.2148    0.0000 </r>
       <r>   75.9109    0.0000 </r>
       <r>   77.6297    0.0000 </r>
       <r>   78.8556    0.0000 </r>
       <r>   79.4038    0.0000 </r>
       <r>   82.9900    0.0000 </r>
       <r>   84.3346    0.0000 </r>
       <r>   84.6836    0.0000 </r>
       <r>   86.1470    0.0000 </r>
       <r>   86.7759    0.0000 </r>
       <r>   90.8237    0.0000 </r>
       <r>   91.1253    0.0000 </r>
       <r>   94.5433    0.0000 </r>
       <r>   95.2560    0.0000 </r>
       <r>   96.3097    0.0000 </r>
       <r>   99.7413    0.0000 </r>
       <r>  100.6482    0.0000 </r>
       <r>  104.0552    0.0000 </r>
      </set>
      <set comment="kpoint 15">
       <r>   -1.7394    1.0000 </r>
       <r>   12.9265    0.0000 </r>
       <r>   16.1032    0.0000 </r>
       <r>   20.9371    0.0000 </r>
       <r>   21.7512    0.0000 </r>
       <r>   23.4405    0.0000 </r>
       <r>   23.6124    0.0000 </r>
       <r>   24.2059    0.0000 </r>
       <r>   26.3100    0.0000 </r>
       <r>   29.6156    0.0000 </r>
       <r>   32.1555    0.0000 </r>
       <r>   36.0534    0.0000 </r>
       <r>   38.4269    0.0000 </r>
       <r>   40.4587    0.0000 </r>
       <r>   45.9051    0.0000 </r>
       <r>   47.6919    0.0000 </r>
       <r>   51.8779    0.0000 </r>
       <r>   53.7989    0.0000 </r>
       <r>   55.6170    0.0000 </r>
       <r>   55.8999    0.0000 </r>
       <r>   57.2231    0.0000 </r>
       <r>   58.9932    0.0000 </r>
       <r>   59.4458    0.0000 </r>
       <r>   61.0939    0.0000 </r>
       <r>   67.0035    0.0000 </r>
       <r>   68.5593    0.0000 </r>
       <r>   69.4776    0.0000 </r>
       <r>   71.0119    0.0000 </r>
       <r>   73.8445    0.0000 </r>
       <r>   74.8421    0.0000 </r>
       <r>   76.9752    0.0000 </r>
       <r>   77.8818    0.0000 </r>
       <r>   78.8687    0.0000 </r>
       <r>   79.2044    0.0000 </r>
       <r>   82.7569    0.0000 </r>
       <r>   83.1984    0.0000 </r>
       <r>   84.6676    0.0000 </r>
       <r>   85.3419    0.0000 </r>
       <r>   86.6930    0.0000 </r>
       <r>   87.0156    0.0000 </r>
       <r>   89.1618    0.0000 </r>
       <r>   90.7770    0.0000 </r>
       <r>   91.6691    0.0000 </r>
       <r>   94.4659    0.0000 </r>
       <r>   96.4335    0.0000 </r>
       <r>   97.1905    0.0000 </r>
       <r>   99.3858    0.0000 </r>
       <r>  101.4830    0.0000 </r>
      </set>
      <set comment="kpoint 16">
       <r>   -2.5549    1.0000 </r>
       <r>   16.1361    0.0000 </r>
       <r>   17.1425    0.0000 </r>
       <r>   21.1209    0.0000 </r>
       <r>   22.3033    0.0000 </r>
       <r>   23.3736    0.0000 </r>
       <r>   24.1095    0.0000 </r>
       <r>   24.4761    0.0000 </r>
       <r>   25.4825    0.0000 </r>
       <r>   28.8069    0.0000 </r>
       <r>   30.2754    0.0000 </r>
       <r>   33.2769    0.0000 </r>
       <r>   35.6236    0.0000 </r>
       <r>   36.9550    0.0000 </r>
       <r>   43.3412    0.0000 </r>
       <r>   52.1750    0.0000 </r>
       <r>   55.2167    0.0000 </r>
       <r>   55.6747    0.0000 </r>
       <r>   55.6871    0.0000 </r>
       <r>   55.7618    0.0000 </r>
       <r>   57.0282    0.0000 </r>
       <r>   59.3265    0.0000 </r>
       <r>   59.8691    0.0000 </r>
       <r>   60.9701    0.0000 </r>
       <r>   68.6243    0.0000 </r>
       <r>   68.9868    0.0000 </r>
       <r>   69.5419    0.0000 </r>
       <r>   71.6233    0.0000 </r>
       <r>   73.0680    0.0000 </r>
       <r>   73.7290    0.0000 </r>
       <r>   80.0814    0.0000 </r>
       <r>   80.4104    0.0000 </r>
       <r>   80.7982    0.0000 </r>
       <r>   81.9577    0.0000 </r>
       <r>   82.4514    0.0000 </r>
       <r>   86.1178    0.0000 </r>
       <r>   86.2398    0.0000 </r>
       <r>   86.8320    0.0000 </r>
       <r>   87.4547    0.0000 </r>
       <r>   89.8979    0.0000 </r>
       <r>   90.7876    0.0000 </r>
       <r>   92.2670    0.0000 </r>
       <r>   92.3922    0.0000 </r>
       <r>   92.9608    0.0000 </r>
       <r>   93.3384    0.0000 </r>
       <r>   95.7585    0.0000 </r>
       <r>   97.7243    0.0000 </r>
       <r>   98.7509    0.0000 </r>
      </set>
      <set comment="kpoint 17">
       <r>   -1.9613    1.0000 </r>
       <r>   16.6293    0.0000 </r>
       <r>   16.6293    0.0000 </r>
       <r>   16.7619    0.0000 </r>
       <r>   19.5895    0.0000 </r>
       <r>   19.9624    0.0000 </r>
       <r>   27.5154    0.0000 </r>
       <r>   27.5154    0.0000 </r>
       <r>   28.4101    0.0000 </r>
       <r>   30.5401    0.0000 </r>
       <r>   32.5175    0.0000 </r>
       <r>   33.9980    0.0000 </r>
       <r>   33.9980    0.0000 </r>
       <r>   38.7747    0.0000 </r>
       <r>   46.5404    0.0000 </r>
       <r>   51.7558    0.0000 </r>
       <r>   51.7558    0.0000 </r>
       <r>   52.4499    0.0000 </r>
       <r>   54.6113    0.0000 </r>
       <r>   56.8986    0.0000 </r>
       <r>   56.8986    0.0000 </r>
       <r>   56.9852    0.0000 </r>
       <r>   59.9465    0.0000 </r>
       <r>   61.6954    0.0000 </r>
       <r>   66.8777    0.0000 </r>
       <r>   70.0690    0.0000 </r>
       <r>   70.0690    0.0000 </r>
       <r>   72.4818    0.0000 </r>
       <r>   72.4818    0.0000 </r>
       <r>   76.2139    0.0000 </r>
       <r>   76.2618    0.0000 </r>
       <r>   78.0620    0.0000 </r>
       <r>   78.2130    0.0000 </r>
       <r>   78.2130    0.0000 </r>
       <r>   82.4979    0.0000 </r>
       <r>   84.1442    0.0000 </r>
       <r>   87.3667    0.0000 </r>
       <r>   87.3667    0.0000 </r>
       <r>   88.2056    0.0000 </r>
       <r>   89.8743    0.0000 </r>
       <r>   91.7819    0.0000 </r>
       <r>   91.7819    0.0000 </r>
       <r>   93.5246    0.0000 </r>
       <r>   93.6324    0.0000 </r>
       <r>   93.6324    0.0000 </r>
       <r>   93.7523    0.0000 </r>
       <r>   98.1554    0.0000 </r>
       <r>   98.2706    0.0000 </r>
      </set>
      <set comment="kpoint 18">
       <r>   -1.1492    1.0000 </r>
       <r>   13.4109    0.0000 </r>
       <r>   15.9350    0.0000 </r>
       <r>   17.2244    0.0000 </r>
       <r>   17.5072    0.0000 </r>
       <r>   20.4895    0.0000 </r>
       <r>   27.4373    0.0000 </r>
       <r>   28.1395    0.0000 </r>
       <r>   29.8073    0.0000 </r>
       <r>   31.3795    0.0000 </r>
       <r>   33.6733    0.0000 </r>
       <r>   36.1719    0.0000 </r>
       <r>   37.4461    0.0000 </r>
       <r>   40.5699    0.0000 </r>
       <r>   47.2935    0.0000 </r>
       <r>   49.0717    0.0000 </r>
       <r>   49.5068    0.0000 </r>
       <r>   52.7037    0.0000 </r>
       <r>   54.4505    0.0000 </r>
       <r>   55.8865    0.0000 </r>
       <r>   56.8964    0.0000 </r>
       <r>   57.2229    0.0000 </r>
       <r>   59.8425    0.0000 </r>
       <r>   61.0143    0.0000 </r>
       <r>   64.7828    0.0000 </r>
       <r>   68.4389    0.0000 </r>
       <r>   68.8463    0.0000 </r>
       <r>   71.0208    0.0000 </r>
       <r>   71.3153    0.0000 </r>
       <r>   73.8694    0.0000 </r>
       <r>   76.9395    0.0000 </r>
       <r>   77.2978    0.0000 </r>
       <r>   77.8467    0.0000 </r>
       <r>   79.3704    0.0000 </r>
       <r>   82.0025    0.0000 </r>
       <r>   82.7869    0.0000 </r>
       <r>   84.8880    0.0000 </r>
       <r>   86.0245    0.0000 </r>
       <r>   87.6962    0.0000 </r>
       <r>   89.9618    0.0000 </r>
       <r>   90.2119    0.0000 </r>
       <r>   91.9158    0.0000 </r>
       <r>   92.7591    0.0000 </r>
       <r>   93.6365    0.0000 </r>
       <r>   94.5537    0.0000 </r>
       <r>   98.0301    0.0000 </r>
       <r>   98.2933    0.0000 </r>
       <r>   98.9359    0.0000 </r>
      </set>
      <set comment="kpoint 19">
       <r>    0.0967    1.0000 </r>
       <r>   10.1737   -0.0476 </r>
       <r>   15.6214    0.0000 </r>
       <r>   15.6229    0.0000 </r>
       <r>   17.2763    0.0000 </r>
       <r>   22.6121    0.0000 </r>
       <r>   26.0850    0.0000 </r>
       <r>   28.1622    0.0000 </r>
       <r>   29.9225    0.0000 </r>
       <r>   31.9546    0.0000 </r>
       <r>   36.9945    0.0000 </r>
       <r>   39.4940    0.0000 </r>
       <r>   42.2210    0.0000 </r>
       <r>   42.8723    0.0000 </r>
       <r>   43.3742    0.0000 </r>
       <r>   45.9886    0.0000 </r>
       <r>   52.4581    0.0000 </r>
       <r>   53.5374    0.0000 </r>
       <r>   54.4018    0.0000 </r>
       <r>   54.6482    0.0000 </r>
       <r>   56.2814    0.0000 </r>
       <r>   56.9652    0.0000 </r>
       <r>   58.9949    0.0000 </r>
       <r>   60.8238    0.0000 </r>
       <r>   62.5292    0.0000 </r>
       <r>   65.4698    0.0000 </r>
       <r>   66.1831    0.0000 </r>
       <r>   68.3841    0.0000 </r>
       <r>   69.6906    0.0000 </r>
       <r>   72.8753    0.0000 </r>
       <r>   74.9336    0.0000 </r>
       <r>   75.4981    0.0000 </r>
       <r>   77.6984    0.0000 </r>
       <r>   78.3256    0.0000 </r>
       <r>   81.1802    0.0000 </r>
       <r>   81.4754    0.0000 </r>
       <r>   83.3519    0.0000 </r>
       <r>   87.2546    0.0000 </r>
       <r>   87.6547    0.0000 </r>
       <r>   90.2915    0.0000 </r>
       <r>   91.8993    0.0000 </r>
       <r>   93.0801    0.0000 </r>
       <r>   93.3382    0.0000 </r>
       <r>   94.6757    0.0000 </r>
       <r>   97.4570    0.0000 </r>
       <r>   98.2671    0.0000 </r>
       <r>   99.6460    0.0000 </r>
       <r>  101.7153    0.0000 </r>
      </set>
      <set comment="kpoint 20">
       <r>    1.7646    1.0000 </r>
       <r>    7.2259    0.8247 </r>
       <r>   14.2168    0.0000 </r>
       <r>   15.6929    0.0000 </r>
       <r>   17.4281    0.0000 </r>
       <r>   24.8541    0.0000 </r>
       <r>   25.1542    0.0000 </r>
       <r>   28.0074    0.0000 </r>
       <r>   29.1363    0.0000 </r>
       <r>   33.3392    0.0000 </r>
       <r>   39.6328    0.0000 </r>
       <r>   39.8727    0.0000 </r>
       <r>   41.4562    0.0000 </r>
       <r>   44.8131    0.0000 </r>
       <r>   46.4888    0.0000 </r>
       <r>   48.0615    0.0000 </r>
       <r>   51.2785    0.0000 </r>
       <r>   53.3120    0.0000 </r>
       <r>   54.3894    0.0000 </r>
       <r>   54.8244    0.0000 </r>
       <r>   56.3122    0.0000 </r>
       <r>   56.9769    0.0000 </r>
       <r>   57.8926    0.0000 </r>
       <r>   60.3658    0.0000 </r>
       <r>   61.2127    0.0000 </r>
       <r>   63.4951    0.0000 </r>
       <r>   63.9278    0.0000 </r>
       <r>   65.5657    0.0000 </r>
       <r>   67.0136    0.0000 </r>
       <r>   69.7342    0.0000 </r>
       <r>   72.5718    0.0000 </r>
       <r>   74.7869    0.0000 </r>
       <r>   76.5349    0.0000 </r>
       <r>   76.9417    0.0000 </r>
       <r>   80.3133    0.0000 </r>
       <r>   81.6075    0.0000 </r>
       <r>   84.9714    0.0000 </r>
       <r>   87.5882    0.0000 </r>
       <r>   87.8181    0.0000 </r>
       <r>   90.4736    0.0000 </r>
       <r>   93.0122    0.0000 </r>
       <r>   93.6108    0.0000 </r>
       <r>   96.4082    0.0000 </r>
       <r>   96.8920    0.0000 </r>
       <r>   98.8117    0.0000 </r>
       <r>  100.3826    0.0000 </r>
       <r>  100.6613    0.0000 </r>
       <r>  102.7120    0.0000 </r>
      </set>
      <set comment="kpoint 21">
       <r>    3.8258    1.0000 </r>
       <r>    4.6456    1.0000 </r>
       <r>   13.2091    0.0000 </r>
       <r>   16.1453    0.0000 </r>
       <r>   17.9543    0.0000 </r>
       <r>   23.9318    0.0000 </r>
       <r>   26.4083    0.0000 </r>
       <r>   28.7901    0.0000 </r>
       <r>   29.3992    0.0000 </r>
       <r>   31.8351    0.0000 </r>
       <r>   37.9403    0.0000 </r>
       <r>   40.7296    0.0000 </r>
       <r>   42.5924    0.0000 </r>
       <r>   47.2105    0.0000 </r>
       <r>   49.1882    0.0000 </r>
       <r>   49.7625    0.0000 </r>
       <r>   50.1301    0.0000 </r>
       <r>   54.2770    0.0000 </r>
       <r>   54.6335    0.0000 </r>
       <r>   54.9179    0.0000 </r>
       <r>   55.5367    0.0000 </r>
       <r>   56.4171    0.0000 </r>
       <r>   57.5826    0.0000 </r>
       <r>   59.2652    0.0000 </r>
       <r>   61.4513    0.0000 </r>
       <r>   61.6540    0.0000 </r>
       <r>   62.9179    0.0000 </r>
       <r>   63.5393    0.0000 </r>
       <r>   65.5002    0.0000 </r>
       <r>   67.1389    0.0000 </r>
       <r>   72.5687    0.0000 </r>
       <r>   75.1122    0.0000 </r>
       <r>   76.4533    0.0000 </r>
       <r>   76.5788    0.0000 </r>
       <r>   79.6401    0.0000 </r>
       <r>   80.7467    0.0000 </r>
       <r>   85.1663    0.0000 </r>
       <r>   87.6292    0.0000 </r>
       <r>   88.4021    0.0000 </r>
       <r>   89.3368    0.0000 </r>
       <r>   93.1151    0.0000 </r>
       <r>   94.8440    0.0000 </r>
       <r>   97.7908    0.0000 </r>
       <r>   98.7083    0.0000 </r>
       <r>   99.6372    0.0000 </r>
       <r>  100.0538    0.0000 </r>
       <r>  102.8903    0.0000 </r>
       <r>  106.2133    0.0000 </r>
      </set>
      <set comment="kpoint 22">
       <r>    2.4131    1.0000 </r>
       <r>    6.3068    1.0782 </r>
       <r>   12.6164    0.0000 </r>
       <r>   16.9803    0.0000 </r>
       <r>   18.8754    0.0000 </r>
       <r>   23.3615    0.0000 </r>
       <r>   25.9762    0.0000 </r>
       <r>   28.9258    0.0000 </r>
       <r>   29.8003    0.0000 </r>
       <r>   30.6542    0.0000 </r>
       <r>   36.4165    0.0000 </r>
       <r>   41.2843    0.0000 </r>
       <r>   43.8107    0.0000 </r>
       <r>   44.9467    0.0000 </r>
       <r>   48.3989    0.0000 </r>
       <r>   49.8879    0.0000 </r>
       <r>   51.5220    0.0000 </r>
       <r>   54.2336    0.0000 </r>
       <r>   54.9947    0.0000 </r>
       <r>   55.1004    0.0000 </r>
       <r>   55.9613    0.0000 </r>
       <r>   55.9986    0.0000 </r>
       <r>   58.6128    0.0000 </r>
       <r>   59.2822    0.0000 </r>
       <r>   60.4025    0.0000 </r>
       <r>   60.5245    0.0000 </r>
       <r>   63.9051    0.0000 </r>
       <r>   64.0759    0.0000 </r>
       <r>   65.7475    0.0000 </r>
       <r>   70.0405    0.0000 </r>
       <r>   73.4815    0.0000 </r>
       <r>   74.4204    0.0000 </r>
       <r>   76.6391    0.0000 </r>
       <r>   77.2724    0.0000 </r>
       <r>   79.1321    0.0000 </r>
       <r>   80.9231    0.0000 </r>
       <r>   84.6294    0.0000 </r>
       <r>   87.1514    0.0000 </r>
       <r>   87.9107    0.0000 </r>
       <r>   89.7310    0.0000 </r>
       <r>   90.2725    0.0000 </r>
       <r>   95.4053    0.0000 </r>
[...]
       <set comment="band 2">
        <r>  0.0791  0.0240  0.0004  0.1389  0.0000  0.0000  0.0000  0.0000  0.0000 </r>
       </set>
       <set comment="band 3">
        <r>  0.0575  0.0774  0.0035  0.0633  0.0000  0.0000  0.0000  0.0000  0.0000 </r>
       </set>
       <set comment="band 4">
        <r>  0.2139  0.0064  0.1193  0.0134  0.0000  0.0000  0.0000  0.0000  0.0000 </r>
       </set>
       <set comment="band 5">
        <r>  0.0127  0.1192  0.0101  0.0650  0.0000  0.0000  0.0000  0.0000  0.0000 </r>
       </set>
       <set comment="band 6">
        <r>  0.0341  0.0896  0.0329  0.0044  0.0000  0.0000  0.0000  0.0000  0.0000 </r>
       </set>
       <set comment="band 7">
        <r>  0.0401  0.1196  0.0002  0.0387  0.0000  0.0000  0.0000  0.0000  0.0000 </r>
       </set>
       <set comment="band 8">
        <r>  0.0195  0.0409  0.0775  0.0080  0.0000  0.0000  0.0000  0.0000  0.0000 </r>
       </set>
       <set comment="band 9">
        <r>  0.0099  0.0004  0.0107  0.0551  0.0000  0.0000  0.0000  0.0000  0.0000 </r>
       </set>
       <set comment="band 10">
        <r>  0.0004  0.0032  0.0105  0.0086  0.0000  0.0000  0.0000  0.0000  0.0000 </r>
       </set>
       <set comment="band 11">
        <r>  0.0705  0.0048  0.0472  0.0000  0.0000  0.0000  0.0000  0.0000  0.0000 </r>
       </set>
       <set comment="band 12">
        <r>  0.0459  0.0029  0.0013  0.0121  0.0000  0.0000  0.0000  0.0000  0.0000 </r>
       </set>
       <set comment="band 13">
        <r>  0.0002  0.0014  0.0455  0.1084  0.0000  0.0000  0.0000  0.0000  0.0000 </r>
       </set>
       <set comment="band 14">
        <r>  0.0101  0.0102  0.0148  0.0295  0.0000  0.0000  0.0000  0.0000  0.0000 </r>
       </set>
       <set comment="band 15">
        <r>  0.0988  0.0000  0.0981  0.0411  0.0000  0.0000  0.0000  0.0000  0.0000 </r>
       </set>
       <set comment="band 16">
        <r>  0.0331  0.0639  0.1336  0.0666  0.0000  0.0000  0.0000  0.0000  0.0000 </r>
       </set>
       <set comment="band 17">
        <r>  0.2848  0.0459  0.2673  0.0326  0.0000  0.0000  0.0000  0.0000  0.0000 </r>
       </set>
       <set comment="band 18">
        <r>  0.3808  0.0009  0.0715  0.0795  0.0000  0.0000  0.0000  0.0000  0.0000 </r>
       </set>
       <set comment="band 19">
        <r>  0.2095  0.5009  0.0029  0.8992  0.0000  0.0000  0.0000  0.0000  0.0000 </r>
       </set>
       <set comment="band 20">
        <r>  6.0625  0.2155  0.3309  0.0043  0.0000  0.0000  0.0000  0.0000  0.0000 </r>
       </set>
       <set comment="band 21">
        <r>  0.5552  2.1485  0.0956  0.5022  0.0000  0.0000  0.0000  0.0000  0.0000 </r>
       </set>
       <set comment="band 22">
        <r>  2.0191  0.0043  0.0171  0.1878  0.0000  0.0000  0.0000  0.0000  0.0000 </r>
       </set>
       <set comment="band 23">
        <r>  0.0003  0.2348  1.9620  0.1879  0.0000  0.0000  0.0000  0.0000  0.0000 </r>
       </set>
       <set comment="band 24">
        <r>  0.4124  0.0049  1.1654  2.0024  0.0000  0.0000  0.0000  0.0000  0.0000 </r>
       </set>
       <set comment="band 25">
        <r>  0.0230  0.0948  0.5580  0.4685  0.0000  0.0000  0.0000  0.0000  0.0000 </r>
       </set>
       <set comment="band 26">
        <r>  0.0616  0.2754  0.1578  0.4382  0.0000  0.0000  0.0000  0.0000  0.0000 </r>
       </set>
       <set comment="band 27">
        <r>  0.0050  0.3471  0.0013  0.0522  0.0000  0.0000  0.0000  0.0000  0.0000 </r>
       </set>
       <set comment="band 28">
        <r>  0.0195  0.5095  0.0047  0.0080  0.0000  0.0000  0.0000  0.0000  0.0000 </r>
       </set>
       <set comment="band 29">
        <r>  0.2130  0.7900  0.0170  0.0501  0.0000  0.0000  0.0000  0.0000  0.0000 </r>
       </set>
       <set comment="band 30">
        <r>  0.0230  0.0029  0.0124  0.0708  0.0000  0.0000  0.0000  0.0000  0.0000 </r>
       </set>
       <set comment="band 31">
        <r>  0.0823  0.0732  0.0564  0.0786  0.0000  0.0000  0.0000  0.0000  0.0000 </r>
       </set>
       <set comment="band 32">
        <r>  0.0462  0.0090  0.4417  0.0067  0.0000  0.0000  0.0000  0.0000  0.0000 </r>
       </set>
       <set comment="band 33">
        <r>  0.0878  0.0150  0.0300  0.1513  0.0000  0.0000  0.0000  0.0000  0.0000 </r>
       </set>
       <set comment="band 34">
        <r>  0.6312  0.0075  0.1124  0.0048  0.0000  0.0000  0.0000  0.0000  0.0000 </r>
       </set>
       <set comment="band 35">
        <r>  0.0155  0.0709  0.0120  0.0043  0.0000  0.0000  0.0000  0.0000  0.0000 </r>
       </set>
       <set comment="band 36">
        <r>  0.0164  0.0286  0.0155  0.1039  0.0000  0.0000  0.0000  0.0000  0.0000 </r>
       </set>
       <set comment="band 37">
        <r>  0.0695  0.0282  0.0052  0.0405  0.0000  0.0000  0.0000  0.0000  0.0000 </r>
       </set>
       <set comment="band 38">
        <r>  0.0400  0.0679  0.0666  0.0448  0.0000  0.0000  0.0000  0.0000  0.0000 </r>
       </set>
       <set comment="band 39">
        <r>  0.0291  0.0154  0.0141  0.0000  0.0000  0.0000  0.0000  0.0000  0.0000 </r>
       </set>
       <set comment="band 40">
        <r>  0.0013  0.0042  0.0275  0.0096  0.0000  0.0000  0.0000  0.0000  0.0000 </r>
       </set>
       <set comment="band 41">
        <r>  0.0380  0.0029  0.0046  0.0292  0.0000  0.0000  0.0000  0.0000  0.0000 </r>
       </set>
       <set comment="band 42">
        <r>  0.0070  0.0022  0.0313  0.0254  0.0000  0.0000  0.0000  0.0000  0.0000 </r>
       </set>
       <set comment="band 43">
        <r>  0.0182  0.0015  0.0048  0.0919  0.0000  0.0000  0.0000  0.0000  0.0000 </r>
       </set>
       <set comment="band 44">
        <r>  0.0165  0.1512  0.0001  0.0022  0.0000  0.0000  0.0000  0.0000  0.0000 </r>
       </set>
       <set comment="band 45">
        <r>  0.0313  0.0076  0.0009  0.0701  0.0000  0.0000  0.0000  0.0000  0.0000 </r>
       </set>
       <set comment="band 46">
        <r>  0.0001  0.0477  0.0459  0.0025  0.0000  0.0000  0.0000  0.0000  0.0000 </r>
       </set>
       <set comment="band 47">
        <r>  0.0179  0.0002  0.0709  0.0071  0.0000  0.0000  0.0000  0.0000  0.0000 </r>
       </set>
       <set comment="band 48">
        <r>  0.0000  0.0288  0.0120  0.0001  0.0000  0.0000  0.0000  0.0000  0.0000 </r>
       </set>
      </set>
      <set comment="kpoint 55">
       <set comment="band 1">
        <r>  0.0824  0.0144  0.1490  0.0000  0.0000  0.0000  0.0000  0.0000  0.0000 </r>
       </set>
       <set comment="band 2">
        <r>  0.0000  0.0000  0.0000  0.2075  0.0000  0.0000  0.0000  0.0000  0.0000 </r>
       </set>
       <set comment="band 3">
        <r>  0.0780  0.0530  0.0743  0.0000  0.0000  0.0000  0.0000  0.0000  0.0000 </r>
       </set>
       <set comment="band 4">
        <r>  0.2987  0.0807  0.0097  0.0000  0.0000  0.0000  0.0000  0.0000  0.0000 </r>
       </set>
       <set comment="band 5">
        <r>  0.0000  0.0000  0.0000  0.1257  0.0000  0.0000  0.0000  0.0000  0.0000 </r>
       </set>
       <set comment="band 6">
        <r>  0.0841  0.2422  0.0040  0.0000  0.0000  0.0000  0.0000  0.0000  0.0000 </r>
       </set>
       <set comment="band 7">
        <r>  0.0246  0.0391  0.0460  0.0000  0.0000  0.0000  0.0000  0.0000  0.0000 </r>
       </set>
       <set comment="band 8">
        <r>  0.0222  0.0709  0.0380  0.0000  0.0000  0.0000  0.0000  0.0000  0.0000 </r>
       </set>
       <set comment="band 9">
        <r>  0.0000  0.0000  0.0000  0.0230  0.0000  0.0000  0.0000  0.0000  0.0000 </r>
       </set>
       <set comment="band 10">
        <r>  0.0033  0.0000  0.0029  0.0000  0.0000  0.0000  0.0000  0.0000  0.0000 </r>
       </set>
       <set comment="band 11">
        <r>  0.0642  0.0197  0.0934  0.0000  0.0000  0.0000  0.0000  0.0000  0.0000 </r>
       </set>
       <set comment="band 12">
        <r>  0.0000  0.0000  0.0000  0.0735  0.0000  0.0000  0.0000  0.0000  0.0000 </r>
       </set>
       <set comment="band 13">
        <r>  0.0000  0.0000  0.0000  0.1779  0.0000  0.0000  0.0000  0.0000  0.0000 </r>
       </set>
       <set comment="band 14">
        <r>  0.0185  0.0101  0.0499  0.0000  0.0000  0.0000  0.0000  0.0000  0.0000 </r>
       </set>
       <set comment="band 15">
        <r>  0.1197  0.0120  0.0221  0.0000  0.0000  0.0000  0.0000  0.0000  0.0000 </r>
       </set>
       <set comment="band 16">
        <r>  0.0000  0.0000  0.0000  0.0212  0.0000  0.0000  0.0000  0.0000  0.0000 </r>
       </set>
       <set comment="band 17">
        <r>  0.1210  0.0291  0.5876  0.0000  0.0000  0.0000  0.0000  0.0000  0.0000 </r>
       </set>
       <set comment="band 18">
        <r>  0.0000  0.0000  0.0000  0.0310  0.0000  0.0000  0.0000  0.0000  0.0000 </r>
       </set>
       <set comment="band 19">
        <r>  2.4843  0.1496  0.1286  0.0000  0.0000  0.0000  0.0000  0.0000  0.0000 </r>
       </set>
       <set comment="band 20">
        <r>  1.3045  1.3774  0.0197  0.0000  0.0000  0.0000  0.0000  0.0000  0.0000 </r>
       </set>
       <set comment="band 21">
        <r>  0.0000  0.0000  0.0000  2.4134  0.0000  0.0000  0.0000  0.0000  0.0000 </r>
       </set>
       <set comment="band 22">
        <r>  5.5974  1.3702  0.0224  0.0000  0.0000  0.0000  0.0000  0.0000  0.0000 </r>
       </set>
       <set comment="band 23">
        <r>  0.0012  0.0764  3.1445  0.0000  0.0000  0.0000  0.0000  0.0000  0.0000 </r>
       </set>
       <set comment="band 24">
        <r>  0.0000  0.0000  0.0000  1.4088  0.0000  0.0000  0.0000  0.0000  0.0000 </r>
       </set>
       <set comment="band 25">
        <r>  0.1771  0.0583  0.8178  0.0000  0.0000  0.0000  0.0000  0.0000  0.0000 </r>
       </set>
       <set comment="band 26">
        <r>  0.3352  1.4550  0.1495  0.0000  0.0000  0.0000  0.0000  0.0000  0.0000 </r>
       </set>
       <set comment="band 27">
        <r>  0.0000  0.0000  0.0000  1.0660  0.0000  0.0000  0.0000  0.0000  0.0000 </r>
       </set>
       <set comment="band 28">
        <r>  0.0000  0.0000  0.0000  0.1688  0.0000  0.0000  0.0000  0.0000  0.0000 </r>
       </set>
       <set comment="band 29">
        <r>  0.3244  0.3109  0.2517  0.0000  0.0000  0.0000  0.0000  0.0000  0.0000 </r>
       </set>
       <set comment="band 30">
        <r>  0.0008  0.3656  0.0500  0.0000  0.0000  0.0000  0.0000  0.0000  0.0000 </r>
       </set>
       <set comment="band 31">
        <r>  0.0000  0.0000  0.0000  0.0437  0.0000  0.0000  0.0000  0.0000  0.0000 </r>
       </set>
       <set comment="band 32">
        <r>  0.1609  0.0010  0.3356  0.0000  0.0000  0.0000  0.0000  0.0000  0.0000 </r>
       </set>
       <set comment="band 33">
        <r>  0.3873  0.1483  0.0000  0.0000  0.0000  0.0000  0.0000  0.0000  0.0000 </r>
       </set>
       <set comment="band 34">
        <r>  0.0000  0.0000  0.0000  0.0028  0.0000  0.0000  0.0000  0.0000  0.0000 </r>
       </set>
       <set comment="band 35">
        <r>  0.2584  0.0101  0.0297  0.0000  0.0000  0.0000  0.0000  0.0000  0.0000 </r>
       </set>
       <set comment="band 36">
        <r>  0.0959  0.1085  0.1024  0.0000  0.0000  0.0000  0.0000  0.0000  0.0000 </r>
       </set>
       <set comment="band 37">
        <r>  0.0000  0.0000  0.0000  0.4447  0.0000  0.0000  0.0000  0.0000  0.0000 </r>
       </set>
       <set comment="band 38">
        <r>  0.0009  0.0390  0.0149  0.0000  0.0000  0.0000  0.0000  0.0000  0.0000 </r>
       </set>
       <set comment="band 39">
        <r>  0.0000  0.0000  0.0000  0.0078  0.0000  0.0000  0.0000  0.0000  0.0000 </r>
       </set>
       <set comment="band 40">
        <r>  0.0020  0.0192  0.0112  0.0000  0.0000  0.0000  0.0000  0.0000  0.0000 </r>
       </set>
       <set comment="band 41">
        <r>  0.0000  0.0000  0.0000  0.0203  0.0000  0.0000  0.0000  0.0000  0.0000 </r>
       </set>
       <set comment="band 42">
        <r>  0.1135  0.0071  0.0668  0.0000  0.0000  0.0000  0.0000  0.0000  0.0000 </r>
       </set>
       <set comment="band 43">
        <r>  0.0102  0.1090  0.0454  0.0000  0.0000  0.0000  0.0000  0.0000  0.0000 </r>
       </set>
       <set comment="band 44">
        <r>  0.0477  0.0521  0.0006  0.0000  0.0000  0.0000  0.0000  0.0000  0.0000 </r>
       </set>
       <set comment="band 45">
        <r>  0.0000  0.0000  0.0000  0.0707  0.0000  0.0000  0.0000  0.0000  0.0000 </r>
       </set>
       <set comment="band 46">
        <r>  0.0000  0.0000  0.0000  0.0068  0.0000  0.0000  0.0000  0.0000  0.0000 </r>
       </set>
       <set comment="band 47">
        <r>  0.0777  0.0130  0.0541  0.0000  0.0000  0.0000  0.0000  0.0000  0.0000 </r>
       </set>
       <set comment="band 48">
        <r>  0.0408  0.0467  0.0173  0.0000  0.0000  0.0000  0.0000  0.0000  0.0000 </r>
       </set>
      </set>
      <set comment="kpoint 56">
       <set comment="band 1">
        <r>  0.0481  0.0362  0.0000  0.1403  0.0000  0.0000  0.0000  0.0000  0.0000 </r>
       </set>
       <set comment="band 2">
        <r>  0.0000  0.0000  0.2244  0.0000  0.0000  0.0000  0.0000  0.0000  0.0000 </r>
       </set>
       <set comment="band 3">
        <r>  0.1924  0.0653  0.0000  0.0036  0.0000  0.0000  0.0000  0.0000  0.0000 </r>
       </set>
       <set comment="band 4">
        <r>  0.2292  0.0358  0.0000  0.0758  0.0000  0.0000  0.0000  0.0000  0.0000 </r>
       </set>
       <set comment="band 5">
        <r>  0.0233  0.0848  0.0000  0.0715  0.0000  0.0000  0.0000  0.0000  0.0000 </r>
       </set>
       <set comment="band 6">
        <r>  0.0056  0.2584  0.0000  0.0286  0.0000  0.0000  0.0000  0.0000  0.0000 </r>
       </set>
       <set comment="band 7">
        <r>  0.0000  0.0000  0.0970  0.0000  0.0000  0.0000  0.0000  0.0000  0.0000 </r>
       </set>
       <set comment="band 8">
        <r>  0.0903  0.0357  0.0000  0.0175  0.0000  0.0000  0.0000  0.0000  0.0000 </r>
       </set>
       <set comment="band 9">
        <r>  0.0000  0.0000  0.0235  0.0000  0.0000  0.0000  0.0000  0.0000  0.0000 </r>
       </set>
       <set comment="band 10">
        <r>  0.0091  0.0004  0.0000  0.0312  0.0000  0.0000  0.0000  0.0000  0.0000 </r>
       </set>
       <set comment="band 11">
        <r>  0.0000  0.0000  0.0006  0.0000  0.0000  0.0000  0.0000  0.0000  0.0000 </r>
       </set>
       <set comment="band 12">
        <r>  0.0743  0.0003  0.0000  0.1170  0.0000  0.0000  0.0000  0.0000  0.0000 </r>
       </set>
       <set comment="band 13">
        <r>  0.0000  0.0000  0.1881  0.0000  0.0000  0.0000  0.0000  0.0000  0.0000 </r>
       </set>
       <set comment="band 14">
        <r>  0.0010  0.0009  0.0000  0.0061  0.0000  0.0000  0.0000  0.0000  0.0000 </r>
       </set>
       <set comment="band 15">
        <r>  0.1410  0.0052  0.0000  0.1053  0.0000  0.0000  0.0000  0.0000  0.0000 </r>
       </set>
       <set comment="band 16">
        <r>  0.0000  0.0000  0.0141  0.0000  0.0000  0.0000  0.0000  0.0000  0.0000 </r>
       </set>
       <set comment="band 17">
        <r>  0.0000  0.0000  0.7283  0.0000  0.0000  0.0000  0.0000  0.0000  0.0000 </r>
       </set>
       <set comment="band 18">
        <r>  0.0905  0.3241  0.0000  0.6012  0.0000  0.0000  0.0000  0.0000  0.0000 </r>
       </set>
       <set comment="band 19">
        <r>  3.6707  1.5200  0.0000  0.0962  0.0000  0.0000  0.0000  0.0000  0.0000 </r>
       </set>
       <set comment="band 20">
        <r>  5.6871  0.9260  0.0000  0.2903  0.0000  0.0000  0.0000  0.0000  0.0000 </r>
       </set>
       <set comment="band 21">
        <r>  0.1928  0.2091  0.0000  1.6298  0.0000  0.0000  0.0000  0.0000  0.0000 </r>
       </set>
       <set comment="band 22">
        <r>  0.0000  0.0000  2.3255  0.0000  0.0000  0.0000  0.0000  0.0000  0.0000 </r>
       </set>
       <set comment="band 23">
        <r>  0.0426  0.1065  0.0000  1.1785  0.0000  0.0000  0.0000  0.0000  0.0000 </r>
       </set>
       <set comment="band 24">
        <r>  0.0000  0.0000  0.0853  0.0000  0.0000  0.0000  0.0000  0.0000  0.0000 </r>
       </set>
       <set comment="band 25">
        <r>  0.2047  0.2946  0.0000  0.0459  0.0000  0.0000  0.0000  0.0000  0.0000 </r>
       </set>
       <set comment="band 26">
        <r>  0.0000  0.0000  1.2805  0.0000  0.0000  0.0000  0.0000  0.0000  0.0000 </r>
       </set>
       <set comment="band 27">
        <r>  0.0000  0.0000  0.4323  0.0000  0.0000  0.0000  0.0000  0.0000  0.0000 </r>
       </set>
       <set comment="band 28">
        <r>  0.1323  0.0212  0.0000  1.1574  0.0000  0.0000  0.0000  0.0000  0.0000 </r>
       </set>
       <set comment="band 29">
        <r>  0.0868  1.6662  0.0000  0.0021  0.0000  0.0000  0.0000  0.0000  0.0000 </r>
       </set>
       <set comment="band 30">
        <r>  0.0000  0.0000  0.4533  0.0000  0.0000  0.0000  0.0000  0.0000  0.0000 </r>
       </set>
       <set comment="band 31">
        <r>  0.0277  0.2837  0.0000  0.1045  0.0000  0.0000  0.0000  0.0000  0.0000 </r>
       </set>
       <set comment="band 32">
        <r>  0.3805  0.0093  0.0000  0.1755  0.0000  0.0000  0.0000  0.0000  0.0000 </r>
       </set>
       <set comment="band 33">
        <r>  0.2547  0.0206  0.0000  0.0106  0.0000  0.0000  0.0000  0.0000  0.0000 </r>
       </set>
       <set comment="band 34">
        <r>  0.3776  0.0727  0.0000  0.0012  0.0000  0.0000  0.0000  0.0000  0.0000 </r>
       </set>
       <set comment="band 35">
        <r>  0.0000  0.0000  0.1640  0.0000  0.0000  0.0000  0.0000  0.0000  0.0000 </r>
       </set>
       <set comment="band 36">
        <r>  0.1188  0.0020  0.0000  0.0204  0.0000  0.0000  0.0000  0.0000  0.0000 </r>
       </set>
       <set comment="band 37">
        <r>  0.0000  0.0000  0.0885  0.0000  0.0000  0.0000  0.0000  0.0000  0.0000 </r>
       </set>
       <set comment="band 38">
        <r>  0.0408  0.0182  0.0000  0.3156  0.0000  0.0000  0.0000  0.0000  0.0000 </r>
       </set>
       <set comment="band 39">
        <r>  0.0017  0.0223  0.0000  0.0087  0.0000  0.0000  0.0000  0.0000  0.0000 </r>
       </set>
       <set comment="band 40">
        <r>  0.0000  0.0000  0.1403  0.0000  0.0000  0.0000  0.0000  0.0000  0.0000 </r>
       </set>
       <set comment="band 41">
        <r>  0.0094  0.1117  0.0000  0.0009  0.0000  0.0000  0.0000  0.0000  0.0000 </r>
       </set>
       <set comment="band 42">
        <r>  0.0000  0.0000  0.0052  0.0000  0.0000  0.0000  0.0000  0.0000  0.0000 </r>
       </set>
       <set comment="band 43">
        <r>  0.0000  0.0000  0.0077  0.0000  0.0000  0.0000  0.0000  0.0000  0.0000 </r>
       </set>
       <set comment="band 44">
        <r>  0.0292  0.0639  0.0000  0.0026  0.0000  0.0000  0.0000  0.0000  0.0000 </r>
       </set>
       <set comment="band 45">
        <r>  0.0063  0.0005  0.0000  0.0166  0.0000  0.0000  0.0000  0.0000  0.0000 </r>
       </set>
       <set comment="band 46">
        <r>  0.0000  0.0000  0.0138  0.0000  0.0000  0.0000  0.0000  0.0000  0.0000 </r>
       </set>
       <set comment="band 47">
        <r>  0.0760  0.1190  0.0000  0.0108  0.0000  0.0000  0.0000  0.0000  0.0000 </r>
       </set>
       <set comment="band 48">
        <r>  0.0000  0.0000  0.0646  0.0000  0.0000  0.0000  0.0000  0.0000  0.0000 </r>
       </set>
      </set>
     </set>
    </set>
   </array>
  </projected>
 </calculation>
 <structure name="finalpos" >
  <crystal>
   <varray name="basis" >
    <v>       0.00000000       2.02400000       2.02400000 </v>
    <v>       2.02400000       0.00000000       2.02400000 </v>
    <v>       2.02400000       2.02400000       0.00000000 </v>
   </varray>
   <i name="volume">     16.58293965 </i>
   <varray name="rec_basis" >
    <v>      -0.24703557       0.24703557       0.24703557 </v>
    <v>       0.24703557      -0.24703557       0.24703557 </v>
    <v>       0.24703557       0.24703557      -0.24703557 </v>
   </varray>
  </crystal>
  <varray name="positions" >
   <v>       0.00000000       0.00000000       0.00000000 </v>
  </varray>
 </structure>
</modeling>
