   1   1   1   0
  0.1658294E+02  0.2862368E-09  0.2862368E-09  0.2862368E-09  0.5000000E-15
   1.0000000000000000E-004
  CAR 
 unknown system                          
     99.42723324     -8.03640586  301      8.00668688      1.00000000
     -8.036  0.0000E+00  0.0000E+00  0.0000E+00  0.0000E+00
     -7.678  0.0000E+00  0.0000E+00  0.0000E+00  0.0000E+00
     -7.320  0.0000E+00  0.0000E+00  0.0000E+00  0.0000E+00
     -6.962  0.0000E+00  0.0000E+00  0.0000E+00  0.0000E+00
     -6.604  0.0000E+00  0.0000E+00  0.0000E+00  0.0000E+00
     -6.245  0.0000E+00  0.0000E+00  0.0000E+00  0.0000E+00
     -5.887  0.0000E+00  0.0000E+00  0.0000E+00  0.0000E+00
     -5.529  0.0000E+00  0.0000E+00  0.0000E+00  0.0000E+00
     -5.171  0.0000E+00  0.0000E+00  0.0000E+00  0.0000E+00
     -4.812  0.0000E+00  0.0000E+00  0.0000E+00  0.0000E+00
     -4.454  0.0000E+00  0.0000E+00  0.0000E+00  0.0000E+00
     -4.096  0.0000E+00  0.0000E+00  0.0000E+00  0.0000E+00
     -3.738  0.0000E+00  0.0000E+00  0.0000E+00  0.0000E+00
     -3.380  0.0000E+00  0.0000E+00  0.0000E+00  0.0000E+00
     -3.021  0.1023E-01  0.9912E-02  0.4441E-03  0.4237E-03
     -2.663  0.3649E-01  0.3637E-01  0.1018E-01  0.1011E-01
     -2.305  0.5030E-01  0.5026E-01  0.2646E-01  0.2636E-01
     -1.947  0.6213E-01  0.6206E-01  0.4652E-01  0.4639E-01
     -1.589  0.7182E-01  0.7178E-01  0.7079E-01  0.7064E-01
     -1.230  0.7912E-01  0.7908E-01  0.9782E-01  0.9766E-01
     -0.872  0.8814E-01  0.8809E-01  0.1277E+00  0.1276E+00
     -0.514  0.9481E-01  0.9479E-01  0.1607E+00  0.1605E+00
     -0.156  0.1011E+00  0.1010E+00  0.1958E+00  0.1956E+00
      0.202  0.1077E+00  0.1077E+00  0.2332E+00  0.2329E+00
      0.561  0.1150E+00  0.1150E+00  0.2730E+00  0.2728E+00
      0.919  0.1201E+00  0.1200E+00  0.3152E+00  0.3149E+00
      1.277  0.1253E+00  0.1253E+00  0.3591E+00  0.3588E+00
      1.635  0.1311E+00  0.1310E+00  0.4050E+00  0.4047E+00
      1.994  0.1374E+00  0.1373E+00  0.4530E+00  0.4527E+00
      2.352  0.1458E+00  0.1457E+00  0.5037E+00  0.5034E+00
      2.710  0.1590E+00  0.1590E+00  0.5584E+00  0.5581E+00
      3.068  0.1928E+00  0.1927E+00  0.6195E+00  0.6192E+00
      3.426  0.1570E+00  0.1571E+00  0.6819E+00  0.6816E+00
      3.785  0.1456E+00  0.1457E+00  0.7358E+00  0.7356E+00
      4.143  0.1570E+00  0.1570E+00  0.7905E+00  0.7902E+00
      4.501  0.1903E+00  0.1902E+00  0.8499E+00  0.8495E+00
      4.859  0.1855E+00  0.1854E+00  0.9157E+00  0.9153E+00
      5.217  0.2477E+00  0.2444E+00  0.9840E+00  0.9835E+00
      5.576  0.1785E+00  0.1785E+00  0.1050E+01  0.1050E+01
      5.934  0.1411E+00  0.1411E+00  0.1107E+01  0.1107E+01
      6.292  0.2042E+00  0.1958E+00  0.1158E+01  0.1158E+01
      6.650  0.1988E+00  0.1986E+00  0.1232E+01  0.1232E+01
      7.009  0.2154E+00  0.2155E+00  0.1312E+01  0.1312E+01
      7.367  0.1941E+00  0.1941E+00  0.1383E+01  0.1382E+01
      7.725  0.1847E+00  0.1850E+00  0.1451E+01  0.1451E+01
      8.083  0.1640E+00  0.1640E+00  0.1513E+01  0.1512E+01
      8.441  0.2229E+00  0.2223E+00  0.1580E+01  0.1580E+01
      8.800  0.2512E+00  0.2514E+00  0.1668E+01  0.1667E+01
      9.158  0.2049E+00  0.2049E+00  0.1745E+01  0.1745E+01
      9.516  0.2095E+00  0.2095E+00  0.1819E+01  0.1818E+01
      9.874  0.2035E+00  0.2036E+00  0.1894E+01  0.1894E+01
     10.232  0.2381E+00  0.2381E+00  0.1975E+01  0.1974E+01
     10.591  0.2260E+00  0.2259E+00  0.2054E+01  0.2054E+01
     10.949  0.2445E+00  0.2444E+00  0.2139E+01  0.2139E+01
     11.307  0.2380E+00  0.2381E+00  0.2228E+01  0.2228E+01
     11.665  0.2336E+00  0.2336E+00  0.2312E+01  0.2312E+01
     12.023  0.2505E+00  0.2506E+00  0.2397E+01  0.2397E+01
     12.382  0.2627E+00  0.2627E+00  0.2488E+01  0.2487E+01
     12.740  0.2702E+00  0.2701E+00  0.2583E+01  0.2582E+01
     13.098  0.2831E+00  0.2831E+00  0.2682E+01  0.2682E+01
     13.456  0.2962E+00  0.2961E+00  0.2786E+01  0.2785E+01
     13.815  0.3058E+00  0.3057E+00  0.2894E+01  0.2894E+01
     14.173  0.2817E+00  0.2817E+00  0.2999E+01  0.2998E+01
     14.531  0.2751E+00  0.2752E+00  0.3099E+01  0.3098E+01
     14.889  0.2692E+00  0.2693E+00  0.3197E+01  0.3196E+01
     15.247  0.2626E+00  0.2626E+00  0.3292E+01  0.3291E+01
     15.606  0.2601E+00  0.2601E+00  0.3385E+01  0.3385E+01
     15.964  0.2681E+00  0.2681E+00  0.3480E+01  0.3479E+01
     16.322  0.2623E+00  0.2624E+00  0.3575E+01  0.3574E+01
     16.680  0.2575E+00  0.2575E+00  0.3668E+01  0.3667E+01
     17.038  0.2556E+00  0.2556E+00  0.3760E+01  0.3759E+01
     17.397  0.2606E+00  0.2605E+00  0.3852E+01  0.3851E+01
     17.755  0.2742E+00  0.2740E+00  0.3948E+01  0.3947E+01
     18.113  0.2805E+00  0.2804E+00  0.4047E+01  0.4046E+01
     18.471  0.2943E+00  0.2941E+00  0.4150E+01  0.4149E+01
     18.830  0.3099E+00  0.3099E+00  0.4259E+01  0.4258E+01
     19.188  0.3269E+00  0.3265E+00  0.4371E+01  0.4370E+01
     19.546  0.3836E+00  0.3833E+00  0.4498E+01  0.4497E+01
     19.904  0.3928E+00  0.3925E+00  0.4636E+01  0.4635E+01
     20.262  0.4189E+00  0.4193E+00  0.4779E+01  0.4778E+01
     20.621  0.2981E+00  0.2988E+00  0.4909E+01  0.4908E+01
     20.979  0.2616E+00  0.2617E+00  0.5007E+01  0.5006E+01
     21.337  0.2989E+00  0.2934E+00  0.5099E+01  0.5098E+01
     21.695  0.2704E+00  0.2704E+00  0.5201E+01  0.5200E+01
     22.053  0.2408E+00  0.2422E+00  0.5296E+01  0.5295E+01
     22.412  0.3381E+00  0.3374E+00  0.5393E+01  0.5392E+01
     22.770  0.4013E+00  0.4010E+00  0.5527E+01  0.5526E+01
     23.128  0.4148E+00  0.4158E+00  0.5678E+01  0.5677E+01
     23.486  0.3065E+00  0.3076E+00  0.5808E+01  0.5807E+01
     23.844  0.2844E+00  0.2835E+00  0.5909E+01  0.5908E+01
     24.203  0.3087E+00  0.3089E+00  0.6020E+01  0.6019E+01
     24.561  0.2954E+00  0.2950E+00  0.6127E+01  0.6126E+01
     24.919  0.3135E+00  0.3131E+00  0.6235E+01  0.6234E+01
     25.277  0.4082E+00  0.4061E+00  0.6364E+01  0.6362E+01
     25.636  0.4533E+00  0.4534E+00  0.6523E+01  0.6521E+01
     25.994  0.4167E+00  0.4173E+00  0.6679E+01  0.6678E+01
     26.352  0.3952E+00  0.3950E+00  0.6822E+01  0.6821E+01
     26.710  0.3511E+00  0.3519E+00  0.6962E+01  0.6961E+01
     27.068  0.3287E+00  0.3288E+00  0.7082E+01  0.7081E+01
     27.427  0.3237E+00  0.3244E+00  0.7197E+01  0.7196E+01
     27.785  0.2823E+00  0.2825E+00  0.7304E+01  0.7303E+01
     28.143  0.3122E+00  0.3113E+00  0.7407E+01  0.7406E+01
     28.501  0.4371E+00  0.4327E+00  0.7536E+01  0.7534E+01
     28.859  0.4652E+00  0.4696E+00  0.7712E+01  0.7710E+01
     29.218  0.4758E+00  0.4719E+00  0.7858E+01  0.7856E+01
     29.576  0.4333E+00  0.4335E+00  0.8028E+01  0.8026E+01
     29.934  0.4190E+00  0.4191E+00  0.8180E+01  0.8178E+01
     30.292  0.3875E+00  0.3882E+00  0.8326E+01  0.8324E+01
     30.651  0.3454E+00  0.3457E+00  0.8456E+01  0.8455E+01
     31.009  0.3493E+00  0.3489E+00  0.8579E+01  0.8577E+01
     31.367  0.3901E+00  0.3894E+00  0.8710E+01  0.8709E+01
     31.725  0.3960E+00  0.3957E+00  0.8852E+01  0.8850E+01
     32.083  0.5973E+00  0.5980E+00  0.9027E+01  0.9024E+01
     32.442  0.4378E+00  0.4391E+00  0.9208E+01  0.9207E+01
     32.800  0.3974E+00  0.3967E+00  0.9356E+01  0.9354E+01
     33.158  0.3502E+00  0.3511E+00  0.9495E+01  0.9493E+01
     33.516  0.3137E+00  0.3144E+00  0.9613E+01  0.9612E+01
     33.874  0.2625E+00  0.2630E+00  0.9715E+01  0.9714E+01
     34.233  0.2710E+00  0.2697E+00  0.9807E+01  0.9806E+01
     34.591  0.2323E+00  0.2389E+00  0.9910E+01  0.9909E+01
     34.949  0.1708E+00  0.1706E+00  0.9972E+01  0.9972E+01
     35.307  0.1675E+00  0.1675E+00  0.1003E+02  0.1003E+02
     35.665  0.1735E+00  0.1734E+00  0.1010E+02  0.1009E+02
     36.024  0.1918E+00  0.1916E+00  0.1016E+02  0.1016E+02
     36.382  0.2206E+00  0.2200E+00  0.1023E+02  0.1023E+02
     36.740  0.2412E+00  0.2411E+00  0.1032E+02  0.1032E+02
     37.098  0.2558E+00  0.2557E+00  0.1041E+02  0.1041E+02
     37.457  0.2709E+00  0.2708E+00  0.1050E+02  0.1050E+02
     37.815  0.2937E+00  0.2936E+00  0.1060E+02  0.1060E+02
     38.173  0.4077E+00  0.4075E+00  0.1074E+02  0.1074E+02
     38.531  0.3604E+00  0.3599E+00  0.1087E+02  0.1086E+02
     38.889  0.3363E+00  0.3369E+00  0.1100E+02  0.1100E+02
     39.248  0.3191E+00  0.3185E+00  0.1111E+02  0.1111E+02
     39.606  0.4414E+00  0.4405E+00  0.1124E+02  0.1124E+02
     39.964  0.5297E+00  0.5312E+00  0.1143E+02  0.1143E+02
     40.322  0.4594E+00  0.4596E+00  0.1161E+02  0.1161E+02
     40.680  0.4260E+00  0.4260E+00  0.1176E+02  0.1176E+02
     41.039  0.4430E+00  0.4428E+00  0.1191E+02  0.1191E+02
     41.397  0.5144E+00  0.5124E+00  0.1209E+02  0.1209E+02
     41.755  0.5258E+00  0.5285E+00  0.1230E+02  0.1230E+02
     42.113  0.5194E+00  0.5188E+00  0.1247E+02  0.1247E+02
     42.472  0.4368E+00  0.4381E+00  0.1265E+02  0.1265E+02
     42.830  0.5431E+00  0.5405E+00  0.1280E+02  0.1280E+02
     43.188  0.4311E+00  0.4320E+00  0.1299E+02  0.1299E+02
     43.546  0.3989E+00  0.3989E+00  0.1313E+02  0.1313E+02
     43.904  0.4919E+00  0.4915E+00  0.1330E+02  0.1330E+02
     44.263  0.4647E+00  0.4651E+00  0.1347E+02  0.1347E+02
     44.621  0.4130E+00  0.4133E+00  0.1363E+02  0.1363E+02
     44.979  0.3741E+00  0.3744E+00  0.1377E+02  0.1377E+02
     45.337  0.3863E+00  0.3856E+00  0.1390E+02  0.1390E+02
     45.695  0.4879E+00  0.4874E+00  0.1406E+02  0.1406E+02
     46.054  0.5626E+00  0.5626E+00  0.1425E+02  0.1425E+02
     46.412  0.5395E+00  0.5399E+00  0.1445E+02  0.1445E+02
     46.770  0.5263E+00  0.5275E+00  0.1464E+02  0.1464E+02
     47.128  0.4180E+00  0.4186E+00  0.1480E+02  0.1480E+02
     47.486  0.4180E+00  0.4169E+00  0.1495E+02  0.1495E+02
     47.845  0.4515E+00  0.4516E+00  0.1511E+02  0.1511E+02
     48.203  0.4367E+00  0.4365E+00  0.1527E+02  0.1527E+02
     48.561  0.4688E+00  0.4678E+00  0.1543E+02  0.1543E+02
     48.919  0.5528E+00  0.5534E+00  0.1562E+02  0.1561E+02
     49.278  0.3913E+00  0.3915E+00  0.1578E+02  0.1578E+02
     49.636  0.3834E+00  0.3820E+00  0.1591E+02  0.1591E+02
     49.994  0.4898E+00  0.4881E+00  0.1607E+02  0.1607E+02
     50.352  0.3458E+00  0.3457E+00  0.1623E+02  0.1623E+02
     50.710  0.3343E+00  0.3337E+00  0.1634E+02  0.1634E+02
     51.069  0.3911E+00  0.3901E+00  0.1647E+02  0.1647E+02
     51.427  0.5309E+00  0.5302E+00  0.1663E+02  0.1663E+02
     51.785  0.5964E+00  0.5829E+00  0.1682E+02  0.1682E+02
     52.143  0.4608E+00  0.4621E+00  0.1702E+02  0.1702E+02
     52.501  0.3643E+00  0.3635E+00  0.1715E+02  0.1715E+02
     52.860  0.4135E+00  0.4136E+00  0.1729E+02  0.1729E+02
     53.218  0.4160E+00  0.4156E+00  0.1744E+02  0.1743E+02
     53.576  0.5194E+00  0.5182E+00  0.1760E+02  0.1760E+02
     53.934  0.5485E+00  0.5462E+00  0.1780E+02  0.1779E+02
     54.293  0.5694E+00  0.5690E+00  0.1799E+02  0.1799E+02
     54.651  0.6180E+00  0.6183E+00  0.1821E+02  0.1820E+02
     55.009  0.6268E+00  0.6297E+00  0.1842E+02  0.1842E+02
     55.367  0.4813E+00  0.4815E+00  0.1859E+02  0.1859E+02
     55.725  0.5531E+00  0.5521E+00  0.1877E+02  0.1877E+02
     56.084  0.6279E+00  0.6285E+00  0.1899E+02  0.1899E+02
     56.442  0.5473E+00  0.5472E+00  0.1920E+02  0.1919E+02
     56.800  0.6150E+00  0.6140E+00  0.1940E+02  0.1940E+02
     57.158  0.9106E+00  0.9080E+00  0.1967E+02  0.1967E+02
     57.516  0.6184E+00  0.6294E+00  0.1997E+02  0.1997E+02
     57.875  0.6103E+00  0.6101E+00  0.2018E+02  0.2018E+02
     58.233  0.9469E+00  0.9437E+00  0.2046E+02  0.2046E+02
     58.591  0.7992E+00  0.7917E+00  0.2077E+02  0.2077E+02
     58.949  0.8264E+00  0.8260E+00  0.2104E+02  0.2104E+02
     59.307  0.8310E+00  0.8313E+00  0.2135E+02  0.2134E+02
     59.666  0.6311E+00  0.6308E+00  0.2160E+02  0.2159E+02
     60.024  0.7284E+00  0.7283E+00  0.2184E+02  0.2183E+02
     60.382  0.7601E+00  0.7609E+00  0.2210E+02  0.2210E+02
     60.740  0.6948E+00  0.6961E+00  0.2236E+02  0.2235E+02
     61.099  0.5914E+00  0.5918E+00  0.2258E+02  0.2258E+02
     61.457  0.5315E+00  0.5316E+00  0.2278E+02  0.2278E+02
     61.815  0.5565E+00  0.5558E+00  0.2298E+02  0.2297E+02
     62.173  0.4781E+00  0.4788E+00  0.2317E+02  0.2316E+02
     62.531  0.4939E+00  0.4925E+00  0.2333E+02  0.2333E+02
     62.890  0.6714E+00  0.6671E+00  0.2353E+02  0.2353E+02
     63.248  0.1010E+01  0.1006E+01  0.2384E+02  0.2384E+02
     63.606  0.1107E+01  0.1109E+01  0.2425E+02  0.2424E+02
     63.964  0.9244E+00  0.9227E+00  0.2461E+02  0.2460E+02
     64.322  0.8693E+00  0.8705E+00  0.2494E+02  0.2494E+02
     64.681  0.8647E+00  0.8626E+00  0.2523E+02  0.2522E+02
     65.039  0.9680E+00  0.9621E+00  0.2555E+02  0.2554E+02
     65.397  0.9204E+00  0.9200E+00  0.2589E+02  0.2589E+02
     65.755  0.6537E+00  0.6568E+00  0.2616E+02  0.2616E+02
     66.114  0.6175E+00  0.6171E+00  0.2638E+02  0.2638E+02
     66.472  0.5087E+00  0.5107E+00  0.2659E+02  0.2659E+02
     66.830  0.5736E+00  0.5738E+00  0.2679E+02  0.2679E+02
     67.188  0.6092E+00  0.6083E+00  0.2700E+02  0.2699E+02
     67.546  0.7520E+00  0.7532E+00  0.2726E+02  0.2725E+02
     67.905  0.6932E+00  0.6926E+00  0.2750E+02  0.2750E+02
     68.263  0.6738E+00  0.6782E+00  0.2776E+02  0.2776E+02
     68.621  0.4870E+00  0.4879E+00  0.2796E+02  0.2795E+02
     68.979  0.6419E+00  0.6361E+00  0.2814E+02  0.2814E+02
     69.337  0.6505E+00  0.6511E+00  0.2838E+02  0.2838E+02
     69.696  0.6458E+00  0.6461E+00  0.2861E+02  0.2861E+02
     70.054  0.6254E+00  0.6281E+00  0.2883E+02  0.2883E+02
     70.412  0.5142E+00  0.5147E+00  0.2903E+02  0.2903E+02
     70.770  0.4666E+00  0.4669E+00  0.2920E+02  0.2920E+02
     71.128  0.4830E+00  0.4832E+00  0.2938E+02  0.2938E+02
     71.487  0.4932E+00  0.4929E+00  0.2955E+02  0.2955E+02
     71.845  0.5283E+00  0.5277E+00  0.2974E+02  0.2974E+02
     72.203  0.5875E+00  0.5869E+00  0.2994E+02  0.2994E+02
     72.561  0.5611E+00  0.5620E+00  0.3015E+02  0.3015E+02
     72.920  0.5156E+00  0.5159E+00  0.3034E+02  0.3034E+02
     73.278  0.4099E+00  0.4106E+00  0.3050E+02  0.3050E+02
     73.636  0.3556E+00  0.3556E+00  0.3064E+02  0.3064E+02
     73.994  0.4996E+00  0.5003E+00  0.3078E+02  0.3078E+02
     74.352  0.4360E+00  0.4361E+00  0.3094E+02  0.3094E+02
     74.711  0.4533E+00  0.4532E+00  0.3110E+02  0.3110E+02
     75.069  0.5589E+00  0.5590E+00  0.3128E+02  0.3128E+02
     75.427  0.5075E+00  0.5083E+00  0.3148E+02  0.3148E+02
     75.785  0.4839E+00  0.4837E+00  0.3164E+02  0.3164E+02
     76.143  0.4791E+00  0.4788E+00  0.3182E+02  0.3182E+02
     76.502  0.8441E+00  0.8428E+00  0.3201E+02  0.3201E+02
     76.860  0.5131E+00  0.5134E+00  0.3224E+02  0.3224E+02
     77.218  0.4690E+00  0.4701E+00  0.3242E+02  0.3242E+02
     77.576  0.3623E+00  0.3624E+00  0.3256E+02  0.3256E+02
     77.935  0.3826E+00  0.3824E+00  0.3269E+02  0.3269E+02
     78.293  0.5046E+00  0.5030E+00  0.3285E+02  0.3284E+02
     78.651  0.5834E+00  0.5838E+00  0.3306E+02  0.3306E+02
     79.009  0.6025E+00  0.6012E+00  0.3328E+02  0.3327E+02
     79.367  0.7466E+00  0.7489E+00  0.3351E+02  0.3351E+02
     79.726  0.4966E+00  0.4990E+00  0.3373E+02  0.3373E+02
     80.084  0.4391E+00  0.4386E+00  0.3389E+02  0.3389E+02
     80.442  0.4569E+00  0.4567E+00  0.3405E+02  0.3405E+02
     80.800  0.4020E+00  0.4018E+00  0.3420E+02  0.3420E+02
     81.158  0.5081E+00  0.5074E+00  0.3436E+02  0.3436E+02
     81.517  0.6980E+00  0.6991E+00  0.3459E+02  0.3459E+02
     81.875  0.7564E+00  0.7567E+00  0.3485E+02  0.3485E+02
     82.233  0.7257E+00  0.7248E+00  0.3511E+02  0.3511E+02
     82.591  0.6681E+00  0.6688E+00  0.3536E+02  0.3536E+02
     82.949  0.5856E+00  0.5862E+00  0.3558E+02  0.3558E+02
     83.308  0.4618E+00  0.4617E+00  0.3575E+02  0.3575E+02
     83.666  0.6845E+00  0.6807E+00  0.3594E+02  0.3594E+02
     84.024  0.6152E+00  0.6145E+00  0.3616E+02  0.3616E+02
     84.382  0.6328E+00  0.6328E+00  0.3638E+02  0.3638E+02
     84.741  0.5553E+00  0.5557E+00  0.3659E+02  0.3659E+02
     85.099  0.4942E+00  0.4945E+00  0.3678E+02  0.3678E+02
     85.457  0.3775E+00  0.3780E+00  0.3694E+02  0.3694E+02
     85.815  0.3934E+00  0.3932E+00  0.3707E+02  0.3707E+02
     86.173  0.4488E+00  0.4489E+00  0.3722E+02  0.3722E+02
     86.532  0.4526E+00  0.4523E+00  0.3739E+02  0.3738E+02
     86.890  0.4609E+00  0.4608E+00  0.3755E+02  0.3755E+02
     87.248  0.5397E+00  0.5400E+00  0.3772E+02  0.3772E+02
     87.606  0.6106E+00  0.6108E+00  0.3793E+02  0.3793E+02
     87.964  0.5552E+00  0.5559E+00  0.3814E+02  0.3814E+02
     88.323  0.5858E+00  0.5858E+00  0.3834E+02  0.3834E+02
     88.681  0.6741E+00  0.6733E+00  0.3856E+02  0.3855E+02
     89.039  0.8195E+00  0.8189E+00  0.3883E+02  0.3883E+02
     89.397  0.6075E+00  0.6077E+00  0.3908E+02  0.3908E+02
     89.756  0.5059E+00  0.5065E+00  0.3928E+02  0.3928E+02
     90.114  0.4499E+00  0.4498E+00  0.3945E+02  0.3945E+02
     90.472  0.3610E+00  0.3637E+00  0.3961E+02  0.3961E+02
     90.830  0.2098E+00  0.2099E+00  0.3970E+02  0.3969E+02
     91.188  0.2425E+00  0.2429E+00  0.3977E+02  0.3977E+02
     91.547  0.1233E+00  0.1235E+00  0.3983E+02  0.3983E+02
     91.905  0.9358E-01  0.9360E-01  0.3987E+02  0.3987E+02
     92.263  0.8666E-01  0.8668E-01  0.3990E+02  0.3990E+02
     92.621  0.7894E-01  0.7896E-01  0.3993E+02  0.3993E+02
     92.979  0.6856E-01  0.6859E-01  0.3996E+02  0.3996E+02
     93.338  0.4457E-01  0.4474E-01  0.3998E+02  0.3998E+02
     93.696  0.2908E-01  0.2916E-01  0.3999E+02  0.3999E+02
     94.054  0.1226E-01  0.1234E-01  0.4000E+02  0.4000E+02
     94.412  0.2051E-02  0.2076E-02  0.4000E+02  0.4000E+02
     94.770  0.0000E+00  0.0000E+00  0.4000E+02  0.4000E+02
     95.129  0.0000E+00  0.0000E+00  0.4000E+02  0.4000E+02
     95.487  0.0000E+00  0.0000E+00  0.4000E+02  0.4000E+02
     95.845  0.0000E+00  0.0000E+00  0.4000E+02  0.4000E+02
     96.203  0.0000E+00  0.0000E+00  0.4000E+02  0.4000E+02
     96.562  0.0000E+00  0.0000E+00  0.4000E+02  0.4000E+02
     96.920  0.0000E+00  0.0000E+00  0.4000E+02  0.4000E+02
     97.278  0.0000E+00  0.0000E+00  0.4000E+02  0.4000E+02
     97.636  0.0000E+00  0.0000E+00  0.4000E+02  0.4000E+02
     97.994  0.0000E+00  0.0000E+00  0.4000E+02  0.4000E+02
     98.353  0.0000E+00  0.0000E+00  0.4000E+02  0.4000E+02
     98.711  0.0000E+00  0.0000E+00  0.4000E+02  0.4000E+02
     99.069  0.0000E+00  0.0000E+00  0.4000E+02  0.4000E+02
     99.427  0.0000E+00  0.0000E+00  0.4000E+02  0.4000E+02
     99.42723324     -8.03640586  301      8.00668688      1.00000000
     -8.036  0.0000E+00  0.0000E+00  0.0000E+00  0.0000E+00  0.0000E+00  0.0000E+00  0.0000E+00  0.0000E+00  0.0000E+00  0.0000E+00  0.0000E+00  0.0000E+00  0.0000E+00  0.0000E+00  0.0000E+00  0.0000E+00  0.0000E+00  0.0000E+00
     -7.678  0.0000E+00  0.0000E+00  0.0000E+00  0.0000E+00  0.0000E+00  0.0000E+00  0.0000E+00  0.0000E+00  0.0000E+00  0.0000E+00  0.0000E+00  0.0000E+00  0.0000E+00  0.0000E+00  0.0000E+00  0.0000E+00  0.0000E+00  0.0000E+00
     -7.320  0.0000E+00  0.0000E+00  0.0000E+00  0.0000E+00  0.0000E+00  0.0000E+00  0.0000E+00  0.0000E+00  0.0000E+00  0.0000E+00  0.0000E+00  0.0000E+00  0.0000E+00  0.0000E+00  0.0000E+00  0.0000E+00  0.0000E+00  0.0000E+00
     -6.962  0.0000E+00  0.0000E+00  0.0000E+00  0.0000E+00  0.0000E+00  0.0000E+00  0.0000E+00  0.0000E+00  0.0000E+00  0.0000E+00  0.0000E+00  0.0000E+00  0.0000E+00  0.0000E+00  0.0000E+00  0.0000E+00  0.0000E+00  0.0000E+00
     -6.604  0.0000E+00  0.0000E+00  0.0000E+00  0.0000E+00  0.0000E+00  0.0000E+00  0.0000E+00  0.0000E+00  0.0000E+00  0.0000E+00  0.0000E+00  0.0000E+00  0.0000E+00  0.0000E+00  0.0000E+00  0.0000E+00  0.0000E+00  0.0000E+00
     -6.245  0.0000E+00  0.0000E+00  0.0000E+00  0.0000E+00  0.0000E+00  0.0000E+00  0.0000E+00  0.0000E+00  0.0000E+00  0.0000E+00  0.0000E+00  0.0000E+00  0.0000E+00  0.0000E+00  0.0000E+00  0.0000E+00  0.0000E+00  0.0000E+00
     -5.887  0.0000E+00  0.0000E+00  0.0000E+00  0.0000E+00  0.0000E+00  0.0000E+00  0.0000E+00  0.0000E+00  0.0000E+00  0.0000E+00  0.0000E+00  0.0000E+00  0.0000E+00  0.0000E+00  0.0000E+00  0.0000E+00  0.0000E+00  0.0000E+00
     -5.529  0.0000E+00  0.0000E+00  0.0000E+00  0.0000E+00  0.0000E+00  0.0000E+00  0.0000E+00  0.0000E+00  0.0000E+00  0.0000E+00  0.0000E+00  0.0000E+00  0.0000E+00  0.0000E+00  0.0000E+00  0.0000E+00  0.0000E+00  0.0000E+00
     -5.171  0.0000E+00  0.0000E+00  0.0000E+00  0.0000E+00  0.0000E+00  0.0000E+00  0.0000E+00  0.0000E+00  0.0000E+00  0.0000E+00  0.0000E+00  0.0000E+00  0.0000E+00  0.0000E+00  0.0000E+00  0.0000E+00  0.0000E+00  0.0000E+00
     -4.812  0.0000E+00  0.0000E+00  0.0000E+00  0.0000E+00  0.0000E+00  0.0000E+00  0.0000E+00  0.0000E+00  0.0000E+00  0.0000E+00  0.0000E+00  0.0000E+00  0.0000E+00  0.0000E+00  0.0000E+00  0.0000E+00  0.0000E+00  0.0000E+00
     -4.454  0.0000E+00  0.0000E+00  0.0000E+00  0.0000E+00  0.0000E+00  0.0000E+00  0.0000E+00  0.0000E+00  0.0000E+00  0.0000E+00  0.0000E+00  0.0000E+00  0.0000E+00  0.0000E+00  0.0000E+00  0.0000E+00  0.0000E+00  0.0000E+00
     -4.096  0.0000E+00  0.0000E+00  0.0000E+00  0.0000E+00  0.0000E+00  0.0000E+00  0.0000E+00  0.0000E+00  0.0000E+00  0.0000E+00  0.0000E+00  0.0000E+00  0.0000E+00  0.0000E+00  0.0000E+00  0.0000E+00  0.0000E+00  0.0000E+00
     -3.738  0.0000E+00  0.0000E+00  0.0000E+00  0.0000E+00  0.0000E+00  0.0000E+00  0.0000E+00  0.0000E+00  0.0000E+00  0.0000E+00  0.0000E+00  0.0000E+00  0.0000E+00  0.0000E+00  0.0000E+00  0.0000E+00  0.0000E+00  0.0000E+00
     -3.380  0.0000E+00  0.0000E+00  0.0000E+00  0.0000E+00  0.0000E+00  0.0000E+00  0.0000E+00  0.0000E+00  0.0000E+00  0.0000E+00  0.0000E+00  0.0000E+00  0.0000E+00  0.0000E+00  0.0000E+00  0.0000E+00  0.0000E+00  0.0000E+00
     -3.021  0.2725E-02  0.2639E-02  0.1309E-04  0.1268E-04  0.1309E-04  0.1268E-04  0.1309E-04  0.1268E-04  0.0000E+00  0.0000E+00  0.0000E+00  0.0000E+00  0.0000E+00  0.0000E+00  0.0000E+00  0.0000E+00  0.0000E+00  0.0000E+00
     -2.663  0.9468E-02  0.9433E-02  0.1329E-03  0.1321E-03  0.1329E-03  0.1321E-03  0.1329E-03  0.1321E-03  0.0000E+00  0.0000E+00  0.0000E+00  0.0000E+00  0.0000E+00  0.0000E+00  0.0000E+00  0.0000E+00  0.0000E+00  0.0000E+00
     -2.305  0.1266E-01  0.1265E-01  0.3123E-03  0.3110E-03  0.3123E-03  0.3110E-03  0.3123E-03  0.3110E-03  0.0000E+00  0.0000E+00  0.0000E+00  0.0000E+00  0.0000E+00  0.0000E+00  0.0000E+00  0.0000E+00  0.0000E+00  0.0000E+00
     -1.947  0.1525E-01  0.1523E-01  0.5125E-03  0.5112E-03  0.5125E-03  0.5112E-03  0.5125E-03  0.5112E-03  0.0000E+00  0.0000E+00  0.0000E+00  0.0000E+00  0.0000E+00  0.0000E+00  0.0000E+00  0.0000E+00  0.0000E+00  0.0000E+00
     -1.589  0.1712E-01  0.1711E-01  0.7579E-03  0.7561E-03  0.7579E-03  0.7561E-03  0.7579E-03  0.7561E-03  0.0000E+00  0.0000E+00  0.0000E+00  0.0000E+00  0.0000E+00  0.0000E+00  0.0000E+00  0.0000E+00  0.0000E+00  0.0000E+00
     -1.230  0.1824E-01  0.1822E-01  0.1036E-02  0.1035E-02  0.1036E-02  0.1035E-02  0.1036E-02  0.1035E-02  0.0000E+00  0.0000E+00  0.0000E+00  0.0000E+00  0.0000E+00  0.0000E+00  0.0000E+00  0.0000E+00  0.0000E+00  0.0000E+00
     -0.872  0.1983E-01  0.1981E-01  0.1312E-02  0.1310E-02  0.1312E-02  0.1310E-02  0.1312E-02  0.1310E-02  0.0000E+00  0.0000E+00  0.0000E+00  0.0000E+00  0.0000E+00  0.0000E+00  0.0000E+00  0.0000E+00  0.0000E+00  0.0000E+00
     -0.514  0.2061E-01  0.2059E-01  0.1641E-02  0.1639E-02  0.1641E-02  0.1639E-02  0.1641E-02  0.1639E-02  0.0000E+00  0.0000E+00  0.0000E+00  0.0000E+00  0.0000E+00  0.0000E+00  0.0000E+00  0.0000E+00  0.0000E+00  0.0000E+00
     -0.156  0.2122E-01  0.2120E-01  0.1985E-02  0.1982E-02  0.1985E-02  0.1982E-02  0.1985E-02  0.1982E-02  0.0000E+00  0.0000E+00  0.0000E+00  0.0000E+00  0.0000E+00  0.0000E+00  0.0000E+00  0.0000E+00  0.0000E+00  0.0000E+00
      0.202  0.2190E-01  0.2188E-01  0.2334E-02  0.2331E-02  0.2334E-02  0.2331E-02  0.2334E-02  0.2331E-02  0.0000E+00  0.0000E+00  0.0000E+00  0.0000E+00  0.0000E+00  0.0000E+00  0.0000E+00  0.0000E+00  0.0000E+00  0.0000E+00
      0.561  0.2275E-01  0.2273E-01  0.2686E-02  0.2683E-02  0.2686E-02  0.2683E-02  0.2686E-02  0.2683E-02  0.0000E+00  0.0000E+00  0.0000E+00  0.0000E+00  0.0000E+00  0.0000E+00  0.0000E+00  0.0000E+00  0.0000E+00  0.0000E+00
      0.919  0.2275E-01  0.2273E-01  0.3103E-02  0.3100E-02  0.3103E-02  0.3100E-02  0.3103E-02  0.3100E-02  0.0000E+00  0.0000E+00  0.0000E+00  0.0000E+00  0.0000E+00  0.0000E+00  0.0000E+00  0.0000E+00  0.0000E+00  0.0000E+00
      1.277  0.2275E-01  0.2273E-01  0.3528E-02  0.3525E-02  0.3528E-02  0.3525E-02  0.3528E-02  0.3525E-02  0.0000E+00  0.0000E+00  0.0000E+00  0.0000E+00  0.0000E+00  0.0000E+00  0.0000E+00  0.0000E+00  0.0000E+00  0.0000E+00
      1.635  0.2285E-01  0.2283E-01  0.3962E-02  0.3959E-02  0.3962E-02  0.3959E-02  0.3962E-02  0.3959E-02  0.0000E+00  0.0000E+00  0.0000E+00  0.0000E+00  0.0000E+00  0.0000E+00  0.0000E+00  0.0000E+00  0.0000E+00  0.0000E+00
      1.994  0.2295E-01  0.2293E-01  0.4429E-02  0.4425E-02  0.4429E-02  0.4425E-02  0.4429E-02  0.4425E-02  0.0000E+00  0.0000E+00  0.0000E+00  0.0000E+00  0.0000E+00  0.0000E+00  0.0000E+00  0.0000E+00  0.0000E+00  0.0000E+00
      2.352  0.2309E-01  0.2307E-01  0.5042E-02  0.5035E-02  0.5042E-02  0.5035E-02  0.5042E-02  0.5035E-02  0.0000E+00  0.0000E+00  0.0000E+00  0.0000E+00  0.0000E+00  0.0000E+00  0.0000E+00  0.0000E+00  0.0000E+00  0.0000E+00
      2.710  0.2354E-01  0.2351E-01  0.5930E-02  0.5925E-02  0.5930E-02  0.5925E-02  0.5930E-02  0.5925E-02  0.0000E+00  0.0000E+00  0.0000E+00  0.0000E+00  0.0000E+00  0.0000E+00  0.0000E+00  0.0000E+00  0.0000E+00  0.0000E+00
      3.068  0.2651E-01  0.2647E-01  0.7706E-02  0.7701E-02  0.7706E-02  0.7701E-02  0.7706E-02  0.7701E-02  0.0000E+00  0.0000E+00  0.0000E+00  0.0000E+00  0.0000E+00  0.0000E+00  0.0000E+00  0.0000E+00  0.0000E+00  0.0000E+00
      3.426  0.2039E-01  0.2038E-01  0.6599E-02  0.6601E-02  0.6599E-02  0.6601E-02  0.6599E-02  0.6601E-02  0.0000E+00  0.0000E+00  0.0000E+00  0.0000E+00  0.0000E+00  0.0000E+00  0.0000E+00  0.0000E+00  0.0000E+00  0.0000E+00
      3.785  0.1770E-01  0.1769E-01  0.6447E-02  0.6446E-02  0.6447E-02  0.6446E-02  0.6447E-02  0.6446E-02  0.0000E+00  0.0000E+00  0.0000E+00  0.0000E+00  0.0000E+00  0.0000E+00  0.0000E+00  0.0000E+00  0.0000E+00  0.0000E+00
      4.143  0.1758E-01  0.1756E-01  0.7359E-02  0.7357E-02  0.7359E-02  0.7357E-02  0.7359E-02  0.7357E-02  0.0000E+00  0.0000E+00  0.0000E+00  0.0000E+00  0.0000E+00  0.0000E+00  0.0000E+00  0.0000E+00  0.0000E+00  0.0000E+00
      4.501  0.2015E-01  0.2012E-01  0.9277E-02  0.9267E-02  0.9277E-02  0.9267E-02  0.9277E-02  0.9267E-02  0.0000E+00  0.0000E+00  0.0000E+00  0.0000E+00  0.0000E+00  0.0000E+00  0.0000E+00  0.0000E+00  0.0000E+00  0.0000E+00
      4.859  0.1885E-01  0.1882E-01  0.9319E-02  0.9313E-02  0.9319E-02  0.9313E-02  0.9319E-02  0.9313E-02  0.0000E+00  0.0000E+00  0.0000E+00  0.0000E+00  0.0000E+00  0.0000E+00  0.0000E+00  0.0000E+00  0.0000E+00  0.0000E+00
      5.217  0.2911E-01  0.2862E-01  0.1149E-01  0.1134E-01  0.1149E-01  0.1134E-01  0.1149E-01  0.1134E-01  0.0000E+00  0.0000E+00  0.0000E+00  0.0000E+00  0.0000E+00  0.0000E+00  0.0000E+00  0.0000E+00  0.0000E+00  0.0000E+00
      5.576  0.1738E-01  0.1737E-01  0.9083E-02  0.9081E-02  0.9083E-02  0.9081E-02  0.9083E-02  0.9081E-02  0.0000E+00  0.0000E+00  0.0000E+00  0.0000E+00  0.0000E+00  0.0000E+00  0.0000E+00  0.0000E+00  0.0000E+00  0.0000E+00
      5.934  0.1531E-01  0.1530E-01  0.6787E-02  0.6787E-02  0.6787E-02  0.6787E-02  0.6787E-02  0.6787E-02  0.0000E+00  0.0000E+00  0.0000E+00  0.0000E+00  0.0000E+00  0.0000E+00  0.0000E+00  0.0000E+00  0.0000E+00  0.0000E+00
      6.292  0.2033E-01  0.1967E-01  0.1031E-01  0.9829E-02  0.1031E-01  0.9829E-02  0.1031E-01  0.9829E-02  0.0000E+00  0.0000E+00  0.0000E+00  0.0000E+00  0.0000E+00  0.0000E+00  0.0000E+00  0.0000E+00  0.0000E+00  0.0000E+00
      6.650  0.1838E-01  0.1835E-01  0.1016E-01  0.1014E-01  0.1016E-01  0.1014E-01  0.1016E-01  0.1014E-01  0.0000E+00  0.0000E+00  0.0000E+00  0.0000E+00  0.0000E+00  0.0000E+00  0.0000E+00  0.0000E+00  0.0000E+00  0.0000E+00
      7.009  0.1800E-01  0.1798E-01  0.1124E-01  0.1124E-01  0.1124E-01  0.1124E-01  0.1124E-01  0.1124E-01  0.0000E+00  0.0000E+00  0.0000E+00  0.0000E+00  0.0000E+00  0.0000E+00  0.0000E+00  0.0000E+00  0.0000E+00  0.0000E+00
      7.367  0.1810E-01  0.1809E-01  0.9373E-02  0.9368E-02  0.9373E-02  0.9368E-02  0.9373E-02  0.9368E-02  0.0000E+00  0.0000E+00  0.0000E+00  0.0000E+00  0.0000E+00  0.0000E+00  0.0000E+00  0.0000E+00  0.0000E+00  0.0000E+00
      7.725  0.1518E-01  0.1520E-01  0.9395E-02  0.9400E-02  0.9395E-02  0.9400E-02  0.9395E-02  0.9400E-02  0.0000E+00  0.0000E+00  0.0000E+00  0.0000E+00  0.0000E+00  0.0000E+00  0.0000E+00  0.0000E+00  0.0000E+00  0.0000E+00
      8.083  0.1376E-01  0.1373E-01  0.8300E-02  0.8296E-02  0.8300E-02  0.8296E-02  0.8300E-02  0.8296E-02  0.0000E+00  0.0000E+00  0.0000E+00  0.0000E+00  0.0000E+00  0.0000E+00  0.0000E+00  0.0000E+00  0.0000E+00  0.0000E+00
      8.441  0.2327E-01  0.2316E-01  0.1017E-01  0.1014E-01  0.1017E-01  0.1014E-01  0.1017E-01  0.1014E-01  0.0000E+00  0.0000E+00  0.0000E+00  0.0000E+00  0.0000E+00  0.0000E+00  0.0000E+00  0.0000E+00  0.0000E+00  0.0000E+00
      8.800  0.2589E-01  0.2586E-01  0.1161E-01  0.1162E-01  0.1161E-01  0.1162E-01  0.1161E-01  0.1162E-01  0.0000E+00  0.0000E+00  0.0000E+00  0.0000E+00  0.0000E+00  0.0000E+00  0.0000E+00  0.0000E+00  0.0000E+00  0.0000E+00
      9.158  0.1912E-01  0.1911E-01  0.9840E-02  0.9833E-02  0.9840E-02  0.9833E-02  0.9840E-02  0.9833E-02  0.0000E+00  0.0000E+00  0.0000E+00  0.0000E+00  0.0000E+00  0.0000E+00  0.0000E+00  0.0000E+00  0.0000E+00  0.0000E+00
      9.516  0.1897E-01  0.1895E-01  0.1016E-01  0.1015E-01  0.1016E-01  0.1015E-01  0.1016E-01  0.1015E-01  0.0000E+00  0.0000E+00  0.0000E+00  0.0000E+00  0.0000E+00  0.0000E+00  0.0000E+00  0.0000E+00  0.0000E+00  0.0000E+00
      9.874  0.1811E-01  0.1811E-01  0.9912E-02  0.9906E-02  0.9912E-02  0.9906E-02  0.9912E-02  0.9906E-02  0.0000E+00  0.0000E+00  0.0000E+00  0.0000E+00  0.0000E+00  0.0000E+00  0.0000E+00  0.0000E+00  0.0000E+00  0.0000E+00