    4    4    1    1
  0.1144571E+02  0.3577475E-09  0.3577475E-09  0.3577431E-09  0.5000000E-15
   1.0000000000000000E-004
  CAR 
 unknown system                          
     68    301     40

  0.1262379E-14  0.1262379E-14  0.1262379E-14  0.5787037E-03
    1      -62.723504   1.000000
    2      -62.723504   1.000000
    3      -62.723123   1.000000
    4      -62.655357   1.000000
    5      -62.655065   1.000000
    6      -62.655065   1.000000
    7      -62.654986   1.000000
    8      -62.654986   1.000000
    9      -62.654892   1.000000
   10      -62.610476   1.000000
   11      -62.609983   1.000000
   12      -62.609559   1.000000
   13       -2.345411   1.000000
   14        2.193806   1.000000
   15        2.193986   1.000000
   16        2.193986   1.000000
   17        2.678459   1.000000
   18        2.678821   1.000000
   19        2.678821   1.000000
   20        4.126400   1.000000
   21        4.152877   1.000000
   22        4.182490   1.000000
   23        5.025121   1.000000
   24        5.025419   1.000000
   25        5.606088   1.000000
   26        5.606088   1.000000
   27        5.607540   1.000000
   28        5.777604   1.000000
   29        5.778481   1.000000
   30        5.778481   1.000000
   31        5.779953   1.000000
   32        5.779953   1.000000
   33        5.780037   1.000000
   34        8.718279  -0.000000
   35        8.719054  -0.000000
   36        8.719054  -0.000000
   37       14.616622   0.000000
   38       14.617639   0.000000
   39       14.617639   0.000000
   40       20.391628   0.000000

  0.8333333E-01  0.1262228E-14  0.1262379E-14  0.2314815E-02
    1      -62.722500   1.000000
    2      -62.722180   1.000000
    3      -62.721932   1.000000
    4      -62.656369   1.000000
    5      -62.656258   1.000000
    6      -62.655455   1.000000
    7      -62.655267   1.000000
    8      -62.654482   1.000000
    9      -62.654413   1.000000
   10      -62.611574   1.000000
   11      -62.610269   1.000000
   12      -62.610176   1.000000
   13       -2.258894   1.000000
   14        2.193412   1.000000
   15        2.235010   1.000000
   16        2.235179   1.000000
   17        2.702474   1.000000
   18        2.703436   1.000000
   19        2.703789   1.000000
   20        4.115524   1.000000
   21        4.174245   1.000000
   22        4.188311   1.000000
   23        5.001445   1.000000
   24        5.035344   1.000000
   25        5.572154   1.000000
   26        5.576064   1.000000
   27        5.595745   1.000000
   28        5.615925   1.000000
   29        5.619737   1.000000
   30        5.741333   1.000000
   31        5.742817   1.000000
   32        5.778503   1.000000
   33        5.778852   1.000000
   34        8.206107  -0.000000
   35        8.957423  -0.000000
   36        8.958071  -0.000000
   37       14.646362   0.000000
   38       14.647462   0.000000
   39       15.299940   0.000000
   40       19.911422   0.000000

  0.1666667E+00  0.1262337E-14  0.1262379E-14  0.2314815E-02
    1      -62.719427   1.000000
    2      -62.719077   1.000000
    3      -62.717410   1.000000
    4      -62.659905   1.000000
    5      -62.659840   1.000000
    6      -62.655740   1.000000
    7      -62.655611   1.000000
    8      -62.652610   1.000000
    9      -62.652377   1.000000
   10      -62.616905   1.000000
   11      -62.612267   1.000000
   12      -62.612130   1.000000
   13       -2.001323   1.000000
   14        2.174484   1.000000
   15        2.352903   1.000000
   16        2.353028   1.000000
   17        2.772166   1.000000
   18        2.778779   1.000000
   19        2.779103   1.000000
   20        4.046891   1.000000
   21        4.237557   1.000000
   22        4.242352   1.000000
   23        4.931834   1.000000
   24        5.063837   1.000000
   25        5.236707   1.000000
   26        5.236914   1.000000
   27        5.485034   1.000000
   28        5.485107   1.000000
   29        5.565243   1.000000
   30        5.635039   1.000000
   31        5.637330   1.000000
   32        5.778453   1.000000
   33        5.778761   1.000000
   34        7.115728   1.005538
   35        9.565504  -0.000000
   36        9.565820  -0.000000
   37       14.738506   0.000000
   38       14.739853   0.000000
   39       16.911153   0.000000
   40       18.793780   0.000000

  0.2500000E+00  0.1262445E-14  0.1262379E-14  0.2314815E-02
    1      -62.714217   1.000000
    2      -62.713563   1.000000
    3      -62.708567   1.000000
    4      -62.665458   1.000000
    5      -62.665419   1.000000
    6      -62.655682   1.000000
    7      -62.655274   1.000000
    8      -62.648929   1.000000
    9      -62.648715   1.000000
   10      -62.626079   1.000000
   11      -62.615676   1.000000
   12      -62.615588   1.000000
   13       -1.579108   1.000000
   14        2.077690   1.000000
   15        2.529116   1.000000
   16        2.529260   1.000000
   17        2.883984   1.000000
   18        2.905813   1.000000
   19        2.906009   1.000000
   20        3.926292   1.000000
   21        4.340720   1.000000
   22        4.343431   1.000000
   23        4.791879   1.000000
   24        4.792067   1.000000
   25        4.825491   1.000000
   26        5.109131   1.000000
   27        5.345087   1.000000
   28        5.345455   1.000000
   29        5.473613   1.000000
   30        5.474566   1.000000
   31        5.521254   1.000000
   32        5.778496   1.000000
   33        5.778771   1.000000
   34        5.989236   1.000000
   35       10.390946  -0.000000
   36       10.391243  -0.000000
   37       14.901299   0.000000
   38       14.903114   0.000000
   39       17.457895   0.000000
   40       17.491830   0.000000

  0.3333333E+00  0.1262662E-14  0.1262379E-14  0.2314815E-02
    1      -62.706948   1.000000
    2      -62.706915   1.000000
    3      -62.696137   1.000000
    4      -62.672612   1.000000
    5      -62.672487   1.000000
    6      -62.655207   1.000000
    7      -62.655088   1.000000
    8      -62.643674   1.000000
    9      -62.643671   1.000000
   10      -62.638017   1.000000
   11      -62.620307   1.000000
   12      -62.620264   1.000000
   13       -1.005216   1.000000
   14        1.789366   1.000000
   15        2.729222   1.000000
   16        2.729374   1.000000
   17        3.031312   1.000000
   18        3.086010   1.000000
   19        3.086239   1.000000
   20        3.768655   1.000000
   21        4.355459   1.000000
   22        4.355765   1.000000
   23        4.480917   1.000000
   24        4.482991   1.000000
   25        4.700087   1.000000
   26        5.123565   1.000000
   27        5.168383   1.000000
   28        5.181277   1.000000
   29        5.181423   1.000000
   30        5.278587   1.000000
   31        5.278608   1.000000
   32        5.459048   1.000000
   33        5.778750   1.000000
   34        5.778913   1.000000
   35       11.355726  -0.000000
   36       11.356845  -0.000000
   37       15.145858   0.000000
   38       15.148459   0.000000
   39       16.118100   0.000000
   40       16.136316   0.000000

  0.4166667E+00  0.1262011E-14  0.1262379E-14  0.2314815E-02
    1      -62.698746   1.000000
    2      -62.698449   1.000000
    3      -62.682373   1.000000
    4      -62.680846   1.000000
    5      -62.680705   1.000000
    6      -62.655414   1.000000
    7      -62.655298   1.000000
    8      -62.651671   1.000000
    9      -62.638078   1.000000
   10      -62.638025   1.000000
   11      -62.625858   1.000000
   12      -62.625816   1.000000
   13       -0.304571   1.000000
   14        1.224367   1.000000
   15        2.898035   1.000000
   16        2.898079   1.000000
   17        3.205141   1.000000
   18        3.321120   1.000000
   19        3.321259   1.000000
   20        3.586940   1.000000
   21        3.958342   1.000000
   22        3.958374   1.000000
   23        4.582361   1.000000
   24        4.655465   1.000000
   25        4.657093   1.000000
   26        4.663195   1.000000
   27        5.038453   1.000000
   28        5.038493   1.000000
   29        5.065394   1.000000
   30        5.065525   1.000000
   31        5.237753   1.000000
   32        5.388160   1.000000
   33        5.778991   1.000000
   34        5.779081   1.000000
   35       12.425975  -0.000000
   36       12.428651  -0.000000
   37       14.819324   0.000000
   38       14.829302   0.000000
   39       15.473555   0.000000
   40       15.476907   0.000000

  0.5000000E+00  0.1262879E-14  0.1262379E-14  0.1157407E-02
    1      -62.689741   1.000000
    2      -62.689741   1.000000
    3      -62.689535   1.000000
    4      -62.689535   1.000000
    5      -62.667062   1.000000
    6      -62.667062   1.000000
    7      -62.655624   1.000000
    8      -62.655624   1.000000
    9      -62.631973   1.000000
   10      -62.631973   1.000000
   11      -62.631942   1.000000
   12      -62.631942   1.000000
   13        0.472659   1.000000
   14        0.472659   1.000000
   15        2.966509   1.000000
   16        2.966509   1.000000
   17        3.394580   1.000000
   18        3.394580   1.000000
   19        3.612141   1.000000
   20        3.612141   1.000000
   21        3.612145   1.000000
   22        3.612145   1.000000
   23        4.536606   1.000000
   24        4.536606   1.000000
   25        4.853045   1.000000
   26        4.853045   1.000000
   27        4.853140   1.000000
   28        4.853140   1.000000
   29        4.979205   1.000000
   30        4.979205   1.000000
   31        5.312693   1.000000
   32        5.312693   1.000000
   33        5.779133   1.000000
   34        5.779133   1.000000
   35       13.584439   0.000000
   36       13.584439   0.000000
   37       13.589714   0.000000
   38       13.589714   0.000000
   39       15.735142   0.000000
   40       15.735144   0.000000

  0.8333333E-01  0.8333333E-01  0.1262379E-14  0.1157407E-02
    1      -62.721220   1.000000
    2      -62.720569   1.000000
    3      -62.720569   1.000000
    4      -62.659110   1.000000
    5      -62.655599   1.000000
    6      -62.655599   1.000000
    7      -62.654718   1.000000
    8      -62.654718   1.000000
    9      -62.654461   1.000000
   10      -62.614680   1.000000
   11      -62.611045   1.000000
   12      -62.609413   1.000000
   13       -2.170891   1.000000
   14        2.235128   1.000000
   15        2.235128   1.000000
   16        2.276778   1.000000
   17        2.727552   1.000000
   18        2.727552   1.000000
   19        2.729214   1.000000
   20        4.139421   1.000000
   21        4.158473   1.000000
   22        4.197597   1.000000
   23        4.993008   1.000000
   24        5.027978   1.000000
   25        5.492277   1.000000
   26        5.538406   1.000000
   27        5.538406   1.000000
   28        5.543480   1.000000
   29        5.596179   1.000000
   30        5.596179   1.000000
   31        5.741725   1.000000
   32        5.741725   1.000000
   33        5.756064   1.000000
   34        8.432657  -0.000000
   35        8.432657  -0.000000
   36        9.181392  -0.000000
   37       14.676443   0.000000
   38       15.354281   0.000000
   39       15.354281   0.000000
   40       19.119938   0.000000

  0.1666667E+00  0.8333333E-01  0.1262379E-14  0.2314815E-02
    1      -62.717949   1.000000
    2      -62.717132   1.000000
    3      -62.716076   1.000000
    4      -62.663533   1.000000
    5      -62.659061   1.000000
    6      -62.654768   1.000000
    7      -62.653802   1.000000
    8      -62.653715   1.000000
    9      -62.652421   1.000000
   10      -62.621302   1.000000
   11      -62.612950   1.000000
   12      -62.611054   1.000000
   13       -1.912680   1.000000
   14        2.218379   1.000000
   15        2.355458   1.000000
   16        2.393361   1.000000
   17        2.796311   1.000000
   18        2.802053   1.000000
   19        2.803482   1.000000
   20        4.057797   1.000000
   21        4.225924   1.000000
   22        4.257695   1.000000
   23        4.930705   1.000000
   24        5.052406   1.000000
   25        5.159737   1.000000
   26        5.166308   1.000000
   27        5.395931   1.000000
   28        5.454092   1.000000
   29        5.489275   1.000000
   30        5.567578   1.000000
   31        5.635664   1.000000
   32        5.741978   1.000000
   33        5.742386   1.000000
   34        7.360592   0.218910
   35        9.004006  -0.000000
   36        9.758354  -0.000000
   37       14.767232   0.000000
   38       15.494732   0.000000
   39       16.984690   0.000000
   40       17.730987   0.000000

  0.2500000E+00  0.8333333E-01  0.1262379E-14  0.2314815E-02
    1      -62.712272   1.000000
    2      -62.712009   1.000000
    3      -62.707126   1.000000
    4      -62.669156   1.000000
    5      -62.664495   1.000000
    6      -62.654548   1.000000
    7      -62.652906   1.000000
    8      -62.649946   1.000000
    9      -62.648706   1.000000
   10      -62.630846   1.000000
   11      -62.616567   1.000000
   12      -62.614148   1.000000
   13       -1.490802   1.000000
   14        2.125346   1.000000
   15        2.536103   1.000000
   16        2.567138   1.000000
   17        2.906158   1.000000
   18        2.926684   1.000000
   19        2.927150   1.000000
   20        3.932723   1.000000
   21        4.332889   1.000000
   22        4.350808   1.000000
   23        4.720554   1.000000
   24        4.746123   1.000000
   25        4.830859   1.000000
   26        5.102079   1.000000
   27        5.149396   1.000000
   28        5.318386   1.000000
   29        5.351615   1.000000
   30        5.475706   1.000000
   31        5.511119   1.000000
   32        5.738655   1.000000
   33        5.742088   1.000000
   34        6.322998   1.000000
   35        9.755836  -0.000000
   36       10.558672  -0.000000
   37       14.914963   0.000000
   38       15.731481   0.000000
   39       16.389325   0.000000
   40       17.585745   0.000000

  0.3333333E+00  0.8333333E-01  0.1262379E-14  0.2314815E-02
    1      -62.705597   1.000000
    2      -62.705127   1.000000
    3      -62.695476   1.000000
    4      -62.676113   1.000000
    5      -62.671454   1.000000
    6      -62.653927   1.000000
    7      -62.652529   1.000000
    8      -62.644842   1.000000
    9      -62.643733   1.000000
   10      -62.642642   1.000000
   11      -62.621214   1.000000
   12      -62.618717   1.000000
   13       -0.918460   1.000000
   14        1.840911   1.000000
   15        2.742763   1.000000
   16        2.765544   1.000000
   17        3.050408   1.000000
   18        3.097666   1.000000
   19        3.104393   1.000000
   20        3.774654   1.000000
   21        4.289910   1.000000
   22        4.330562   1.000000
   23        4.457650   1.000000
   24        4.475634   1.000000
   25        4.731647   1.000000
   26        4.791197   1.000000
   27        5.159875   1.000000
   28        5.169513   1.000000
   29        5.189869   1.000000
   30        5.280115   1.000000
   31        5.398981   1.000000
   32        5.669410   1.000000
   33        5.737605   1.000000
   34        5.742075   1.000000
   35       10.611962  -0.000000
   36       11.506668  -0.000000
   37       14.858975   0.000000
   38       15.419894   0.000000
   39       16.073180   0.000000
   40       16.231067   0.000000

  0.4166667E+00  0.8333333E-01  0.1262379E-14  0.2314815E-02
    1      -62.697661   1.000000
    2      -62.697399   1.000000
    3      -62.684254   1.000000
    4      -62.682097   1.000000
    5      -62.679855   1.000000
    6      -62.655887   1.000000
    7      -62.654034   1.000000
    8      -62.652670   1.000000
    9      -62.639086   1.000000
   10      -62.637615   1.000000
   11      -62.626710   1.000000
   12      -62.623781   1.000000
   13       -0.220940   1.000000
   14        1.280270   1.000000
   15        2.919703   1.000000
   16        2.935425   1.000000
   17        3.220220   1.000000
   18        3.315269   1.000000
   19        3.334710   1.000000
   20        3.594640   1.000000
   21        3.901860   1.000000
   22        3.947884   1.000000
   23        4.483780   1.000000
   24        4.507425   1.000000
   25        4.649964   1.000000
   26        4.754116   1.000000
   27        5.024147   1.000000
   28        5.047088   1.000000
   29        5.068043   1.000000
   30        5.160458   1.000000
   31        5.250683   1.000000
   32        5.449598   1.000000
   33        5.737375   1.000000
   34        5.741544   1.000000
   35       11.541757  -0.000000
   36       12.566438  -0.000000
   37       13.812904   0.000000
   38       14.927904   0.000000
   39       15.633758   0.000000
   40       16.426154   0.000000

  0.5000000E+00  0.8333333E-01  0.1262379E-14  0.2314815E-02
    1      -62.692141   1.000000
    2      -62.689820   1.000000
    3      -62.688649   1.000000
    4      -62.688476   1.000000
    5      -62.670629   1.000000
    6      -62.667636   1.000000
    7      -62.654109   1.000000
    8      -62.653320   1.000000
    9      -62.633033   1.000000
   10      -62.632858   1.000000
   11      -62.631324   1.000000
   12      -62.630049   1.000000
   13        0.534194   1.000000
   14        0.551067   1.000000
   15        2.995557   1.000000
   16        3.001512   1.000000
   17        3.404383   1.000000
   18        3.404906   1.000000
   19        3.569062   1.000000
   20        3.586743   1.000000
   21        3.612130   1.000000
   22        3.619166   1.000000
   23        4.428811   1.000000
   24        4.446768   1.000000
   25        4.848737   1.000000
   26        4.857178   1.000000
   27        4.926579   1.000000
   28        4.929022   1.000000
   29        4.973751   1.000000
   30        4.984318   1.000000
   31        5.343047   1.000000
   32        5.346600   1.000000
   33        5.737921   1.000000
   34        5.740989   1.000000
   35       12.535277  -0.000000
   36       12.714544  -0.000000
   37       13.694940   0.000000
   38       13.719438   0.000000
   39       16.076082   0.000000
   40       16.087242   0.000000

 -0.4166667E+00  0.8333333E-01  0.1262379E-14  0.2314815E-02
    1      -62.700011   1.000000
    2      -62.697406   1.000000
    3      -62.684986   1.000000
    4      -62.681813   1.000000
    5      -62.679466   1.000000
    6      -62.653500   1.000000
    7      -62.653119   1.000000
    8      -62.652912   1.000000
    9      -62.639027   1.000000
   10      -62.636556   1.000000
   11      -62.626989   1.000000
   12      -62.625078   1.000000
   13       -0.237032   1.000000
   14        1.295232   1.000000
   15        2.924477   1.000000
   16        2.928680   1.000000
   17        3.218600   1.000000
   18        3.297860   1.000000
   19        3.329146   1.000000
   20        3.590479   1.000000
   21        3.917130   1.000000
   22        3.956144   1.000000
   23        4.453735   1.000000
   24        4.523221   1.000000
   25        4.661743   1.000000
   26        4.768208   1.000000
   27        5.037622   1.000000
   28        5.041297   1.000000
   29        5.061943   1.000000
   30        5.157337   1.000000
   31        5.258180   1.000000
   32        5.454375   1.000000
   33        5.738709   1.000000
   34        5.740279   1.000000
   35       11.678141  -0.000000
   36       12.543673  -0.000000
   37       13.591721   0.000000
   38       14.953865   0.000000
   39       15.612296   0.000000
   40       16.318461   0.000000

 -0.3333333E+00  0.8333333E-01  0.1262379E-14  0.2314815E-02
    1      -62.707648   1.000000
    2      -62.705568   1.000000
    3      -62.697840   1.000000
    4      -62.674386   1.000000
    5      -62.671407   1.000000
    6      -62.653187   1.000000
    7      -62.652988   1.000000
    8      -62.644684   1.000000
    9      -62.642412   1.000000
   10      -62.640155   1.000000
   11      -62.621278   1.000000
   12      -62.619359   1.000000
   13       -0.932273   1.000000
   14        1.851008   1.000000
   15        2.746304   1.000000
   16        2.757871   1.000000
   17        3.047981   1.000000
   18        3.083324   1.000000
   19        3.099717   1.000000
   20        3.765194   1.000000
   21        4.301164   1.000000
   22        4.339995   1.000000
   23        4.422272   1.000000
   24        4.492469   1.000000
   25        4.752377   1.000000
   26        4.805935   1.000000
   27        5.173929   1.000000
   28        5.178548   1.000000
   29        5.188657   1.000000
   30        5.275909   1.000000
   31        5.391633   1.000000
   32        5.687471   1.000000
   33        5.739197   1.000000
   34        5.739644   1.000000
   35       10.710433  -0.000000
   36       11.485909  -0.000000
   37       14.668433   0.000000
   38       15.320206   0.000000
   39       15.953199   0.000000
   40       16.258144   0.000000

 -0.2500000E+00  0.8333333E-01  0.1262379E-14  0.2314815E-02
    1      -62.713764   1.000000
    2      -62.712405   1.000000
    3      -62.709379   1.000000
    4      -62.667980   1.000000
    5      -62.664362   1.000000
    6      -62.653846   1.000000
    7      -62.653189   1.000000
    8      -62.649986   1.000000
    9      -62.647777   1.000000
   10      -62.628564   1.000000
   11      -62.616469   1.000000
   12      -62.614539   1.000000
   13       -1.501594   1.000000
   14        2.130500   1.000000
   15        2.538754   1.000000
   16        2.559525   1.000000
   17        2.903626   1.000000
   18        2.916328   1.000000
   19        2.923758   1.000000
   20        3.914549   1.000000
   21        4.325959   1.000000
   22        4.357413   1.000000
   23        4.726851   1.000000
   24        4.756337   1.000000
   25        4.843564   1.000000
   26        5.110829   1.000000
   27        5.153288   1.000000
   28        5.330716   1.000000
   29        5.354452   1.000000
   30        5.472669   1.000000
   31        5.515035   1.000000
   32        5.739659   1.000000
   33        5.739811   1.000000
   34        6.345959   1.000000
   35        9.823163  -0.000000
   36       10.540546  -0.000000
   37       14.908096   0.000000
   38       15.644674   0.000000
   39       16.060101   0.000000
   40       17.613396   0.000000

 -0.1666667E+00  0.8333333E-01  0.1262379E-14  0.2314815E-02
    1      -62.718685   1.000000
    2      -62.718034   1.000000
    3      -62.716945   1.000000
    4      -62.662871   1.000000
    5      -62.658956   1.000000
    6      -62.654360   1.000000
    7      -62.653624   1.000000
    8      -62.653529   1.000000
    9      -62.651869   1.000000
   10      -62.619426   1.000000
   11      -62.612953   1.000000
   12      -62.611571   1.000000
   13       -1.920051   1.000000
   14        2.220958   1.000000
   15        2.357204   1.000000
   16        2.387601   1.000000
   17        2.794336   1.000000
   18        2.796755   1.000000
   19        2.799846   1.000000
   20        4.025198   1.000000
   21        4.241517   1.000000
   22        4.263036   1.000000
   23        4.938172   1.000000
   24        5.059099   1.000000
   25        5.164070   1.000000
   26        5.170086   1.000000
   27        5.385165   1.000000
   28        5.463367   1.000000
   29        5.497384   1.000000
   30        5.583491   1.000000
   31        5.634067   1.000000
   32        5.740335   1.000000
   33        5.741924   1.000000
   34        7.387032   0.136501
   35        9.046011  -0.000000
   36        9.743930  -0.000000
   37       14.765216   0.000000
   38       15.439304   0.000000
   39       16.945244   0.000000
   40       17.352780   0.000000

 -0.8333333E-01  0.8333333E-01  0.1262379E-14  0.1157407E-02
    1      -62.721435   1.000000
    2      -62.721435   1.000000
    3      -62.721265   1.000000
    4      -62.659057   1.000000
    5      -62.655555   1.000000
    6      -62.655555   1.000000
    7      -62.654396   1.000000
    8      -62.654396   1.000000
    9      -62.654073   1.000000
   10      -62.613772   1.000000
   11      -62.611216   1.000000
   12      -62.610364   1.000000
   13       -2.174631   1.000000
   14        2.235957   1.000000
   15        2.235957   1.000000
   16        2.273715   1.000000
   17        2.725848   1.000000
   18        2.726448   1.000000
   19        2.726448   1.000000
   20        4.086742   1.000000
   21        4.189185   1.000000
   22        4.213111   1.000000
   23        4.996500   1.000000
   24        5.031471   1.000000
   25        5.500553   1.000000
   26        5.516237   1.000000
   27        5.516237   1.000000
   28        5.548419   1.000000
   29        5.620880   1.000000
   30        5.620880   1.000000
   31        5.740849   1.000000
   32        5.740849   1.000000
   33        5.754114   1.000000
   34        8.453318  -0.000000
   35        8.453318  -0.000000
   36        9.172794  -0.000000
   37       14.675545   0.000000
   38       15.327367   0.000000
   39       15.327367   0.000000
   40       18.698388   0.000000

  0.1666667E+00  0.1666667E+00  0.1262379E-14  0.1157407E-02
    1      -62.714714   1.000000
    2      -62.712552   1.000000
    3      -62.712552   1.000000
    4      -62.669195   1.000000
    5      -62.657111   1.000000
    6      -62.657111   1.000000
    7      -62.652173   1.000000
    8      -62.652173   1.000000
    9      -62.651358   1.000000
   10      -62.629196   1.000000
   11      -62.615509   1.000000
   12      -62.610751   1.000000
   13       -1.656293   1.000000
   14        2.347241   1.000000
   15        2.347241   1.000000
   16        2.503461   1.000000
   17        2.867135   1.000000
   18        2.867135   1.000000
   19        2.870758   1.000000
   20        4.021590   1.000000
   21        4.251415   1.000000
   22        4.300295   1.000000
   23        4.905901   1.000000
   24        4.937695   1.000000
   25        4.978751   1.000000
   26        4.978751   1.000000
   27        5.057694   1.000000
   28        5.373270   1.000000
   29        5.482729   1.000000
   30        5.482729   1.000000
   31        5.635925   1.000000
   32        5.635925   1.000000
   33        5.684952   1.000000
   34        7.913867  -0.000046
   35        7.913867  -0.000046
   36       10.270912  -0.000000
   37       14.836576   0.000000
   38       16.250759   0.000000
   39       17.167815   0.000000
   40       17.167815   0.000000

  0.2500000E+00  0.1666667E+00  0.1262379E-14  0.2314815E-02
    1      -62.708872   1.000000
    2      -62.708456   1.000000
    3      -62.705561   1.000000
    4      -62.674678   1.000000
    5      -62.662360   1.000000
    6      -62.653274   1.000000
    7      -62.651318   1.000000
    8      -62.649246   1.000000
    9      -62.648030   1.000000
   10      -62.639352   1.000000
   11      -62.618961   1.000000
   12      -62.612423   1.000000
   13       -1.239066   1.000000
   14        2.267671   1.000000
   15        2.542370   1.000000
   16        2.667483   1.000000
   17        2.970330   1.000000
   18        2.979641   1.000000
   19        2.985525   1.000000
   20        3.919941   1.000000
   21        4.341791   1.000000
   22        4.357487   1.000000
   23        4.537987   1.000000
   24        4.616168   1.000000
   25        4.709276   1.000000
   26        4.834110   1.000000
   27        5.116444   1.000000
   28        5.251162   1.000000
   29        5.352146   1.000000
   30        5.435627   1.000000
   31        5.475705   1.000000
   32        5.635537   1.000000
   33        5.651387   1.000000
   34        6.870555   1.005826
   35        8.591230  -0.000000
   36       11.012479  -0.000000
   37       14.566913   0.000000
   38       15.292171   0.000000
   39       17.459111   0.000000
   40       17.888516   0.000000

  0.3333333E+00  0.1666667E+00  0.1262379E-14  0.2314815E-02
    1      -62.703377   1.000000
    2      -62.702014   1.000000
    3      -62.695508   1.000000
    4      -62.681654   1.000000
    5      -62.669076   1.000000
    6      -62.651005   1.000000
    7      -62.650366   1.000000
    8      -62.648070   1.000000
    9      -62.647955   1.000000
   10      -62.642184   1.000000
   11      -62.623875   1.000000
   12      -62.616192   1.000000
   13       -0.674834   1.000000
   14        1.999750   1.000000
   15        2.769782   1.000000
   16        2.860110   1.000000
   17        3.105355   1.000000
   18        3.120277   1.000000
   19        3.152262   1.000000
   20        3.777045   1.000000
   21        4.128722   1.000000
   22        4.263522   1.000000
   23        4.397698   1.000000
   24        4.428455   1.000000
   25        4.478057   1.000000
   26        4.774760   1.000000
   27        5.108655   1.000000
   28        5.195535   1.000000
   29        5.212043   1.000000
   30        5.280787   1.000000
   31        5.332301   1.000000
   32        5.634932   1.000000
   33        5.635854   1.000000
   34        6.124369   1.000000
   35        9.342930  -0.000000
   36       11.916107  -0.000000
   37       13.414927   0.000000
   38       15.440059   0.000000
   39       16.535750   0.000000
   40       17.653273   0.000000

  0.4166667E+00  0.1666667E+00  0.1262379E-14  0.2314815E-02
    1      -62.697500   1.000000
    2      -62.694012   1.000000
    3      -62.688905   1.000000
    4      -62.684390   1.000000
    5      -62.677238   1.000000
    6      -62.663584   1.000000
    7      -62.649697   1.000000
    8      -62.647567   1.000000
    9      -62.642196   1.000000
   10      -62.635743   1.000000
   11      -62.629533   1.000000
   12      -62.621188   1.000000
   13        0.010236   1.000000
   14        1.457225   1.000000
   15        2.974592   1.000000
   16        3.036439   1.000000
   17        3.263225   1.000000
   18        3.282510   1.000000
   19        3.367743   1.000000
   20        3.610334   1.000000
   21        3.768485   1.000000