   1   1   1   0
  0.1658294E+02  0.2862368E-09  0.2862368E-09  0.2862368E-09  0.5000000E-15
   1.0000000000000000E-004
  CAR 
 unknown system                          
    116.92776605     -8.87107843  301      8.00250969      1.00000000
     -8.871  0.0000E+00  0.0000E+00  0.0000E+00  0.0000E+00
     -8.452  0.0000E+00  0.0000E+00  0.0000E+00  0.0000E+00
     -8.032  0.0000E+00  0.0000E+00  0.0000E+00  0.0000E+00
     -7.613  0.0000E+00  0.0000E+00  0.0000E+00  0.0000E+00
     -7.194  0.0000E+00  0.0000E+00  0.0000E+00  0.0000E+00
     -6.774  0.0000E+00  0.0000E+00  0.0000E+00  0.0000E+00
     -6.355  0.0000E+00  0.0000E+00  0.0000E+00  0.0000E+00
     -5.936  0.0000E+00  0.0000E+00  0.0000E+00  0.0000E+00
     -5.516  0.0000E+00  0.0000E+00  0.0000E+00  0.0000E+00
     -5.097  0.0000E+00  0.0000E+00  0.0000E+00  0.0000E+00
     -4.678  0.0000E+00  0.0000E+00  0.0000E+00  0.0000E+00
     -4.258  0.0000E+00  0.0000E+00  0.0000E+00  0.0000E+00
     -3.839  0.0000E+00  0.0000E+00  0.0000E+00  0.0000E+00
     -3.420  0.0000E+00  0.0000E+00  0.0000E+00  0.0000E+00
     -3.000  0.1369E-01  0.1402E-01  0.6872E-03  0.7127E-03
     -2.581  0.4140E-01  0.4152E-01  0.1336E-01  0.1343E-01
     -2.162  0.5472E-01  0.5478E-01  0.3394E-01  0.3404E-01
     -1.742  0.6951E-01  0.6958E-01  0.5993E-01  0.6006E-01
     -1.323  0.7714E-01  0.7718E-01  0.9053E-01  0.9068E-01
     -0.904  0.8732E-01  0.8737E-01  0.1249E+00  0.1251E+00
     -0.484  0.9531E-01  0.9534E-01  0.1635E+00  0.1637E+00
     -0.065  0.1027E+00  0.1027E+00  0.2050E+00  0.2052E+00
      0.354  0.1108E+00  0.1108E+00  0.2497E+00  0.2499E+00
      0.773  0.1181E+00  0.1181E+00  0.2978E+00  0.2981E+00
      1.193  0.1239E+00  0.1240E+00  0.3486E+00  0.3488E+00
      1.612  0.1307E+00  0.1308E+00  0.4020E+00  0.4022E+00
      2.031  0.1382E+00  0.1383E+00  0.4583E+00  0.4585E+00
      2.451  0.1500E+00  0.1501E+00  0.5184E+00  0.5187E+00
      2.870  0.1634E+00  0.1634E+00  0.5843E+00  0.5846E+00
      3.289  0.1711E+00  0.1710E+00  0.6601E+00  0.6604E+00
      3.709  0.1472E+00  0.1472E+00  0.7248E+00  0.7251E+00
      4.128  0.1573E+00  0.1573E+00  0.7883E+00  0.7886E+00
      4.547  0.1896E+00  0.1895E+00  0.8589E+00  0.8592E+00
      4.967  0.1880E+00  0.1881E+00  0.9360E+00  0.9363E+00
      5.386  0.1817E+00  0.1817E+00  0.1017E+01  0.1017E+01
      5.805  0.1506E+00  0.1505E+00  0.1089E+01  0.1089E+01
      6.225  0.1432E+00  0.1433E+00  0.1148E+01  0.1148E+01
      6.644  0.2124E+00  0.2126E+00  0.1232E+01  0.1232E+01
      7.063  0.2098E+00  0.2099E+00  0.1323E+01  0.1324E+01
      7.483  0.1922E+00  0.1921E+00  0.1406E+01  0.1406E+01
      7.902  0.1708E+00  0.1707E+00  0.1483E+01  0.1483E+01
      8.321  0.1999E+00  0.2001E+00  0.1556E+01  0.1556E+01
      8.741  0.2498E+00  0.2499E+00  0.1654E+01  0.1654E+01
      9.160  0.2050E+00  0.2049E+00  0.1746E+01  0.1746E+01
      9.579  0.2118E+00  0.2118E+00  0.1833E+01  0.1833E+01
      9.999  0.2008E+00  0.2008E+00  0.1920E+01  0.1920E+01
     10.418  0.2338E+00  0.2338E+00  0.2016E+01  0.2017E+01
     10.837  0.2427E+00  0.2428E+00  0.2113E+01  0.2113E+01
     11.257  0.2396E+00  0.2396E+00  0.2217E+01  0.2217E+01
     11.676  0.2338E+00  0.2338E+00  0.2316E+01  0.2316E+01
     12.095  0.2410E+00  0.2411E+00  0.2416E+01  0.2416E+01
     12.515  0.2635E+00  0.2635E+00  0.2524E+01  0.2525E+01
     12.934  0.2795E+00  0.2796E+00  0.2637E+01  0.2638E+01
     13.353  0.2920E+00  0.2922E+00  0.2757E+01  0.2757E+01
     13.773  0.3035E+00  0.3037E+00  0.2883E+01  0.2884E+01
     14.192  0.2820E+00  0.2820E+00  0.3006E+01  0.3007E+01
     14.611  0.2746E+00  0.2746E+00  0.3123E+01  0.3123E+01
     15.031  0.2669E+00  0.2668E+00  0.3236E+01  0.3237E+01
     15.450  0.2608E+00  0.2607E+00  0.3347E+01  0.3347E+01
     15.869  0.2669E+00  0.2670E+00  0.3457E+01  0.3457E+01
     16.289  0.2635E+00  0.2634E+00  0.3569E+01  0.3569E+01
     16.708  0.2579E+00  0.2579E+00  0.3678E+01  0.3678E+01
     17.127  0.2565E+00  0.2565E+00  0.3785E+01  0.3786E+01
     17.547  0.2666E+00  0.2667E+00  0.3895E+01  0.3895E+01
     17.966  0.2778E+00  0.2779E+00  0.4009E+01  0.4010E+01
     18.385  0.2911E+00  0.2913E+00  0.4128E+01  0.4129E+01
     18.805  0.3106E+00  0.3106E+00  0.4256E+01  0.4256E+01
     19.224  0.3337E+00  0.3341E+00  0.4388E+01  0.4389E+01
     19.643  0.3890E+00  0.3889E+00  0.4541E+01  0.4543E+01
     20.063  0.3919E+00  0.3919E+00  0.4705E+01  0.4706E+01
     20.482  0.3422E+00  0.3412E+00  0.4870E+01  0.4871E+01
     20.901  0.2633E+00  0.2634E+00  0.4991E+01  0.4991E+01
     21.321  0.3085E+00  0.3129E+00  0.5099E+01  0.5100E+01
     21.740  0.2681E+00  0.2682E+00  0.5217E+01  0.5218E+01
     22.159  0.2540E+00  0.2543E+00  0.5325E+01  0.5325E+01
     22.579  0.3798E+00  0.3800E+00  0.5460E+01  0.5461E+01
     22.998  0.4316E+00  0.4318E+00  0.5631E+01  0.5632E+01
     23.417  0.3270E+00  0.3256E+00  0.5792E+01  0.5794E+01
     23.837  0.2891E+00  0.2900E+00  0.5913E+01  0.5914E+01
     24.256  0.3056E+00  0.3055E+00  0.6043E+01  0.6044E+01
     24.675  0.3007E+00  0.2987E+00  0.6168E+01  0.6170E+01
     25.095  0.3673E+00  0.3663E+00  0.6305E+01  0.6306E+01
     25.514  0.4554E+00  0.4555E+00  0.6479E+01  0.6481E+01
     25.933  0.4228E+00  0.4223E+00  0.6665E+01  0.6667E+01
     26.353  0.3997E+00  0.4000E+00  0.6834E+01  0.6836E+01
     26.772  0.3355E+00  0.3351E+00  0.6994E+01  0.6995E+01
     27.191  0.3204E+00  0.3201E+00  0.7133E+01  0.7134E+01
     27.611  0.2922E+00  0.2918E+00  0.7263E+01  0.7264E+01
     28.030  0.2908E+00  0.2912E+00  0.7383E+01  0.7384E+01
     28.449  0.4312E+00  0.4357E+00  0.7529E+01  0.7530E+01
     28.869  0.4168E+00  0.4132E+00  0.7732E+01  0.7734E+01
     29.288  0.5104E+00  0.5093E+00  0.7913E+01  0.7915E+01
     29.707  0.4235E+00  0.4234E+00  0.8100E+01  0.8102E+01
     30.127  0.4078E+00  0.4076E+00  0.8276E+01  0.8277E+01
     30.546  0.3510E+00  0.3507E+00  0.8434E+01  0.8436E+01
     30.965  0.3504E+00  0.3508E+00  0.8578E+01  0.8580E+01
     31.385  0.3988E+00  0.3989E+00  0.8735E+01  0.8737E+01
     31.804  0.4148E+00  0.4156E+00  0.8903E+01  0.8905E+01
     32.223  0.5476E+00  0.5460E+00  0.9130E+01  0.9132E+01
     32.643  0.4017E+00  0.4012E+00  0.9313E+01  0.9315E+01
     33.062  0.3615E+00  0.3593E+00  0.9478E+01  0.9480E+01
     33.481  0.3132E+00  0.3125E+00  0.9618E+01  0.9619E+01
     33.901  0.2557E+00  0.2553E+00  0.9735E+01  0.9736E+01
     34.320  0.2924E+00  0.2919E+00  0.9846E+01  0.9848E+01
     34.739  0.1857E+00  0.1855E+00  0.9942E+01  0.9943E+01
     35.159  0.1679E+00  0.1678E+00  0.1001E+02  0.1002E+02
     35.578  0.1712E+00  0.1713E+00  0.1009E+02  0.1009E+02
     35.997  0.1923E+00  0.1925E+00  0.1016E+02  0.1016E+02
     36.417  0.2432E+00  0.2436E+00  0.1025E+02  0.1025E+02
     36.836  0.2451E+00  0.2451E+00  0.1035E+02  0.1035E+02
     37.255  0.2635E+00  0.2635E+00  0.1046E+02  0.1046E+02
     37.674  0.2894E+00  0.2895E+00  0.1057E+02  0.1057E+02
     38.094  0.3996E+00  0.3997E+00  0.1072E+02  0.1072E+02
     38.513  0.3950E+00  0.3949E+00  0.1087E+02  0.1087E+02
     38.932  0.3142E+00  0.3139E+00  0.1102E+02  0.1102E+02
     39.352  0.3763E+00  0.3767E+00  0.1115E+02  0.1115E+02
     39.771  0.5304E+00  0.5315E+00  0.1134E+02  0.1134E+02
     40.190  0.4972E+00  0.4971E+00  0.1156E+02  0.1156E+02
     40.610  0.4284E+00  0.4284E+00  0.1175E+02  0.1175E+02
     41.029  0.4520E+00  0.4524E+00  0.1193E+02  0.1193E+02
     41.448  0.6311E+00  0.6381E+00  0.1215E+02  0.1215E+02
     41.868  0.5087E+00  0.5087E+00  0.1237E+02  0.1237E+02
     42.287  0.5196E+00  0.5191E+00  0.1259E+02  0.1259E+02
     42.706  0.4551E+00  0.4583E+00  0.1277E+02  0.1277E+02
     43.126  0.4427E+00  0.4420E+00  0.1299E+02  0.1299E+02
     43.545  0.4291E+00  0.4300E+00  0.1316E+02  0.1316E+02
     43.964  0.5051E+00  0.5054E+00  0.1336E+02  0.1337E+02
     44.384  0.4362E+00  0.4358E+00  0.1356E+02  0.1356E+02
     44.803  0.3932E+00  0.3928E+00  0.1374E+02  0.1374E+02
     45.222  0.3863E+00  0.3867E+00  0.1389E+02  0.1390E+02
     45.642  0.4999E+00  0.5003E+00  0.1408E+02  0.1408E+02
     46.061  0.5750E+00  0.5750E+00  0.1431E+02  0.1431E+02
     46.480  0.5459E+00  0.5456E+00  0.1454E+02  0.1454E+02
     46.900  0.4389E+00  0.4385E+00  0.1475E+02  0.1475E+02
     47.319  0.4221E+00  0.4227E+00  0.1493E+02  0.1493E+02
     47.738  0.4573E+00  0.4568E+00  0.1512E+02  0.1512E+02
     48.158  0.4620E+00  0.4623E+00  0.1531E+02  0.1531E+02
     48.577  0.5487E+00  0.5493E+00  0.1552E+02  0.1552E+02
     48.996  0.4612E+00  0.4608E+00  0.1574E+02  0.1574E+02
     49.416  0.4009E+00  0.4027E+00  0.1591E+02  0.1591E+02
     49.835  0.6578E+00  0.6648E+00  0.1612E+02  0.1612E+02
     50.254  0.3154E+00  0.3155E+00  0.1627E+02  0.1627E+02
     50.674  0.3845E+00  0.3851E+00  0.1641E+02  0.1641E+02
     51.093  0.5423E+00  0.5433E+00  0.1660E+02  0.1660E+02
     51.512  0.6498E+00  0.6499E+00  0.1685E+02  0.1685E+02
     51.932  0.4560E+00  0.4565E+00  0.1709E+02  0.1709E+02
     52.351  0.3954E+00  0.3957E+00  0.1725E+02  0.1725E+02
     52.770  0.4783E+00  0.4787E+00  0.1744E+02  0.1744E+02
     53.190  0.7253E+00  0.7251E+00  0.1771E+02  0.1771E+02
     53.609  0.9769E+00  0.9773E+00  0.1804E+02  0.1805E+02
     54.028  0.9221E+00  0.9208E+00  0.1849E+02  0.1849E+02
     54.448  0.9076E+00  0.9071E+00  0.1883E+02  0.1883E+02
     54.867  0.1058E+01  0.1059E+01  0.1921E+02  0.1921E+02
     55.286  0.9370E+00  0.9370E+00  0.1965E+02  0.1965E+02
     55.706  0.9943E+00  0.9950E+00  0.2005E+02  0.2005E+02
     56.125  0.1754E+01  0.1754E+01  0.2059E+02  0.2059E+02
     56.544  0.1080E+01  0.1080E+01  0.2120E+02  0.2120E+02
     56.964  0.1255E+01  0.1250E+01  0.2167E+02  0.2167E+02
     57.383  0.9134E+00  0.9168E+00  0.2204E+02  0.2204E+02
     57.802  0.7388E+00  0.7376E+00  0.2241E+02  0.2241E+02
     58.222  0.6454E+00  0.6454E+00  0.2267E+02  0.2267E+02
     58.641  0.6745E+00  0.6755E+00  0.2292E+02  0.2293E+02
     59.060  0.9254E+00  0.9263E+00  0.2326E+02  0.2326E+02
     59.480  0.8697E+00  0.8682E+00  0.2363E+02  0.2364E+02
     59.899  0.6462E+00  0.6573E+00  0.2393E+02  0.2393E+02
     60.318  0.4751E+00  0.4752E+00  0.2414E+02  0.2414E+02
     60.738  0.5367E+00  0.5370E+00  0.2435E+02  0.2435E+02
     61.157  0.6224E+00  0.6223E+00  0.2459E+02  0.2459E+02
     61.576  0.7023E+00  0.7026E+00  0.2487E+02  0.2487E+02
     61.996  0.5724E+00  0.5716E+00  0.2516E+02  0.2516E+02
     62.415  0.4772E+00  0.4770E+00  0.2537E+02  0.2537E+02
     62.834  0.5503E+00  0.5502E+00  0.2557E+02  0.2558E+02
     63.254  0.5548E+00  0.5544E+00  0.2581E+02  0.2581E+02
     63.673  0.5256E+00  0.5252E+00  0.2604E+02  0.2604E+02
     64.092  0.4868E+00  0.4869E+00  0.2625E+02  0.2625E+02
     64.512  0.5469E+00  0.5475E+00  0.2647E+02  0.2647E+02
     64.931  0.5760E+00  0.5755E+00  0.2672E+02  0.2672E+02
     65.350  0.4450E+00  0.4447E+00  0.2693E+02  0.2693E+02
     65.770  0.4688E+00  0.4689E+00  0.2711E+02  0.2712E+02
     66.189  0.5046E+00  0.5045E+00  0.2732E+02  0.2732E+02
     66.608  0.4767E+00  0.4765E+00  0.2753E+02  0.2753E+02
     67.028  0.3830E+00  0.3830E+00  0.2770E+02  0.2770E+02
     67.447  0.3897E+00  0.3898E+00  0.2786E+02  0.2786E+02
     67.866  0.3908E+00  0.3908E+00  0.2803E+02  0.2803E+02
     68.286  0.4315E+00  0.4317E+00  0.2820E+02  0.2820E+02
     68.705  0.5807E+00  0.5805E+00  0.2841E+02  0.2841E+02
     69.124  0.5307E+00  0.5303E+00  0.2864E+02  0.2864E+02
     69.544  0.4929E+00  0.4925E+00  0.2885E+02  0.2885E+02
     69.963  0.4738E+00  0.4737E+00  0.2905E+02  0.2905E+02
     70.382  0.5361E+00  0.5359E+00  0.2926E+02  0.2926E+02
     70.802  0.4999E+00  0.5000E+00  0.2947E+02  0.2947E+02
     71.221  0.5230E+00  0.5233E+00  0.2968E+02  0.2968E+02
     71.640  0.5301E+00  0.5302E+00  0.2991E+02  0.2991E+02
     72.060  0.5178E+00  0.5176E+00  0.3012E+02  0.3012E+02
     72.479  0.4680E+00  0.4675E+00  0.3033E+02  0.3033E+02
     72.898  0.4173E+00  0.4170E+00  0.3052E+02  0.3052E+02
     73.317  0.3663E+00  0.3661E+00  0.3069E+02  0.3069E+02
     73.737  0.4270E+00  0.4267E+00  0.3086E+02  0.3086E+02
     74.156  0.3929E+00  0.3930E+00  0.3103E+02  0.3103E+02
     74.575  0.3979E+00  0.3982E+00  0.3119E+02  0.3119E+02
     74.995  0.5235E+00  0.5229E+00  0.3141E+02  0.3141E+02
     75.414  0.4634E+00  0.4635E+00  0.3160E+02  0.3160E+02
     75.833  0.4781E+00  0.4784E+00  0.3180E+02  0.3180E+02
     76.253  0.7284E+00  0.7276E+00  0.3204E+02  0.3204E+02
     76.672  0.5450E+00  0.5526E+00  0.3229E+02  0.3229E+02
     77.091  0.4697E+00  0.4618E+00  0.3251E+02  0.3251E+02
     77.511  0.4355E+00  0.4356E+00  0.3269E+02  0.3269E+02
     77.930  0.6480E+00  0.6495E+00  0.3291E+02  0.3291E+02
     78.349  0.6731E+00  0.6724E+00  0.3319E+02  0.3319E+02
     78.769  0.5550E+00  0.5543E+00  0.3343E+02  0.3343E+02
     79.188  0.5080E+00  0.5059E+00  0.3367E+02  0.3367E+02
     79.607  0.4536E+00  0.4540E+00  0.3386E+02  0.3386E+02
     80.027  0.4877E+00  0.4869E+00  0.3406E+02  0.3407E+02
     80.446  0.5017E+00  0.5023E+00  0.3426E+02  0.3426E+02
     80.865  0.5720E+00  0.5721E+00  0.3448E+02  0.3448E+02
     81.285  0.6206E+00  0.6209E+00  0.3473E+02  0.3473E+02
     81.704  0.6642E+00  0.6633E+00  0.3501E+02  0.3501E+02
     82.123  0.6289E+00  0.6277E+00  0.3528E+02  0.3528E+02
     82.543  0.5461E+00  0.5461E+00  0.3552E+02  0.3553E+02
     82.962  0.5027E+00  0.5028E+00  0.3575E+02  0.3575E+02
     83.381  0.6664E+00  0.6670E+00  0.3598E+02  0.3598E+02
     83.801  0.6537E+00  0.6537E+00  0.3624E+02  0.3624E+02
     84.220  0.5968E+00  0.5966E+00  0.3652E+02  0.3652E+02
     84.639  0.4953E+00  0.4949E+00  0.3674E+02  0.3675E+02
     85.059  0.3785E+00  0.3781E+00  0.3693E+02  0.3693E+02
     85.478  0.3918E+00  0.3920E+00  0.3709E+02  0.3709E+02
     85.897  0.4659E+00  0.4662E+00  0.3727E+02  0.3727E+02
     86.317  0.4782E+00  0.4784E+00  0.3747E+02  0.3747E+02
     86.736  0.4709E+00  0.4711E+00  0.3766E+02  0.3766E+02
     87.155  0.5650E+00  0.5656E+00  0.3787E+02  0.3787E+02
     87.575  0.5725E+00  0.5720E+00  0.3811E+02  0.3812E+02
     87.994  0.5935E+00  0.5930E+00  0.3836E+02  0.3836E+02
     88.413  0.7287E+00  0.7311E+00  0.3863E+02  0.3863E+02
     88.833  0.7401E+00  0.7386E+00  0.3896E+02  0.3896E+02
     89.252  0.5135E+00  0.5136E+00  0.3920E+02  0.3920E+02
     89.671  0.5859E+00  0.5861E+00  0.3943E+02  0.3943E+02
     90.091  0.6834E+00  0.6732E+00  0.3970E+02  0.3970E+02
     90.510  0.5018E+00  0.5013E+00  0.3995E+02  0.3995E+02
     90.929  0.5174E+00  0.5169E+00  0.4015E+02  0.4015E+02
     91.349  0.4565E+00  0.4566E+00  0.4035E+02  0.4035E+02
     91.768  0.5110E+00  0.5112E+00  0.4055E+02  0.4055E+02
     92.187  0.5267E+00  0.5274E+00  0.4076E+02  0.4076E+02
     92.607  0.6217E+00  0.6218E+00  0.4101E+02  0.4101E+02
     93.026  0.5362E+00  0.5356E+00  0.4126E+02  0.4126E+02
     93.445  0.4022E+00  0.4019E+00  0.4144E+02  0.4144E+02
     93.865  0.4236E+00  0.4239E+00  0.4161E+02  0.4161E+02
     94.284  0.6520E+00  0.6534E+00  0.4183E+02  0.4183E+02
     94.703  0.6723E+00  0.6720E+00  0.4212E+02  0.4212E+02
     95.123  0.6011E+00  0.6010E+00  0.4238E+02  0.4238E+02
     95.542  0.6192E+00  0.6193E+00  0.4264E+02  0.4264E+02
     95.961  0.7323E+00  0.7319E+00  0.4291E+02  0.4291E+02
     96.381  0.7187E+00  0.7190E+00  0.4322E+02  0.4322E+02
     96.800  0.6176E+00  0.6175E+00  0.4350E+02  0.4350E+02
     97.219  0.5999E+00  0.6008E+00  0.4375E+02  0.4375E+02
     97.639  0.5912E+00  0.5910E+00  0.4401E+02  0.4401E+02
     98.058  0.4357E+00  0.4356E+00  0.4422E+02  0.4422E+02
     98.477  0.4297E+00  0.4296E+00  0.4441E+02  0.4441E+02
     98.897  0.4217E+00  0.4218E+00  0.4458E+02  0.4458E+02
     99.316  0.5408E+00  0.5407E+00  0.4480E+02  0.4480E+02
     99.735  0.6371E+00  0.6376E+00  0.4503E+02  0.4504E+02
    100.155  0.6529E+00  0.6528E+00  0.4531E+02  0.4531E+02
    100.574  0.6600E+00  0.6599E+00  0.4559E+02  0.4559E+02
    100.993  0.5682E+00  0.5672E+00  0.4586E+02  0.4586E+02
    101.413  0.5117E+00  0.5116E+00  0.4608E+02  0.4608E+02
    101.832  0.5103E+00  0.5104E+00  0.4629E+02  0.4629E+02
    102.251  0.4792E+00  0.4790E+00  0.4650E+02  0.4650E+02
    102.671  0.5356E+00  0.5358E+00  0.4672E+02  0.4672E+02
    103.090  0.4911E+00  0.4916E+00  0.4693E+02  0.4693E+02
    103.509  0.4514E+00  0.4509E+00  0.4714E+02  0.4714E+02
    103.929  0.3722E+00  0.3722E+00  0.4730E+02  0.4730E+02
    104.348  0.4233E+00  0.4237E+00  0.4747E+02  0.4747E+02
    104.767  0.3806E+00  0.3804E+00  0.4764E+02  0.4764E+02
    105.187  0.3043E+00  0.3089E+00  0.4778E+02  0.4779E+02
    105.606  0.2062E+00  0.2058E+00  0.4789E+02  0.4789E+02
    106.025  0.6892E-01  0.6829E-01  0.4795E+02  0.4795E+02
    106.445  0.3593E-01  0.3587E-01  0.4797E+02  0.4797E+02
    106.864  0.1445E-01  0.1444E-01  0.4798E+02  0.4798E+02
    107.283  0.1132E-01  0.1130E-01  0.4798E+02  0.4798E+02
    107.703  0.8730E-02  0.8716E-02  0.4799E+02  0.4799E+02
    108.122  0.6686E-02  0.6675E-02  0.4799E+02  0.4799E+02
    108.541  0.5188E-02  0.5180E-02  0.4799E+02  0.4799E+02
    108.961  0.4169E-02  0.4162E-02  0.4800E+02  0.4800E+02
    109.380  0.3264E-02  0.3257E-02  0.4800E+02  0.4800E+02
    109.799  0.2417E-02  0.2410E-02  0.4800E+02  0.4800E+02
    110.218  0.1629E-02  0.1622E-02  0.4800E+02  0.4800E+02
    110.638  0.9001E-03  0.8934E-03  0.4800E+02  0.4800E+02
    111.057  0.2294E-03  0.2231E-03  0.4800E+02  0.4800E+02
    111.476  0.0000E+00  0.0000E+00  0.4800E+02  0.4800E+02
    111.896  0.0000E+00  0.0000E+00  0.4800E+02  0.4800E+02
    112.315  0.0000E+00  0.0000E+00  0.4800E+02  0.4800E+02
    112.734  0.0000E+00  0.0000E+00  0.4800E+02  0.4800E+02
    113.154  0.0000E+00  0.0000E+00  0.4800E+02  0.4800E+02
    113.573  0.0000E+00  0.0000E+00  0.4800E+02  0.4800E+02
    113.992  0.0000E+00  0.0000E+00  0.4800E+02  0.4800E+02
    114.412  0.0000E+00  0.0000E+00  0.4800E+02  0.4800E+02
    114.831  0.0000E+00  0.0000E+00  0.4800E+02  0.4800E+02
    115.250  0.0000E+00  0.0000E+00  0.4800E+02  0.4800E+02
    115.670  0.0000E+00  0.0000E+00  0.4800E+02  0.4800E+02
    116.089  0.0000E+00  0.0000E+00  0.4800E+02  0.4800E+02
    116.508  0.0000E+00  0.0000E+00  0.4800E+02  0.4800E+02
    116.928  0.0000E+00  0.0000E+00  0.4800E+02  0.4800E+02
    116.92776605     -8.87107843  301      8.00250969      1.00000000
     -8.871  0.0000E+00  0.0000E+00  0.0000E+00  0.0000E+00  0.0000E+00  0.0000E+00  0.0000E+00  0.0000E+00  0.0000E+00  0.0000E+00  0.0000E+00  0.0000E+00  0.0000E+00  0.0000E+00  0.0000E+00  0.0000E+00  0.0000E+00  0.0000E+00
     -8.452  0.0000E+00  0.0000E+00  0.0000E+00  0.0000E+00  0.0000E+00  0.0000E+00  0.0000E+00  0.0000E+00  0.0000E+00  0.0000E+00  0.0000E+00  0.0000E+00  0.0000E+00  0.0000E+00  0.0000E+00  0.0000E+00  0.0000E+00  0.0000E+00
     -8.032  0.0000E+00  0.0000E+00  0.0000E+00  0.0000E+00  0.0000E+00  0.0000E+00  0.0000E+00  0.0000E+00  0.0000E+00  0.0000E+00  0.0000E+00  0.0000E+00  0.0000E+00  0.0000E+00  0.0000E+00  0.0000E+00  0.0000E+00  0.0000E+00
     -7.613  0.0000E+00  0.0000E+00  0.0000E+00  0.0000E+00  0.0000E+00  0.0000E+00  0.0000E+00  0.0000E+00  0.0000E+00  0.0000E+00  0.0000E+00  0.0000E+00  0.0000E+00  0.0000E+00  0.0000E+00  0.0000E+00  0.0000E+00  0.0000E+00
     -7.194  0.0000E+00  0.0000E+00  0.0000E+00  0.0000E+00  0.0000E+00  0.0000E+00  0.0000E+00  0.0000E+00  0.0000E+00  0.0000E+00  0.0000E+00  0.0000E+00  0.0000E+00  0.0000E+00  0.0000E+00  0.0000E+00  0.0000E+00  0.0000E+00
     -6.774  0.0000E+00  0.0000E+00  0.0000E+00  0.0000E+00  0.0000E+00  0.0000E+00  0.0000E+00  0.0000E+00  0.0000E+00  0.0000E+00  0.0000E+00  0.0000E+00  0.0000E+00  0.0000E+00  0.0000E+00  0.0000E+00  0.0000E+00  0.0000E+00
     -6.355  0.0000E+00  0.0000E+00  0.0000E+00  0.0000E+00  0.0000E+00  0.0000E+00  0.0000E+00  0.0000E+00  0.0000E+00  0.0000E+00  0.0000E+00  0.0000E+00  0.0000E+00  0.0000E+00  0.0000E+00  0.0000E+00  0.0000E+00  0.0000E+00
     -5.936  0.0000E+00  0.0000E+00  0.0000E+00  0.0000E+00  0.0000E+00  0.0000E+00  0.0000E+00  0.0000E+00  0.0000E+00  0.0000E+00  0.0000E+00  0.0000E+00  0.0000E+00  0.0000E+00  0.0000E+00  0.0000E+00  0.0000E+00  0.0000E+00
     -5.516  0.0000E+00  0.0000E+00  0.0000E+00  0.0000E+00  0.0000E+00  0.0000E+00  0.0000E+00  0.0000E+00  0.0000E+00  0.0000E+00  0.0000E+00  0.0000E+00  0.0000E+00  0.0000E+00  0.0000E+00  0.0000E+00  0.0000E+00  0.0000E+00
     -5.097  0.0000E+00  0.0000E+00  0.0000E+00  0.0000E+00  0.0000E+00  0.0000E+00  0.0000E+00  0.0000E+00  0.0000E+00  0.0000E+00  0.0000E+00  0.0000E+00  0.0000E+00  0.0000E+00  0.0000E+00  0.0000E+00  0.0000E+00  0.0000E+00
     -4.678  0.0000E+00  0.0000E+00  0.0000E+00  0.0000E+00  0.0000E+00  0.0000E+00  0.0000E+00  0.0000E+00  0.0000E+00  0.0000E+00  0.0000E+00  0.0000E+00  0.0000E+00  0.0000E+00  0.0000E+00  0.0000E+00  0.0000E+00  0.0000E+00
     -4.258  0.0000E+00  0.0000E+00  0.0000E+00  0.0000E+00  0.0000E+00  0.0000E+00  0.0000E+00  0.0000E+00  0.0000E+00  0.0000E+00  0.0000E+00  0.0000E+00  0.0000E+00  0.0000E+00  0.0000E+00  0.0000E+00  0.0000E+00  0.0000E+00
     -3.839  0.0000E+00  0.0000E+00  0.0000E+00  0.0000E+00  0.0000E+00  0.0000E+00  0.0000E+00  0.0000E+00  0.0000E+00  0.0000E+00  0.0000E+00  0.0000E+00  0.0000E+00  0.0000E+00  0.0000E+00  0.0000E+00  0.0000E+00  0.0000E+00
     -3.420  0.0000E+00  0.0000E+00  0.0000E+00  0.0000E+00  0.0000E+00  0.0000E+00  0.0000E+00  0.0000E+00  0.0000E+00  0.0000E+00  0.0000E+00  0.0000E+00  0.0000E+00  0.0000E+00  0.0000E+00  0.0000E+00  0.0000E+00  0.0000E+00
     -3.000  0.3634E-02  0.3726E-02  0.1722E-04  0.1765E-04  0.1722E-04  0.1765E-04  0.1722E-04  0.1765E-04  0.0000E+00  0.0000E+00  0.0000E+00  0.0000E+00  0.0000E+00  0.0000E+00  0.0000E+00  0.0000E+00  0.0000E+00  0.0000E+00
     -2.581  0.1067E-01  0.1070E-01  0.1618E-03  0.1626E-03  0.1618E-03  0.1626E-03  0.1618E-03  0.1626E-03  0.0000E+00  0.0000E+00  0.0000E+00  0.0000E+00  0.0000E+00  0.0000E+00  0.0000E+00  0.0000E+00  0.0000E+00  0.0000E+00
     -2.162  0.1359E-01  0.1361E-01  0.3842E-03  0.3854E-03  0.3842E-03  0.3854E-03  0.3842E-03  0.3854E-03  0.0000E+00  0.0000E+00  0.0000E+00  0.0000E+00  0.0000E+00  0.0000E+00  0.0000E+00  0.0000E+00  0.0000E+00  0.0000E+00
     -1.742  0.1684E-01  0.1687E-01  0.6258E-03  0.6272E-03  0.6258E-03  0.6272E-03  0.6258E-03  0.6272E-03  0.0000E+00  0.0000E+00  0.0000E+00  0.0000E+00  0.0000E+00  0.0000E+00  0.0000E+00  0.0000E+00  0.0000E+00  0.0000E+00
     -1.323  0.1790E-01  0.1792E-01  0.9501E-03  0.9519E-03  0.9501E-03  0.9519E-03  0.9501E-03  0.9519E-03  0.0000E+00  0.0000E+00  0.0000E+00  0.0000E+00  0.0000E+00  0.0000E+00  0.0000E+00  0.0000E+00  0.0000E+00  0.0000E+00
     -0.904  0.1965E-01  0.1967E-01  0.1269E-02  0.1271E-02  0.1269E-02  0.1271E-02  0.1269E-02  0.1271E-02  0.0000E+00  0.0000E+00  0.0000E+00  0.0000E+00  0.0000E+00  0.0000E+00  0.0000E+00  0.0000E+00  0.0000E+00  0.0000E+00
     -0.484  0.2062E-01  0.2064E-01  0.1646E-02  0.1648E-02  0.1646E-02  0.1648E-02  0.1646E-02  0.1648E-02  0.0000E+00  0.0000E+00  0.0000E+00  0.0000E+00  0.0000E+00  0.0000E+00  0.0000E+00  0.0000E+00  0.0000E+00  0.0000E+00
     -0.065  0.2134E-01  0.2135E-01  0.2044E-02  0.2046E-02  0.2044E-02  0.2046E-02  0.2044E-02  0.2046E-02  0.0000E+00  0.0000E+00  0.0000E+00  0.0000E+00  0.0000E+00  0.0000E+00  0.0000E+00  0.0000E+00  0.0000E+00  0.0000E+00
      0.354  0.2222E-01  0.2224E-01  0.2447E-02  0.2449E-02  0.2447E-02  0.2449E-02  0.2447E-02  0.2449E-02  0.0000E+00  0.0000E+00  0.0000E+00  0.0000E+00  0.0000E+00  0.0000E+00  0.0000E+00  0.0000E+00  0.0000E+00  0.0000E+00
      0.773  0.2273E-01  0.2275E-01  0.2889E-02  0.2892E-02  0.2889E-02  0.2892E-02  0.2889E-02  0.2892E-02  0.0000E+00  0.0000E+00  0.0000E+00  0.0000E+00  0.0000E+00  0.0000E+00  0.0000E+00  0.0000E+00  0.0000E+00  0.0000E+00
      1.193  0.2267E-01  0.2269E-01  0.3382E-02  0.3385E-02  0.3382E-02  0.3385E-02  0.3382E-02  0.3385E-02  0.0000E+00  0.0000E+00  0.0000E+00  0.0000E+00  0.0000E+00  0.0000E+00  0.0000E+00  0.0000E+00  0.0000E+00  0.0000E+00
      1.612  0.2280E-01  0.2282E-01  0.3880E-02  0.3883E-02  0.3880E-02  0.3883E-02  0.3880E-02  0.3883E-02  0.0000E+00  0.0000E+00  0.0000E+00  0.0000E+00  0.0000E+00  0.0000E+00  0.0000E+00  0.0000E+00  0.0000E+00  0.0000E+00
      2.031  0.2294E-01  0.2297E-01  0.4424E-02  0.4427E-02  0.4424E-02  0.4427E-02  0.4424E-02  0.4427E-02  0.0000E+00  0.0000E+00  0.0000E+00  0.0000E+00  0.0000E+00  0.0000E+00  0.0000E+00  0.0000E+00  0.0000E+00  0.0000E+00
      2.451  0.2325E-01  0.2328E-01  0.5235E-02  0.5241E-02  0.5235E-02  0.5241E-02  0.5235E-02  0.5241E-02  0.0000E+00  0.0000E+00  0.0000E+00  0.0000E+00  0.0000E+00  0.0000E+00  0.0000E+00  0.0000E+00  0.0000E+00  0.0000E+00
      2.870  0.2342E-01  0.2344E-01  0.6194E-02  0.6198E-02  0.6194E-02  0.6198E-02  0.6194E-02  0.6198E-02  0.0000E+00  0.0000E+00  0.0000E+00  0.0000E+00  0.0000E+00  0.0000E+00  0.0000E+00  0.0000E+00  0.0000E+00  0.0000E+00
      3.289  0.2264E-01  0.2265E-01  0.6964E-02  0.6962E-02  0.6964E-02  0.6962E-02  0.6964E-02  0.6962E-02  0.0000E+00  0.0000E+00  0.0000E+00  0.0000E+00  0.0000E+00  0.0000E+00  0.0000E+00  0.0000E+00  0.0000E+00  0.0000E+00
      3.709  0.1811E-01  0.1813E-01  0.6362E-02  0.6363E-02  0.6362E-02  0.6363E-02  0.6362E-02  0.6363E-02  0.0000E+00  0.0000E+00  0.0000E+00  0.0000E+00  0.0000E+00  0.0000E+00  0.0000E+00  0.0000E+00  0.0000E+00  0.0000E+00
      4.128  0.1757E-01  0.1759E-01  0.7266E-02  0.7268E-02  0.7266E-02  0.7268E-02  0.7266E-02  0.7268E-02  0.0000E+00  0.0000E+00  0.0000E+00  0.0000E+00  0.0000E+00  0.0000E+00  0.0000E+00  0.0000E+00  0.0000E+00  0.0000E+00
      4.547  0.1984E-01  0.1984E-01  0.9180E-02  0.9178E-02  0.9180E-02  0.9178E-02  0.9180E-02  0.9178E-02  0.0000E+00  0.0000E+00  0.0000E+00  0.0000E+00  0.0000E+00  0.0000E+00  0.0000E+00  0.0000E+00  0.0000E+00  0.0000E+00
      4.967  0.1933E-01  0.1935E-01  0.9262E-02  0.9268E-02  0.9262E-02  0.9268E-02  0.9262E-02  0.9268E-02  0.0000E+00  0.0000E+00  0.0000E+00  0.0000E+00  0.0000E+00  0.0000E+00  0.0000E+00  0.0000E+00  0.0000E+00  0.0000E+00
      5.386  0.1875E-01  0.1876E-01  0.8894E-02  0.8899E-02  0.8894E-02  0.8899E-02  0.8894E-02  0.8899E-02  0.0000E+00  0.0000E+00  0.0000E+00  0.0000E+00  0.0000E+00  0.0000E+00  0.0000E+00  0.0000E+00  0.0000E+00  0.0000E+00
      5.805  0.1573E-01  0.1573E-01  0.7293E-02  0.7289E-02  0.7293E-02  0.7289E-02  0.7293E-02  0.7289E-02  0.0000E+00  0.0000E+00  0.0000E+00  0.0000E+00  0.0000E+00  0.0000E+00  0.0000E+00  0.0000E+00  0.0000E+00  0.0000E+00
      6.225  0.1563E-01  0.1564E-01  0.6773E-02  0.6781E-02  0.6773E-02  0.6781E-02  0.6773E-02  0.6781E-02  0.0000E+00  0.0000E+00  0.0000E+00  0.0000E+00  0.0000E+00  0.0000E+00  0.0000E+00  0.0000E+00  0.0000E+00  0.0000E+00
      6.644  0.1941E-01  0.1944E-01  0.1080E-01  0.1082E-01  0.1080E-01  0.1082E-01  0.1080E-01  0.1082E-01  0.0000E+00  0.0000E+00  0.0000E+00  0.0000E+00  0.0000E+00  0.0000E+00  0.0000E+00  0.0000E+00  0.0000E+00  0.0000E+00
      7.063  0.1796E-01  0.1799E-01  0.1066E-01  0.1066E-01  0.1066E-01  0.1066E-01  0.1066E-01  0.1066E-01  0.0000E+00  0.0000E+00  0.0000E+00  0.0000E+00  0.0000E+00  0.0000E+00  0.0000E+00  0.0000E+00  0.0000E+00  0.0000E+00
      7.483  0.1743E-01  0.1743E-01  0.9262E-02  0.9267E-02  0.9262E-02  0.9267E-02  0.9262E-02  0.9267E-02  0.0000E+00  0.0000E+00  0.0000E+00  0.0000E+00  0.0000E+00  0.0000E+00  0.0000E+00  0.0000E+00  0.0000E+00  0.0000E+00
      7.902  0.1390E-01  0.1391E-01  0.8623E-02  0.8623E-02  0.8623E-02  0.8623E-02  0.8623E-02  0.8623E-02  0.0000E+00  0.0000E+00  0.0000E+00  0.0000E+00  0.0000E+00  0.0000E+00  0.0000E+00  0.0000E+00  0.0000E+00  0.0000E+00
      8.321  0.2003E-01  0.2008E-01  0.9179E-02  0.9195E-02  0.9179E-02  0.9195E-02  0.9179E-02  0.9195E-02  0.0000E+00  0.0000E+00  0.0000E+00  0.0000E+00  0.0000E+00  0.0000E+00  0.0000E+00  0.0000E+00  0.0000E+00  0.0000E+00
      8.741  0.2575E-01  0.2578E-01  0.1144E-01  0.1145E-01  0.1144E-01  0.1145E-01  0.1144E-01  0.1145E-01  0.0000E+00  0.0000E+00  0.0000E+00  0.0000E+00  0.0000E+00  0.0000E+00  0.0000E+00  0.0000E+00  0.0000E+00  0.0000E+00
      9.160  0.1907E-01  0.1907E-01  0.9759E-02  0.9766E-02  0.9759E-02  0.9766E-02  0.9759E-02  0.9766E-02  0.0000E+00  0.0000E+00  0.0000E+00  0.0000E+00  0.0000E+00  0.0000E+00  0.0000E+00  0.0000E+00  0.0000E+00  0.0000E+00
      9.579  0.1904E-01  0.1906E-01  0.1020E-01  0.1021E-01  0.1020E-01  0.1021E-01  0.1020E-01  0.1021E-01  0.0000E+00  0.0000E+00  0.0000E+00  0.0000E+00  0.0000E+00  0.0000E+00  0.0000E+00  0.0000E+00  0.0000E+00  0.0000E+00
      9.999  0.1762E-01  0.1763E-01  0.9734E-02  0.9742E-02  0.9734E-02  0.9742E-02  0.9734E-02  0.9742E-02  0.0000E+00  0.0000E+00  0.0000E+00  0.0000E+00  0.0000E+00  0.0000E+00  0.0000E+00  0.0000E+00  0.0000E+00  0.0000E+00
     10.418  0.2554E-01  0.2555E-01  0.1119E-01  0.1120E-01  0.1119E-01  0.1120E-01  0.1119E-01  0.1120E-01  0.0000E+00  0.0000E+00  0.0000E+00  0.0000E+00  0.0000E+00  0.0000E+00  0.0000E+00  0.0000E+00  0.0000E+00  0.0000E+00
     10.837  0.2316E-01  0.2318E-01  0.1213E-01  0.1214E-01  0.1213E-01  0.1214E-01  0.1213E-01  0.1214E-01  0.0000E+00  0.0000E+00  0.0000E+00  0.0000E+00  0.0000E+00  0.0000E+00  0.0000E+00  0.0000E+00  0.0000E+00  0.0000E+00
     11.257  0.2285E-01  0.2285E-01  0.1200E-01  0.1201E-01  0.1200E-01  0.1201E-01  0.1200E-01  0.1201E-01  0.0000E+00  0.0000E+00  0.0000E+00  0.0000E+00  0.0000E+00  0.0000E+00  0.0000E+00  0.0000E+00  0.0000E+00  0.0000E+00
     11.676  0.2215E-01  0.2216E-01  0.1201E-01  0.1202E-01  0.1201E-01  0.1202E-01  0.1201E-01  0.1202E-01  0.0000E+00  0.0000E+00  0.0000E+00  0.0000E+00  0.0000E+00  0.0000E+00  0.0000E+00  0.0000E+00  0.0000E+00  0.0000E+00
     12.095  0.2230E-01  0.2231E-01  0.1305E-01  0.1307E-01  0.1305E-01  0.1307E-01  0.1305E-01  0.1307E-01  0.0000E+00  0.0000E+00  0.0000E+00  0.0000E+00  0.0000E+00  0.0000E+00  0.0000E+00  0.0000E+00  0.0000E+00  0.0000E+00