    1    1    1    2
  0.1658294E+02  0.2862368E-09  0.2862368E-09  0.2862368E-09  0.5000000E-15
   1.0000000000000000E-004
  CAR 
 unknown system                          
      3     56     48

  0.1262379E-14  0.1262379E-14  0.1262379E-14  0.7513148E-03
    1       -3.151109     -3.152949   1.000000   1.000000
    2       20.540562     20.539190   0.000000   0.000000
    3       20.540562     20.539190   0.000000   0.000000
    4       20.540562     20.539191   0.000000   0.000000
    5       21.995410     21.989997   0.000000   0.000000
    6       21.995411     21.989997   0.000000   0.000000
    7       21.995411     21.989998   0.000000   0.000000
    8       24.377738     24.377945   0.000000   0.000000
    9       27.315308     27.311379   0.000000   0.000000
   10       27.315308     27.311379   0.000000   0.000000
   11       30.160754     30.157563   0.000000   0.000000
   12       32.511142     32.510071   0.000000   0.000000
   13       32.511142     32.510071   0.000000   0.000000
   14       32.511142     32.510072   0.000000   0.000000
   15       41.063408     41.060847   0.000000   0.000000
   16       56.019668     56.018611   0.000000   0.000000
   17       56.019668     56.018611   0.000000   0.000000
   18       56.019668     56.018611   0.000000   0.000000
   19       56.055610     56.055739   0.000000   0.000000
   20       59.214313     59.211407   0.000000   0.000000
   21       59.214313     59.211407   0.000000   0.000000
   22       59.214313     59.211407   0.000000   0.000000
   23       62.834473     62.833903   0.000000   0.000000
   24       62.834473     62.833903   0.000000   0.000000
   25       65.077639     65.073580   0.000000   0.000000
   26       65.077639     65.073580   0.000000   0.000000
   27       65.077639     65.073580   0.000000   0.000000
   28       73.178260     73.176990   0.000000   0.000000
   29       73.178260     73.176990   0.000000   0.000000
   30       73.178260     73.176991   0.000000   0.000000
   31       80.819346     80.818107   0.000000   0.000000
   32       83.078110     83.075995   0.000000   0.000000
   33       83.078110     83.075995   0.000000   0.000000
   34       87.206590     87.206461   0.000000   0.000000
   35       87.206590     87.206462   0.000000   0.000000
   36       87.206590     87.206464   0.000000   0.000000
   37       90.089505     90.083243   0.000000   0.000000
   38       90.089505     90.083243   0.000000   0.000000
   39       90.089505     90.083243   0.000000   0.000000
   40       90.898023     90.890811   0.000000   0.000000
   41       93.460343     93.459961   0.000000   0.000000
   42       93.460343     93.459961   0.000000   0.000000
   43       93.460343     93.459961   0.000000   0.000000
   44       93.935476     93.931717   0.000000   0.000000
   45       93.935476     93.931717   0.000000   0.000000
   46       93.935476     93.931717   0.000000   0.000000
   47       96.374540     96.374948   0.000000   0.000000
   48       96.374540     96.374949   0.000000   0.000000

  0.9090909E-01  0.1261979E-14  0.1276756E-14  0.6010518E-02
    1       -2.927267     -2.929107   1.000000   1.000000
    2       17.619421     17.617318   0.000000   0.000000
    3       19.894033     19.891690   0.000000   0.000000
    4       19.894033     19.891691   0.000000   0.000000
    5       22.669988     22.666452   0.000000   0.000000
    6       22.980638     22.976036   0.000000   0.000000
    7       22.980638     22.976036   0.000000   0.000000
    8       26.202538     26.199305   0.000000   0.000000
    9       26.202538     26.199305   0.000000   0.000000
   10       26.470750     26.469900   0.000000   0.000000
   11       29.408830     29.406049   0.000000   0.000000
   12       33.603975     33.602257   0.000000   0.000000
   13       34.081375     34.079715   0.000000   0.000000
   14       34.081375     34.079715   0.000000   0.000000
   15       41.938466     41.936034   0.000000   0.000000
   16       55.296302     55.295733   0.000000   0.000000
   17       55.584027     55.582575   0.000000   0.000000
   18       55.584027     55.582575   0.000000   0.000000
   19       56.363270     56.362717   0.000000   0.000000
   20       57.180691     57.178194   0.000000   0.000000
   21       57.180691     57.178195   0.000000   0.000000
   22       59.207481     59.204778   0.000000   0.000000
   23       61.581273     61.579813   0.000000   0.000000
   24       61.581273     61.579814   0.000000   0.000000
   25       65.278595     65.274494   0.000000   0.000000
   26       68.936677     68.933631   0.000000   0.000000
   27       68.936677     68.933631   0.000000   0.000000
   28       71.533631     71.532527   0.000000   0.000000
   29       72.980066     72.978531   0.000000   0.000000
   30       72.980066     72.978532   0.000000   0.000000
   31       81.830104     81.827587   0.000000   0.000000
   32       81.830104     81.827588   0.000000   0.000000
   33       82.303762     82.302101   0.000000   0.000000
   34       84.090898     84.087682   0.000000   0.000000
   35       85.793221     85.792852   0.000000   0.000000
   36       85.793222     85.792852   0.000000   0.000000
   37       87.986266     87.983667   0.000000   0.000000
   38       87.986266     87.983668   0.000000   0.000000
   39       89.006394     89.004543   0.000000   0.000000
   40       90.089641     90.083467   0.000000   0.000000
   41       91.305171     91.303277   0.000000   0.000000
   42       91.305171     91.303278   0.000000   0.000000
   43       92.883841     92.882480   0.000000   0.000000
   44       94.805495     94.805736   0.000000   0.000000
   45       95.647381     95.647782   0.000000   0.000000
   46       95.647381     95.647782   0.000000   0.000000
   47       97.101462     97.097654   0.000000   0.000000
   48       97.101454     97.097655   0.000000   0.000000

  0.1818182E+00  0.1266963E-14  0.1262879E-14  0.6010518E-02
    1       -2.257903     -2.259743   1.000000   1.000000
    2       13.974405     13.972385   0.000000   0.000000
    3       19.160907     19.158217   0.000000   0.000000
    4       19.160907     19.158217   0.000000   0.000000
    5       22.437229     22.434295   0.000000   0.000000
    6       23.803049     23.798790   0.000000   0.000000
    7       23.803049     23.798791   0.000000   0.000000
    8       25.316208     25.313325   0.000000   0.000000
    9       25.316208     25.313325   0.000000   0.000000
   10       27.892861     27.890273   0.000000   0.000000
   11       29.979679     29.978265   0.000000   0.000000
   12       36.431414     36.428999   0.000000   0.000000
   13       37.235104     37.232904   0.000000   0.000000
   14       37.235104     37.232905   0.000000   0.000000
   15       44.145111     44.142989   0.000000   0.000000
   16       51.710145     51.707778   0.000000   0.000000
   17       51.710145     51.707779   0.000000   0.000000
   18       53.878460     53.877713   0.000000   0.000000
   19       56.403723     56.402409   0.000000   0.000000
   20       56.403723     56.402409   0.000000   0.000000
   21       56.553232     56.552514   0.000000   0.000000
   22       58.867754     58.865572   0.000000   0.000000
   23       61.721213     61.719543   0.000000   0.000000
   24       61.721213     61.719544   0.000000   0.000000
   25       65.868870     65.864620   0.000000   0.000000
   26       68.895840     68.894554   0.000000   0.000000
   27       71.065318     71.062854   0.000000   0.000000
   28       71.065318     71.062855   0.000000   0.000000
   29       73.949352     73.947081   0.000000   0.000000
   30       73.949353     73.947082   0.000000   0.000000
   31       78.847502     78.843534   0.000000   0.000000
   32       78.983961     78.981571   0.000000   0.000000
   33       78.983961     78.981571   0.000000   0.000000
   34       82.814734     82.814957   0.000000   0.000000
   35       82.814734     82.814958   0.000000   0.000000
   36       84.821804     84.820134   0.000000   0.000000
   37       85.652042     85.651664   0.000000   0.000000
   38       86.583776     86.582200   0.000000   0.000000
   39       86.583776     86.582200   0.000000   0.000000
   40       87.494246     87.492643   0.000000   0.000000
   41       89.449082     89.443722   0.000000   0.000000
   42       90.015814     90.013517   0.000000   0.000000
   43       90.015814     90.013518   0.000000   0.000000
   44       93.912440     93.913027   0.000000   0.000000
   45       97.286985     97.286403   0.000000   0.000000
   46       97.286985     97.286403   0.000000   0.000000
   47       99.489736     99.488107   0.000000   0.000000
   48       99.489737     99.488108   0.000000   0.000000

  0.2727273E+00  0.1237835E-14  0.1249001E-14  0.6010518E-02
    1       -1.149186     -1.151025   1.000000   1.000000
    2       10.549722     10.547764  -0.016184  -0.016290
    3       18.752115     18.749300   0.000000   0.000000
    4       18.752115     18.749300   0.000000   0.000000
    5       22.225339     22.222641   0.000000   0.000000
    6       22.258006     22.254723   0.000000   0.000000
    7       22.258006     22.254723   0.000000   0.000000
    8       26.247178     26.244610   0.000000   0.000000
    9       27.361267     27.357553   0.000000   0.000000
   10       27.361267     27.357554   0.000000   0.000000
   11       33.314457     33.312684   0.000000   0.000000
   12       40.516418     40.513431   0.000000   0.000000
   13       40.849144     40.846426   0.000000   0.000000
   14       40.849144     40.846426   0.000000   0.000000
   15       47.030200     47.028454   0.000000   0.000000
   16       47.368244     47.366276   0.000000   0.000000
   17       47.368244     47.366276   0.000000   0.000000
   18       51.911117     51.910438   0.000000   0.000000
   19       56.355074     56.353847   0.000000   0.000000
   20       56.355075     56.353847   0.000000   0.000000
   21       56.779635     56.778700   0.000000   0.000000
   22       57.924938     57.923472   0.000000   0.000000
   23       62.168961     62.167020   0.000000   0.000000
   24       62.168962     62.167020   0.000000   0.000000
   25       66.332241     66.329896   0.000000   0.000000
   26       66.807043     66.802489   0.000000   0.000000
   27       67.838040     67.835249   0.000000   0.000000
   28       67.838040     67.835250   0.000000   0.000000
   29       74.385469     74.384530   0.000000   0.000000
   30       74.385470     74.384532   0.000000   0.000000
   31       75.746551     75.742451   0.000000   0.000000
   32       78.381284     78.381648   0.000000   0.000000
   33       79.121780     79.121337   0.000000   0.000000
   34       79.121782     79.121337   0.000000   0.000000
   35       79.969846     79.968145   0.000000   0.000000
   36       79.969849     79.968145   0.000000   0.000000
   37       81.182718     81.181388   0.000000   0.000000
   38       88.165551     88.163900   0.000000   0.000000
   39       88.165551     88.163902   0.000000   0.000000
   40       88.743341     88.739426   0.000000   0.000000
   41       89.484993     89.482638   0.000000   0.000000
   42       89.484983     89.482639   0.000000   0.000000
   43       91.117787     91.115959   0.000000   0.000000
   44       93.032805     93.032558   0.000000   0.000000
   45       97.510876     97.509383   0.000000   0.000000
   46       97.510870     97.509412   0.000000   0.000000
   47      101.496843    101.495101   0.000000   0.000000
   48      102.444521    102.444013   0.000000   0.000000

  0.3636364E+00  0.1236297E-14  0.1249001E-14  0.6010518E-02
    1        0.388917      0.387081   1.000000   1.000000
    2        7.447241      7.445319   0.711074   0.711880
    3       18.708202     18.705305   0.000000   0.000000
    4       18.708202     18.705305   0.000000   0.000000
    5       20.828848     20.825818   0.000000   0.000000
    6       20.828848     20.825818   0.000000   0.000000
    7       22.296295     22.293747   0.000000   0.000000
    8       24.759500     24.756894   0.000000   0.000000
    9       29.889729     29.885555   0.000000   0.000000
   10       29.889729     29.885555   0.000000   0.000000
   11       36.444966     36.442678   0.000000   0.000000
   12       41.903072     41.900332   0.000000   0.000000
   13       41.903071     41.900333   0.000000   0.000000
   14       45.038454     45.035081   0.000000   0.000000
   15       46.437477     46.435707   0.000000   0.000000
   16       46.437477     46.435708   0.000000   0.000000
   17       48.330391     48.328978   0.000000   0.000000
   18       51.745947     51.745739   0.000000   0.000000
   19       56.281040     56.279833   0.000000   0.000000
   20       56.281041     56.279833   0.000000   0.000000
   21       56.401680     56.400600   0.000000   0.000000
   22       57.065214     57.064007   0.000000   0.000000
   23       61.347121     61.344008   0.000000   0.000000
   24       61.347122     61.344008   0.000000   0.000000
   25       63.752154     63.748739   0.000000   0.000000
   26       64.407004     64.405574   0.000000   0.000000
   27       64.407004     64.405574   0.000000   0.000000
   28       67.968366     67.963252   0.000000   0.000000
   29       69.672759     69.671614   0.000000   0.000000
   30       73.833065     73.832319   0.000000   0.000000
   31       73.833067     73.832321   0.000000   0.000000
   32       76.557293     76.555426   0.000000   0.000000
   33       76.968480     76.968171   0.000000   0.000000
   34       76.968480     76.968171   0.000000   0.000000
   35       78.220141     78.219394   0.000000   0.000000
   36       80.439915     80.438748   0.000000   0.000000
   37       80.439916     80.438750   0.000000   0.000000
   38       88.542419     88.538380   0.000000   0.000000
   39       89.123545     89.121335   0.000000   0.000000
   40       89.123553     89.121333   0.000000   0.000000
   41       90.469048     90.468998   0.000000   0.000000
   42       92.016644     92.014576   0.000000   0.000000
   43       92.016643     92.014577   0.000000   0.000000
   44       94.232126     94.231248   0.000000   0.000000
   45       98.965270     98.963268   0.000000   0.000000
   46       98.965310     98.963289   0.000000   0.000000
   47      102.341390    102.338435   0.000000   0.000000
   48      104.094698    104.093847   0.000000   0.000000

  0.4545455E+00  0.1248969E-14  0.1249001E-14  0.6010518E-02
    1        2.341799      2.339988   1.000000   1.000000
    2        4.708069      4.706138   1.000000   1.000000
    3       19.037381     19.034331   0.000000   0.000000
    4       19.037381     19.034331   0.000000   0.000000
    5       19.749585     19.746767   0.000000   0.000000
    6       19.749585     19.746768   0.000000   0.000000
    7       22.733753     22.731444   0.000000   0.000000
    8       23.570791     23.567992   0.000000   0.000000
    9       32.213185     32.208142   0.000000   0.000000
   10       32.213185     32.208143   0.000000   0.000000
   11       39.008522     39.005355   0.000000   0.000000
   12       39.226462     39.224979   0.000000   0.000000
   13       39.226462     39.224980   0.000000   0.000000
   14       45.811308     45.810970   0.000000   0.000000
   15       49.629556     49.625871   0.000000   0.000000
   16       50.322308     50.319878   0.000000   0.000000
   17       50.322308     50.319878   0.000000   0.000000
   18       54.200833     54.199501   0.000000   0.000000
   19       55.455918     55.455743   0.000000   0.000000
   20       55.465333     55.463802   0.000000   0.000000
   21       55.465333     55.463802   0.000000   0.000000
   22       57.651080     57.649507   0.000000   0.000000
   23       57.948403     57.945792   0.000000   0.000000
   24       57.948404     57.945793   0.000000   0.000000
   25       61.671017     61.668465   0.000000   0.000000
   26       63.627023     63.625742   0.000000   0.000000
   27       64.232039     64.230754   0.000000   0.000000
   28       64.232039     64.230755   0.000000   0.000000
   29       68.957684     68.951773   0.000000   0.000000
   30       73.602242     73.601547   0.000000   0.000000
   31       73.602242     73.601547   0.000000   0.000000
   32       75.530366     75.529797   0.000000   0.000000
   33       75.530366     75.529797   0.000000   0.000000
   34       76.329937     76.329999   0.000000   0.000000
   35       76.864910     76.862801   0.000000   0.000000
   36       80.540714     80.540030   0.000000   0.000000
   37       80.540715     80.540032   0.000000   0.000000
   38       88.593306     88.589016   0.000000   0.000000
   39       88.880416     88.878290   0.000000   0.000000
   40       88.880416     88.878291   0.000000   0.000000
   41       89.209097     89.209384   0.000000   0.000000
   42       94.203654     94.203170   0.000000   0.000000
   43       95.098859     95.096834   0.000000   0.000000
   44       95.098859     95.096835   0.000000   0.000000
   45      101.191787    101.190641   0.000000   0.000000
   46      101.191784    101.190641   0.000000   0.000000
   47      105.128374    105.125664   0.000000   0.000000
   48      105.128375    105.125686   0.000000   0.000000

  0.9090909E-01  0.9090909E-01  0.1262379E-14  0.4507889E-02
    1       -2.852733     -2.854573   1.000000   1.000000
    2       18.632041     18.629447   0.000000   0.000000
    3       18.632041     18.629447   0.000000   0.000000
    4       18.931730     18.930782   0.000000   0.000000
    5       21.328358     21.323062   0.000000   0.000000
    6       24.291974     24.289170   0.000000   0.000000
    7       24.336294     24.331921   0.000000   0.000000
    8       24.336294     24.331921   0.000000   0.000000
    9       26.582972     26.582742   0.000000   0.000000
   10       27.591386     27.587410   0.000000   0.000000
   11       30.594377     30.590943   0.000000   0.000000
   12       32.856870     32.855949   0.000000   0.000000
   13       32.856870     32.855949   0.000000   0.000000
   14       35.566816     35.564518   0.000000   0.000000
   15       42.373647     42.371274   0.000000   0.000000
   16       55.200366     55.198662   0.000000   0.000000
   17       55.200366     55.198662   0.000000   0.000000
   18       55.417441     55.417264   0.000000   0.000000
   19       56.538604     56.537861   0.000000   0.000000
   20       57.467096     57.464620   0.000000   0.000000
   21       57.467096     57.464620   0.000000   0.000000
   22       57.855922     57.854087   0.000000   0.000000
   23       59.410465     59.407543   0.000000   0.000000
   24       62.758239     62.757633   0.000000   0.000000
   25       67.473914     67.470160   0.000000   0.000000
   26       67.473914     67.470160   0.000000   0.000000
   27       70.391510     70.389811   0.000000   0.000000
   28       70.436066     70.433437   0.000000   0.000000
   29       73.436902     73.435861   0.000000   0.000000
   30       73.436902     73.435862   0.000000   0.000000
   31       80.624597     80.622239   0.000000   0.000000
   32       82.576275     82.574050   0.000000   0.000000
   33       82.686069     82.683347   0.000000   0.000000
   34       82.686069     82.683347   0.000000   0.000000
   35       83.410299     83.406912   0.000000   0.000000
   36       84.129231     84.127853   0.000000   0.000000
   37       88.741167     88.743475   0.000000   0.000000
   38       90.083200     90.080871   0.000000   0.000000
   39       90.083200     90.080871   0.000000   0.000000
   40       90.115171     90.113244   0.000000   0.000000
   41       90.115171     90.113245   0.000000   0.000000
   42       92.130864     92.128653   0.000000   0.000000
   43       93.138059     93.132556   0.000000   0.000000
   44       94.410179     94.405919   0.000000   0.000000
   45       94.797656     94.797273   0.000000   0.000000
   46       97.778797     97.777459   0.000000   0.000000
   47       97.804710     97.803004   0.000000   0.000000
   48       97.804809     97.803012   0.000000   0.000000

  0.1818182E+00  0.9090909E-01  0.1262879E-14  0.1803156E-01
    1       -2.332099     -2.333939   1.000000   1.000000
    2       15.296347     15.294368   0.000000   0.000000
    3       17.705923     17.703259   0.000000   0.000000
    4       19.047161     19.045103   0.000000   0.000000
    5       21.665651     21.660434   0.000000   0.000000
    6       22.280815     22.278760   0.000000   0.000000
    7       24.715372     24.711935   0.000000   0.000000
    8       25.736134     25.731364   0.000000   0.000000
    9       27.075967     27.072829   0.000000   0.000000
   10       29.500626     29.498745   0.000000   0.000000
   11       29.951765     29.949647   0.000000   0.000000
   12       34.729800     34.728355   0.000000   0.000000
   13       35.037535     35.035731   0.000000   0.000000
   14       37.875366     37.872605   0.000000   0.000000
   15       44.420995     44.418849   0.000000   0.000000
   16       51.717702     51.715400   0.000000   0.000000
   17       52.805099     52.802965   0.000000   0.000000
   18       55.422262     55.421558   0.000000   0.000000
   19       55.669905     55.668927   0.000000   0.000000
   20       56.195728     56.194436   0.000000   0.000000
   21       57.007410     57.006008   0.000000   0.000000
   22       57.973892     57.971525   0.000000   0.000000
   23       59.377917     59.375272   0.000000   0.000000
   24       62.312150     62.311135   0.000000   0.000000
   25       67.463650     67.461519   0.000000   0.000000
   26       68.416217     68.412593   0.000000   0.000000
   27       71.315568     71.312751   0.000000   0.000000
   28       72.536600     72.535210   0.000000   0.000000
   29       72.579387     72.577738   0.000000   0.000000
   30       74.913411     74.911703   0.000000   0.000000
   31       77.298767     77.296128   0.000000   0.000000
   32       78.428911     78.425442   0.000000   0.000000
   33       80.662080     80.659176   0.000000   0.000000
   34       81.704749     81.702747   0.000000   0.000000
   35       82.486806     82.485105   0.000000   0.000000
   36       84.089017     84.088375   0.000000   0.000000
   37       86.211600     86.210068   0.000000   0.000000
   38       86.274922     86.272851   0.000000   0.000000
   39       89.141677     89.140752   0.000000   0.000000
   40       89.261597     89.260478   0.000000   0.000000
   41       89.782401     89.780876   0.000000   0.000000
   42       91.356551     91.355925   0.000000   0.000000
   43       93.742867     93.740603   0.000000   0.000000
   44       94.423099     94.419687   0.000000   0.000000
   45       94.519800     94.518005   0.000000   0.000000
   46       96.176627     96.175294   0.000000   0.000000
   47       97.033526     97.033200   0.000000   0.000000
   48       97.620719     97.618839   0.000000   0.000000

  0.2727273E+00  0.9090909E-01  0.1262879E-14  0.1803156E-01
    1       -1.370243     -1.372082   1.000000   1.000000
    2       11.821727     11.819780   0.000000   0.000000
    3       17.149751     17.147054   0.000000   0.000000
    4       18.707009     18.704602   0.000000   0.000000
    5       20.016130     20.013019   0.000000   0.000000
    6       23.795865     23.791702   0.000000   0.000000
    7       24.649615     24.646954   0.000000   0.000000
    8       24.757626     24.753875   0.000000   0.000000
    9       28.254454     28.251960   0.000000   0.000000
   10       28.539894     28.535999   0.000000   0.000000
   11       33.055716     33.053935   0.000000   0.000000
   12       38.084599     38.082551   0.000000   0.000000
   13       39.026584     39.024169   0.000000   0.000000
   14       40.880131     40.877065   0.000000   0.000000
   15       47.132256     47.130257   0.000000   0.000000
   16       47.327437     47.325525   0.000000   0.000000
   17       49.079937     49.077814   0.000000   0.000000
   18       53.672805     53.671795   0.000000   0.000000
   19       55.547359     55.546803   0.000000   0.000000
   20       56.196151     56.194946   0.000000   0.000000
   21       57.141701     57.140204   0.000000   0.000000
   22       58.548591     58.546085   0.000000   0.000000
   23       58.625593     58.623694   0.000000   0.000000
   24       62.529117     62.527833   0.000000   0.000000
   25       65.015725     65.013039   0.000000   0.000000
   26       68.784159     68.780458   0.000000   0.000000
   27       68.848649     68.845893   0.000000   0.000000
   28       71.531048     71.529844   0.000000   0.000000
   29       72.016194     72.015229   0.000000   0.000000
   30       73.726738     73.723496   0.000000   0.000000
   31       77.003412     77.000700   0.000000   0.000000
   32       77.124788     77.124211   0.000000   0.000000
   33       78.610999     78.608559   0.000000   0.000000
   34       80.687796     80.686644   0.000000   0.000000
   35       81.020095     81.018209   0.000000   0.000000
   36       81.478671     81.477405   0.000000   0.000000
   37       82.627202     82.626507   0.000000   0.000000
   38       86.750892     86.748904   0.000000   0.000000
   39       86.795790     86.793304   0.000000   0.000000
   40       87.050802     87.049590   0.000000   0.000000
   41       91.011058     91.009415   0.000000   0.000000
   42       92.382478     92.382261   0.000000   0.000000
   43       92.606877     92.604748   0.000000   0.000000
   44       94.143671     94.140514   0.000000   0.000000
   45       94.485220     94.483505   0.000000   0.000000
   46       97.275649     97.274704   0.000000   0.000000
   47       99.731535     99.730459   0.000000   0.000000
   48      100.799795    100.799334   0.000000   0.000000

  0.3636364E+00  0.9090909E-01  0.1249001E-14  0.1803156E-01
    1        0.024063      0.022227   1.000000   1.000000
    2        8.621103      8.619183   0.196705   0.197552
    3       16.970541     16.967812   0.000000   0.000000
    4       18.366546     18.364604   0.000000   0.000000
    5       18.618429     18.614917   0.000000   0.000000
    6       23.298709     23.295336   0.000000   0.000000
    7       24.394395     24.390689   0.000000   0.000000
    8       26.046056     26.043426   0.000000   0.000000
    9       27.216541     27.213569   0.000000   0.000000
   10       30.850779     30.846311   0.000000   0.000000
   11       36.280260     36.277991   0.000000   0.000000
   12       40.871911     40.869358   0.000000   0.000000
   13       43.232774     43.229539   0.000000   0.000000
   14       43.714944     43.711676   0.000000   0.000000
   15       44.217971     44.216611   0.000000   0.000000
   16       46.384766     46.383372   0.000000   0.000000
   17       49.784988     49.783068   0.000000   0.000000
   18       52.267059     52.266602   0.000000   0.000000
   19       55.643052     55.642395   0.000000   0.000000
   20       56.259561     56.258403   0.000000   0.000000
   21       56.683340     56.681671   0.000000   0.000000
   22       57.605625     57.604334   0.000000   0.000000
   23       59.157073     59.154295   0.000000   0.000000
   24       61.730909     61.727829   0.000000   0.000000
   25       63.223580     63.222254   0.000000   0.000000
   26       64.919143     64.915824   0.000000   0.000000
   27       66.457031     66.453951   0.000000   0.000000
   28       70.428293     70.427748   0.000000   0.000000
   29       70.481804     70.480845   0.000000   0.000000
   30       71.360916     71.357232   0.000000   0.000000
   31       72.603999     72.602700   0.000000   0.000000
   32       76.125934     76.125402   0.000000   0.000000
   33       77.157953     77.157045   0.000000   0.000000
   34       78.174171     78.173300   0.000000   0.000000
   35       80.583506     80.582352   0.000000   0.000000
   36       81.540316     81.538862   0.000000   0.000000
   37       83.335490     83.332144   0.000000   0.000000
   38       84.619277     84.618662   0.000000   0.000000
   39       87.285228     87.283420   0.000000   0.000000
   40       88.621721     88.619395   0.000000   0.000000
   41       92.520766     92.520218   0.000000   0.000000
   42       93.591780     93.589191   0.000000   0.000000
   43       93.731421     93.729551   0.000000   0.000000
   44       94.469437     94.467751   0.000000   0.000000
   45       96.185609     96.182864   0.000000   0.000000
   46       98.327200     98.325283   0.000000   0.000000
   47      101.140644    101.140344   0.000000   0.000000
   48      103.251565    103.251251   0.000000   0.000000

  0.4545455E+00  0.9090909E-01  0.1249001E-14  0.1803156E-01
    1        1.838099      1.836274   1.000000   1.000000
    2        5.764648      5.762735   1.045090   1.044836
    3       17.143312     17.140759   0.000000   0.000000
    4       17.170830     17.168053   0.000000   0.000000
    5       18.834221     18.831346   0.000000   0.000000
    6       22.121570     22.118391   0.000000   0.000000
    7       24.645082     24.640811   0.000000   0.000000
    8       25.336219     25.334783   0.000000   0.000000
    9       29.468023     29.464029   0.000000   0.000000
   10       32.730618     32.725266   0.000000   0.000000
   11       39.107257     39.104289   0.000000   0.000000
   12       39.153664     39.152432   0.000000   0.000000
   13       40.666744     40.664547   0.000000   0.000000
   14       47.122898     47.120910   0.000000   0.000000
   15       47.443597     47.441468   0.000000   0.000000
   16       48.741664     48.739086   0.000000   0.000000
   17       49.815388     49.813277   0.000000   0.000000
   18       54.210080     54.208661   0.000000   0.000000
   19       55.065741     55.064978   0.000000   0.000000
   20       55.680453     55.679261   0.000000   0.000000
   21       56.222582     56.221471   0.000000   0.000000
   22       56.817967     56.816855   0.000000   0.000000