   8   8   0   0
  0.2137465E+02  0.5550469E-09  0.5550469E-09  0.5550469E-09  0.5000000E-15
   1.0000000000000000E-004
  CAR 
 unknown system                          
     11.45341075     -8.33641076  301      5.28276259      1.00000000
     -8.336  0.0000E+00  0.0000E+00
     -8.270  0.0000E+00  0.0000E+00
     -8.204  0.0000E+00  0.0000E+00
     -8.139  0.0000E+00  0.0000E+00
     -8.073  0.0000E+00  0.0000E+00
     -8.007  0.0000E+00  0.0000E+00
     -7.941 -0.6285E-28 -0.4146E-29
     -7.875 -0.1067E-25 -0.7081E-27
     -7.809 -0.1461E-23 -0.9711E-25
     -7.743 -0.1606E-21 -0.1069E-22
     -7.677 -0.1416E-19 -0.9449E-21
     -7.611 -0.1002E-17 -0.6701E-19
     -7.545 -0.5679E-16 -0.3814E-17
     -7.479 -0.2500E-14 -0.1687E-15
     -7.413 -0.9075E-13 -0.6155E-14
     -7.347 -0.2631E-11 -0.1797E-12
     -7.281 -0.6096E-10 -0.4201E-11
     -7.215 -0.1127E-08 -0.7854E-10
     -7.149 -0.1660E-07 -0.1173E-08
     -7.083 -0.1944E-06 -0.1400E-07
     -7.017 -0.1806E-05 -0.1332E-06
     -6.951 -0.1328E-04 -0.1009E-05
     -6.885 -0.7698E-04 -0.6087E-05
     -6.819 -0.3504E-03 -0.2920E-04
     -6.753 -0.1247E-02 -0.1114E-03
     -6.687 -0.3446E-02 -0.3387E-03
     -6.621 -0.7309E-02 -0.8209E-03
     -6.555 -0.1142E-01 -0.1574E-02
     -6.489 -0.1072E-01 -0.2282E-02
     -6.423  0.5512E-02 -0.1918E-02
     -6.357  0.5488E-01  0.1702E-02
     -6.291  0.1578E+00  0.1211E-01
     -6.225  0.3254E+00  0.3358E-01
     -6.160  0.5474E+00  0.6969E-01
     -6.094  0.7865E+00  0.1216E+00
     -6.028  0.9777E+00  0.1861E+00
     -5.962  0.1049E+01  0.2553E+00
     -5.896  0.9738E+00  0.3195E+00
     -5.830  0.8054E+00  0.3726E+00
     -5.764  0.6680E+00  0.4167E+00
     -5.698  0.7164E+00  0.4640E+00
     -5.632  0.1055E+01  0.5336E+00
     -5.566  0.1632E+01  0.6412E+00
     -5.500  0.2212E+01  0.7871E+00
     -5.434  0.2496E+01  0.9518E+00
     -5.368  0.2300E+01  0.1103E+01
     -5.302  0.1682E+01  0.1214E+01
     -5.236  0.9696E+00  0.1278E+01
     -5.170  0.5885E+00  0.1317E+01
     -5.104  0.7652E+00  0.1368E+01
     -5.038  0.1360E+01  0.1457E+01
     -4.972  0.1998E+01  0.1589E+01
     -4.906  0.2375E+01  0.1746E+01
     -4.840  0.2491E+01  0.1910E+01
     -4.774  0.2589E+01  0.2081E+01
     -4.708  0.2795E+01  0.2265E+01
     -4.642  0.2898E+01  0.2456E+01
     -4.576  0.2601E+01  0.2628E+01
     -4.510  0.2024E+01  0.2762E+01
     -4.444  0.1804E+01  0.2881E+01
     -4.378  0.2490E+01  0.3045E+01
     -4.312  0.3821E+01  0.3297E+01
     -4.247  0.4836E+01  0.3616E+01
     -4.181  0.4762E+01  0.3930E+01
     -4.115  0.3644E+01  0.4170E+01
     -4.049  0.2142E+01  0.4312E+01
     -3.983  0.1004E+01  0.4378E+01
     -3.917  0.7501E+00  0.4427E+01
     -3.851  0.1490E+01  0.4526E+01
     -3.785  0.2823E+01  0.4712E+01
     -3.719  0.4077E+01  0.4981E+01
     -3.653  0.4816E+01  0.5299E+01
     -3.587  0.5125E+01  0.5637E+01
     -3.521  0.5293E+01  0.5986E+01
     -3.455  0.5282E+01  0.6334E+01
     -3.389  0.4690E+01  0.6644E+01
     -3.323  0.3348E+01  0.6864E+01
     -3.257  0.1730E+01  0.6979E+01
     -3.191  0.6118E+00  0.7019E+01
     -3.125  0.4066E+00  0.7046E+01
     -3.059  0.8731E+00  0.7103E+01
     -2.993  0.1371E+01  0.7194E+01
     -2.927  0.1404E+01  0.7286E+01
     -2.861  0.1006E+01  0.7353E+01
     -2.795  0.5931E+00  0.7392E+01
     -2.729  0.4571E+00  0.7422E+01
     -2.663  0.5289E+00  0.7457E+01
     -2.597  0.6605E+00  0.7500E+01
     -2.531  0.9660E+00  0.7564E+01
     -2.465  0.1667E+01  0.7674E+01
     -2.399  0.2613E+01  0.7847E+01
     -2.333  0.3212E+01  0.8058E+01
     -2.268  0.3004E+01  0.8257E+01
     -2.202  0.2180E+01  0.8400E+01
     -2.136  0.1342E+01  0.8489E+01
     -2.070  0.8450E+00  0.8545E+01
     -2.004  0.5769E+00  0.8583E+01
     -1.938  0.3386E+00  0.8605E+01
     -1.872  0.1850E+00  0.8617E+01
     -1.806  0.3172E+00  0.8638E+01
     -1.740  0.7344E+00  0.8687E+01
     -1.674  0.1125E+01  0.8761E+01
     -1.608  0.1243E+01  0.8843E+01
     -1.542  0.1424E+01  0.8937E+01
     -1.476  0.2413E+01  0.9096E+01
     -1.410  0.4401E+01  0.9386E+01
     -1.344  0.6420E+01  0.9810E+01
     -1.278  0.7138E+01  0.1028E+02
     -1.212  0.6237E+01  0.1069E+02
     -1.146  0.4666E+01  0.1100E+02
     -1.080  0.3568E+01  0.1124E+02
     -1.014  0.3326E+01  0.1145E+02
     -0.948  0.3640E+01  0.1169E+02
     -0.882  0.4108E+01  0.1197E+02
     -0.816  0.4415E+01  0.1226E+02
     -0.750  0.4203E+01  0.1253E+02
     -0.684  0.3245E+01  0.1275E+02
     -0.618  0.1810E+01  0.1287E+02
     -0.552  0.5332E+00  0.1290E+02
     -0.486 -0.1263E+00  0.1289E+02
     -0.420 -0.1220E+00  0.1289E+02
     -0.355  0.3442E+00  0.1291E+02
     -0.289  0.9696E+00  0.1297E+02
     -0.223  0.1449E+01  0.1307E+02
     -0.157  0.1720E+01  0.1318E+02
     -0.091  0.2045E+01  0.1332E+02
     -0.025  0.2589E+01  0.1349E+02
      0.041  0.2999E+01  0.1369E+02
      0.107  0.2738E+01  0.1387E+02
      0.173  0.1792E+01  0.1398E+02
      0.239  0.7752E+00  0.1404E+02
      0.305  0.3366E+00  0.1406E+02
      0.371  0.6095E+00  0.1410E+02
      0.437  0.1176E+01  0.1418E+02
      0.503  0.1471E+01  0.1427E+02
      0.569  0.1288E+01  0.1436E+02
      0.635  0.9317E+00  0.1442E+02
      0.701  0.7963E+00  0.1447E+02
      0.767  0.8938E+00  0.1453E+02
      0.833  0.9431E+00  0.1459E+02
      0.899  0.8939E+00  0.1465E+02
      0.965  0.1113E+01  0.1473E+02
      1.031  0.1896E+01  0.1485E+02
      1.097  0.2922E+01  0.1504E+02
      1.163  0.3434E+01  0.1527E+02
      1.229  0.3045E+01  0.1547E+02
      1.295  0.2219E+01  0.1562E+02
      1.361  0.1837E+01  0.1574E+02
      1.427  0.2395E+01  0.1590E+02
      1.493  0.3704E+01  0.1614E+02
      1.558  0.5216E+01  0.1648E+02
      1.624  0.6435E+01  0.1691E+02
      1.690  0.7047E+01  0.1737E+02
      1.756  0.6886E+01  0.1783E+02
      1.822  0.5976E+01  0.1822E+02
      1.888  0.4613E+01  0.1853E+02
      1.954  0.3323E+01  0.1875E+02
      2.020  0.2610E+01  0.1892E+02
      2.086  0.2611E+01  0.1909E+02
      2.152  0.2990E+01  0.1929E+02
      2.218  0.3394E+01  0.1951E+02
      2.284  0.4036E+01  0.1978E+02
      2.350  0.5396E+01  0.2013E+02
      2.416  0.7235E+01  0.2061E+02
      2.482  0.8518E+01  0.2117E+02
      2.548  0.8533E+01  0.2174E+02
      2.614  0.7604E+01  0.2224E+02
      2.680  0.6559E+01  0.2267E+02
      2.746  0.5943E+01  0.2306E+02
      2.812  0.5754E+01  0.2344E+02
      2.878  0.5510E+01  0.2380E+02
      2.944  0.4700E+01  0.2411E+02
      3.010  0.3561E+01  0.2435E+02
      3.076  0.3182E+01  0.2456E+02
      3.142  0.4370E+01  0.2485E+02
      3.208  0.6508E+01  0.2528E+02
      3.274  0.7926E+01  0.2580E+02
      3.340  0.7647E+01  0.2630E+02
      3.406  0.6457E+01  0.2673E+02
      3.472  0.5847E+01  0.2712E+02
      3.537  0.6111E+01  0.2752E+02
      3.603  0.6192E+01  0.2793E+02
      3.669  0.5343E+01  0.2828E+02
      3.735  0.4151E+01  0.2855E+02
      3.801  0.3625E+01  0.2879E+02
      3.867  0.3917E+01  0.2905E+02
      3.933  0.4342E+01  0.2934E+02
      3.999  0.4328E+01  0.2962E+02
      4.065  0.3969E+01  0.2989E+02
      4.131  0.3738E+01  0.3013E+02
      4.197  0.3889E+01  0.3039E+02
      4.263  0.4158E+01  0.3066E+02
      4.329  0.4009E+01  0.3093E+02
      4.395  0.3201E+01  0.3114E+02
      4.461  0.2120E+01  0.3128E+02
      4.527  0.1450E+01  0.3137E+02
      4.593  0.1437E+01  0.3147E+02
      4.659  0.1645E+01  0.3158E+02
      4.725  0.1511E+01  0.3168E+02
      4.791  0.9935E+00  0.3174E+02
      4.857  0.5193E+00  0.3178E+02
      4.923  0.4230E+00  0.3180E+02
      4.989  0.6173E+00  0.3185E+02
      5.055  0.7828E+00  0.3190E+02
      5.121  0.7279E+00  0.3194E+02
      5.187  0.5061E+00  0.3198E+02
      5.253  0.2674E+00  0.3200E+02
      5.319  0.1002E+00  0.3200E+02
      5.385  0.1214E-01  0.3200E+02
      5.450 -0.2302E-01  0.3200E+02
      5.516 -0.3403E-01  0.3200E+02
      5.582 -0.3763E-01  0.3200E+02
      5.648 -0.2529E-01  0.3200E+02
      5.714  0.3578E-01  0.3200E+02
      5.780  0.1723E+00  0.3201E+02
      5.846  0.3671E+00  0.3203E+02
      5.912  0.5611E+00  0.3207E+02
      5.978  0.6964E+00  0.3212E+02
      6.044  0.7483E+00  0.3217E+02
      6.110  0.7308E+00  0.3221E+02
      6.176  0.6985E+00  0.3226E+02
      6.242  0.7309E+00  0.3231E+02
      6.308  0.8959E+00  0.3237E+02
      6.374  0.1230E+01  0.3245E+02
      6.440  0.1717E+01  0.3256E+02
      6.506  0.2259E+01  0.3271E+02
      6.572  0.2731E+01  0.3289E+02
      6.638  0.3093E+01  0.3309E+02
      6.704  0.3350E+01  0.3332E+02
      6.770  0.3465E+01  0.3354E+02
      6.836  0.3467E+01  0.3377E+02
      6.902  0.3544E+01  0.3401E+02
      6.968  0.3836E+01  0.3426E+02
      7.034  0.4251E+01  0.3454E+02
      7.100  0.4655E+01  0.3485E+02
      7.166  0.5099E+01  0.3518E+02
      7.232  0.5764E+01  0.3556E+02
      7.298  0.6757E+01  0.3601E+02
      7.364  0.7931E+01  0.3653E+02
      7.429  0.8793E+01  0.3711E+02
      7.495  0.8676E+01  0.3769E+02
      7.561  0.7270E+01  0.3817E+02
      7.627  0.5133E+01  0.3850E+02
      7.693  0.3490E+01  0.3873E+02
      7.759  0.3167E+01  0.3894E+02
      7.825  0.3768E+01  0.3919E+02
      7.891  0.4143E+01  0.3946E+02
      7.957  0.3608E+01  0.3970E+02
      8.023  0.2498E+01  0.3987E+02
      8.089  0.1674E+01  0.3998E+02
      8.155  0.1763E+01  0.4009E+02
      8.221  0.2845E+01  0.4028E+02
      8.287  0.4682E+01  0.4059E+02
      8.353  0.7050E+01  0.4106E+02
      8.419  0.9588E+01  0.4169E+02
      8.485  0.1143E+02  0.4244E+02
      8.551  0.1162E+02  0.4321E+02
      8.617  0.1010E+02  0.4387E+02
      8.683  0.7966E+01  0.4440E+02
      8.749  0.6354E+01  0.4482E+02
      8.815  0.5477E+01  0.4518E+02
      8.881  0.4855E+01  0.4550E+02
      8.947  0.4122E+01  0.4577E+02
      9.013  0.3333E+01  0.4599E+02
      9.079  0.2694E+01  0.4617E+02
      9.145  0.2347E+01  0.4633E+02
      9.211  0.2436E+01  0.4649E+02
      9.277  0.3145E+01  0.4669E+02
      9.342  0.4359E+01  0.4698E+02
      9.408  0.5327E+01  0.4733E+02
      9.474  0.5122E+01  0.4767E+02
      9.540  0.3622E+01  0.4791E+02
      9.606  0.1701E+01  0.4802E+02
      9.672  0.3312E+00  0.4804E+02
      9.738 -0.2138E+00  0.4803E+02
      9.804 -0.2443E+00  0.4801E+02
      9.870 -0.1322E+00  0.4800E+02
      9.936 -0.4892E-01  0.4800E+02
     10.002 -0.1345E-01  0.4800E+02
     10.068 -0.2843E-02  0.4800E+02
     10.134 -0.4696E-03  0.4800E+02
     10.200 -0.6118E-04  0.4800E+02
     10.266 -0.6325E-05  0.4800E+02
     10.332 -0.5207E-06  0.4800E+02
     10.398 -0.3423E-07  0.4800E+02
     10.464 -0.1799E-08  0.4800E+02
     10.530 -0.7573E-10  0.4800E+02
     10.596 -0.2555E-11  0.4800E+02
     10.662 -0.6851E-13  0.4800E+02
     10.728 -0.1293E-14  0.4800E+02
     10.794  0.0000E+00  0.4800E+02
     10.860  0.0000E+00  0.4800E+02
     10.926  0.0000E+00  0.4800E+02
     10.992  0.0000E+00  0.4800E+02
     11.058  0.0000E+00  0.4800E+02
     11.124  0.0000E+00  0.4800E+02
     11.190  0.0000E+00  0.4800E+02
     11.256  0.0000E+00  0.4800E+02
     11.321  0.0000E+00  0.4800E+02
     11.387  0.0000E+00  0.4800E+02
     11.453  0.0000E+00  0.4800E+02
