    8    8    1    1
  0.2137465E+02  0.5550469E-09  0.5550469E-09  0.5550469E-09  0.5000000E-15
   1.0000000000000000E-004
  CAR 
 unknown system                          
     32     10     24

  0.1262379E-14  0.1262379E-14  0.1262379E-14  0.8000000E-02
    1       -6.336411   1.000000
    2       -2.425980   1.000000
    3       -2.425980   1.000000
    4       -2.425980   1.000000
    5       -2.425980   1.000000
    6       -2.425980   1.000000
    7       -2.425980   1.000000
    8        2.503507   1.000000
    9        2.503507   1.000000
   10        2.503507   1.000000
   11        2.503507   1.000000
   12        2.503507   1.000000
   13        2.503507   1.000000
   14        5.183667   0.867605
   15        5.183667   0.867605
   16        5.183667   0.867605
   17        6.016021  -0.000001
   18        6.016021  -0.000001
   19        6.016021  -0.000001
   20        6.016021  -0.000001
   21        6.016021  -0.000001
   22        6.016021  -0.000001
   23        7.719821  -0.000000
   24        7.817698  -0.000000

  0.2000000E+00  0.1262379E-14  0.1262379E-14  0.4800000E-01
    1       -6.171199   1.000000
    2       -3.776246   1.000000
    3       -2.381312   1.000000
    4       -2.381312   1.000000
    5       -2.381312   1.000000
    6       -2.381312   1.000000
    7       -0.878776   1.000000
    8        2.137148   1.000000
    9        2.137148   1.000000
   10        2.137148   1.000000
   11        2.137148   1.000000
   12        2.653102   1.000000
   13        2.653102   1.000000
   14        4.182350   1.000000
   15        4.651395   1.000038
   16        4.651395   1.000038
   17        5.873484  -0.000121
   18        6.605679  -0.000000
   19        6.812241  -0.000000
   20        6.812241  -0.000000
   21        6.812241  -0.000000
   22        6.812241  -0.000000
   23        7.363293  -0.000000
   24        8.455663  -0.000000

  0.4000000E+00  0.1262379E-14  0.1262379E-14  0.4800000E-01
    1       -5.679404   1.000000
    2       -4.873352   1.000000
    3       -2.303602   1.000000
    4       -2.303602   1.000000
    5       -2.303602   1.000000
    6       -2.303602   1.000000
    7        0.793435   1.000000
    8        1.673795   1.000000
    9        1.673795   1.000000
   10        1.673795   1.000000
   11        1.673795   1.000000
   12        2.515460   1.000000
   13        3.094129   1.000000
   14        3.094129   1.000000
   15        3.795385   1.000000
   16        3.795385   1.000000
   17        6.125043  -0.000000
   18        6.684030  -0.000000
   19        7.652749  -0.000000
   20        8.589712  -0.000000
   21        8.589712  -0.000000
   22        8.589712  -0.000000
   23        8.589712  -0.000000
   24        8.926505  -0.000000

  0.2000000E+00  0.2000000E+00  0.1262379E-14  0.9600000E-01
    1       -6.008239   1.000000
    2       -3.668232   1.000000
    3       -3.668232   1.000000
    4       -2.661322   1.000000
    5       -2.063222   1.000000
    6       -0.962947   1.000000
    7       -0.962947   1.000000
    8        1.403434   1.000000
    9        2.174471   1.000000
   10        2.174471   1.000000
   11        2.484452   1.000000
   12        2.484452   1.000000
   13        2.763225   1.000000
   14        3.153467   1.000000
   15        4.109940   1.000000
   16        5.010498   1.033087
   17        6.312430  -0.000000
   18        6.719882  -0.000000
   19        6.719882  -0.000000
   20        7.316938  -0.000000
   21        7.316939  -0.000000
   22        7.918206  -0.000000
   23        8.063274  -0.000000
   24        8.302466  -0.000000

  0.4000000E+00  0.2000000E+00  0.1262379E-14  0.1920000E+00
    1       -5.524021   1.000000
    2       -4.733883   1.000000
    3       -3.375755   1.000000
    4       -2.998028   1.000000
    5       -1.659838   1.000000
    6       -1.242687   1.000000
    7        0.468217   1.000000
    8        1.150415   1.000000
    9        1.474682   1.000000
   10        1.835932   1.000000
   11        2.400403   1.000000
   12        2.560363   1.000000
   13        2.649662   1.000000
   14        3.229849   1.000000
   15        3.245390   1.000000
   16        4.258686   1.000000
   17        6.984000  -0.000000
   18        7.371904  -0.000000
   19        7.515948  -0.000000
   20        8.246534  -0.000000
   21        8.533400  -0.000000
   22        8.638265  -0.000000
   23        8.975265  -0.000000
   24        9.417324  -0.000000

  0.4000000E+00  0.4000000E+00  0.1262379E-14  0.9600000E-01
    1       -5.065608   1.000000
    2       -4.330663   1.000000
    3       -4.330663   1.000000
    4       -3.716702   1.000000
    5       -0.982983   1.000000
    6       -0.235498   1.000000
    7       -0.235498   1.000000
    8        0.786016   1.000000
    9        1.208026   1.000000
   10        1.743601   1.000000
   11        1.743601   1.000000
   12        2.383678   1.000000
   13        3.475371   1.000000
   14        3.506205   1.000000
   15        3.506205   1.000000
   16        4.380181   1.000000
   17        7.113433  -0.000000
   18        7.928160  -0.000000
   19        8.279375  -0.000000
   20        8.279375  -0.000000
   21        8.769686  -0.000000
   22        8.769686  -0.000000
   23        9.083073  -0.000000
   24        9.363839  -0.000000

  0.2000000E+00  0.2000000E+00  0.2000000E+00  0.6400000E-01
    1       -5.848129   1.000000
    2       -3.596740   1.000000
    3       -3.596740   1.000000
    4       -3.596740   1.000000
    5       -1.102634   1.000000
    6       -1.102634   1.000000
    7       -1.102634   1.000000
    8        1.743265   1.000000
    9        1.743265   1.000000
   10        1.743265   1.000000
   11        2.245888   1.000000
   12        2.903227   1.000000
   13        2.903227   1.000000
   14        2.903227   1.000000
   15        4.638797   1.000026
   16        4.638797   1.000026
   17        6.495530  -0.000000
   18        6.495530  -0.000000
   19        6.495530  -0.000000
   20        7.178888  -0.000000
   21        8.482118  -0.000000
   22        8.487419  -0.000000
   23        8.542971  -0.000000
   24        8.542971  -0.000000

  0.4000000E+00  0.2000000E+00  0.2000000E+00  0.1920000E+00
    1       -5.373927   1.000000
    2       -4.606744   1.000000
    3       -3.462254   1.000000
    4       -3.462254   1.000000
    5       -1.361324   1.000000
    6       -1.361324   1.000000
    7        0.001107   1.000000
    8        1.082646   1.000000
    9        1.583708   1.000000
   10        1.583708   1.000000
   11        2.700501   1.000000
   12        2.878253   1.000000
   13        2.878253   1.000000
   14        3.310781   1.000000
   15        3.936945   1.000000
   16        3.956127   1.000000
   17        6.987535  -0.000000
   18        7.450752  -0.000000
   19        7.531939  -0.000000
   20        7.531939  -0.000000
   21        8.420434  -0.000000
   22        9.190209  -0.000000
   23        9.386211  -0.000000
   24        9.453411  -0.000000

  0.4000000E+00  0.4000000E+00  0.2000000E+00  0.1920000E+00
    1       -4.935529   1.000000
    2       -4.254526   1.000000
    3       -4.254526   1.000000
    4       -3.793404   1.000000
    5       -1.285805   1.000000
    6       -0.762106   1.000000
    7       -0.762106   1.000000
    8        0.063982   1.000000
    9        1.940573   1.000000
   10        2.432888   1.000000
   11        2.432888   1.000000
   12        3.244167   1.000000
   13        3.569804   1.000000
   14        3.590027   1.000000
   15        3.590027   1.000000
   16        4.317242   1.000000
   17        7.231302  -0.000000
   18        7.383847  -0.000000
   19        7.820792  -0.000000
   20        7.820792  -0.000000
   21        8.446702  -0.000000
   22        8.446702  -0.000000
   23        8.770831  -0.000000
   24        8.849121  -0.000000

  0.4000000E+00  0.4000000E+00  0.4000000E+00  0.6400000E-01
    1       -4.575768   1.000000
    2       -4.110963   1.000000
    3       -4.110963   1.000000
    4       -4.110963   1.000000
    5       -1.363297   1.000000
    6       -1.363297   1.000000
    7       -1.363297   1.000000
    8       -0.843432   1.000000
    9        3.291571   1.000000
   10        3.291571   1.000000
   11        3.291571   1.000000
   12        3.818413   1.000000
   13        3.818413   1.000000
   14        3.818413   1.000000
   15        4.113527   1.000000
   16        4.113527   1.000000
   17        6.576521  -0.000000
   18        7.155683  -0.000000
   19        7.155683  -0.000000
   20        7.155683  -0.000000
   21        8.485778  -0.000000
   22        8.485780  -0.000000
   23        8.486830  -0.000000
   24        8.607609  -0.000000
