       N       E                     dE             d eps       ncg     rms          rms(c)
DAV:   1     0.676009681596E+02    0.67601E+02   -0.11806E+04   480   0.107E+03
DAV:   2    -0.387793114578E+02   -0.10638E+03   -0.98772E+02   656   0.151E+02
DAV:   3    -0.437930216410E+02   -0.50137E+01   -0.49455E+01   616   0.310E+01
DAV:   4    -0.438841075950E+02   -0.91086E-01   -0.90847E-01   576   0.533E+00
DAV:   5    -0.438866803993E+02   -0.25728E-02   -0.25715E-02   656   0.773E-01    0.570E+00
RMM:   6    -0.434905829452E+02    0.39610E+00   -0.18361E-01   481   0.168E+00    0.344E+00
RMM:   7    -0.432986645421E+02    0.19192E+00   -0.47566E-01   519   0.285E+00    0.278E-01
RMM:   8    -0.433070230903E+02   -0.83585E-02   -0.45196E-02   511   0.102E+00    0.812E-02
RMM:   9    -0.433079156124E+02   -0.89252E-03   -0.11629E-02   555   0.477E-01    0.744E-02
RMM:  10    -0.433082796963E+02   -0.36408E-03   -0.27842E-03   533   0.268E-01    0.417E-02
RMM:  11    -0.433082992210E+02   -0.19525E-04   -0.86141E-04   567   0.149E-01    0.416E-03
RMM:  12    -0.433083199576E+02   -0.20737E-04   -0.19235E-04   589   0.767E-02    0.389E-03
RMM:  13    -0.433083216347E+02   -0.16771E-05   -0.48771E-05   537   0.369E-02    0.331E-03
RMM:  14    -0.433083226985E+02   -0.10638E-05   -0.77761E-06   481   0.159E-02    0.226E-03
RMM:  15    -0.433083228149E+02   -0.11637E-06   -0.21329E-06   376   0.800E-03
   1 F= -.43308323E+02 E0= -.43308914E+02  d E =0.177496E-02
