 vasp.6.2.1 16May21 (build Aug 15 2022 14:47:30) complex                         
 executed on             LinuxGNU date 2025.12.30  16:12:29
 running on    4 total cores
 distrk:  each k-point on    4 cores,    1 groups
 distr:  one band on NCORE=   1 cores,    4 groups


--------------------------------------------------------------------------------------------------------


 INCAR:
   ALGO = Fast
   EDIFF = 1e-6
   ENCUT = 520.0
   ISMEAR = 1
   LASPH = True
   LCHARG = False
   LREAL = False
   LWAVE = False
   NELM = 100
   NSW = 0
   PREC = Accurate

 POTCAR:   PAW_PBE Si 05Jan2001                   
 POTCAR:   PAW_PBE Si 05Jan2001                   
   VRHFIN =Si: s2p2                                                                                 
   LEXCH  = PE                                                                                      
   EATOM  =   103.0669 eV,    7.5752 Ry                                                             
                                                                                                    
   TITEL  = PAW_PBE Si 05Jan2001                                                                    
   LULTRA =        F    use ultrasoft PP ?                                                          
   IUNSCR =        1    unscreen: 0-lin 1-nonlin 2-no                                               
   RPACOR =    1.500    partial core radius                                                         
   POMASS =   28.085; ZVAL   =    4.000    mass and valenz                                          
   RCORE  =    1.900    outmost cutoff radius                                                       
   RWIGS  =    2.480; RWIGS  =    1.312    wigner-seitz radius (au A)                               
   ENMAX  =  245.345; ENMIN  =  184.009 eV                                                          
   ICORE  =        2    local potential                                                             
   LCOR   =        T    correct aug charges                                                         
   LPAW   =        T    paw PP                                                                      
   EAUG   =  322.069                                                                                
   DEXC   =    -.007                                                                                
   RMAX   =    2.944    core radius for proj-oper                                                   
   RAUG   =    1.300    factor for augmentation sphere                                              
   RDEP   =    1.993    radius for radial grids                                                     
   QCUT   =   -4.246; QGAM   =    8.493    optimization parameters                                  
                                                                                                    
   Description                                                                                      
     l     E      TYP  RCUT    TYP  RCUT                                                            
     0   .000     23  1.900                                                                         
     0   .000     23  1.900                                                                         
     1   .000     23  1.900                                                                         
     1   .000     23  1.900                                                                         
     2   .000      7  1.900                                                                         
  local pseudopotential read in
  partial core-charges read in
  atomic valenz-charges read in
  non local Contribution for L=           0  read in
    real space projection operators read in
  non local Contribution for L=           0  read in
    real space projection operators read in
  non local Contribution for L=           1  read in
    real space projection operators read in
  non local Contribution for L=           1  read in
    real space projection operators read in
    PAW grid and wavefunctions read in

   number of l-projection  operators is LMAX  =           4
   number of lm-projection operators is LMMAX =           8

 PAW_PBE Si 05Jan2001                   :
 energy of atom  1       EATOM= -103.0669
 kinetic energy error for atom=    0.0005 (will be added to EATOM!!)


 POSCAR: # Generated by Masgent for EOS calculati
  positions in direct lattice
  No initial velocities read in
 exchange correlation table for  LEXCH =        8
   RHO(1)=    0.500       N(1)  =     2000
   RHO(2)=  100.500       N(2)  =     4000

 VTST: version 4.2, (08/11/21)

 CHAIN: initializing optimizer
 
 OPT: Using VASP Dynamics algorithm
 CHAIN: Read ICHAIN            0

 POSCAR: # Generated by Masgent for EOS calculati
  positions in direct lattice
  No initial velocities read in



--------------------------------------------------------------------------------------------------------


 ion  position               nearest neighbor table
   1  0.750  0.750  0.250-   2 2.40   4 2.40   6 2.40   8 2.40
   2  0.000  0.500  0.500-   1 2.40   3 2.40   5 2.40   7 2.40
   3  0.750  0.250  0.750-   2 2.40   4 2.40   6 2.40   8 2.40
   4  0.000  0.000  0.000-   1 2.40   3 2.40   5 2.40   7 2.40
   5  0.250  0.750  0.750-   2 2.40   4 2.40   6 2.40   8 2.40
   6  0.500  0.500  0.000-   1 2.40   3 2.40   5 2.40   7 2.40
   7  0.250  0.250  0.250-   2 2.40   4 2.40   6 2.40   8 2.40
   8  0.500  0.000  0.500-   1 2.40   3 2.40   5 2.40   7 2.40

  LATTYP: Found a simple cubic cell.
 ALAT       =     5.5504687409
  
  Lattice vectors:
  
 A1 = (   5.5504687409,   0.0000000000,   0.0000000000)
 A2 = (   0.0000000000,   5.5504687409,   0.0000000000)
 A3 = (   0.0000000000,   0.0000000000,   5.5504687409)


Analysis of symmetry for initial positions (statically):
=====================================================================
 Subroutine PRICEL returns following result:
 
  LATTYP: Found a face centered cubic cell.
 ALAT       =     5.5504687409
  
  Lattice vectors:
  
 A1 = (   2.7752343704,  -2.7752343704,   0.0000000000)
 A2 = (   2.7752343704,   0.0000000000,   2.7752343704)
 A3 = (  -0.0000000000,  -2.7752343704,   2.7752343704)
 
   4 primitive cells build up your supercell.
 

 Routine SETGRP: Setting up the symmetry group for a 
 simple cubic supercell.


 Subroutine GETGRP returns: Found 48 space group operations
 (whereof 24 operations were pure point group operations)
 out of a pool of 48 trial point group operations.


The static configuration has the point symmetry T_d .
 The point group associated with its full space group is O_h .


Analysis of symmetry for dynamics (positions and initial velocities):
=====================================================================
 Subroutine PRICEL returns following result:
 
  LATTYP: Found a face centered cubic cell.
 ALAT       =     5.5504687409
  
  Lattice vectors:
  
 A1 = (   2.7752343704,  -2.7752343704,   0.0000000000)
 A2 = (   2.7752343704,   0.0000000000,   2.7752343704)
 A3 = (  -0.0000000000,  -2.7752343704,   2.7752343704)
 
   4 primitive cells build up your supercell.
 

 Routine SETGRP: Setting up the symmetry group for a 
 simple cubic supercell.


 Subroutine GETGRP returns: Found 48 space group operations
 (whereof 24 operations were pure point group operations)
 out of a pool of 48 trial point group operations.


The dynamic configuration has the point symmetry T_d .
 The point group associated with its full space group is O_h .


 Subroutine INISYM returns: Found 48 space group operations
 (whereof 24 operations are pure point group operations),
 and found     4 'primitive' translations


----------------------------------------------------------------------------------------

                                     Primitive cell                                     

  volume of cell :      42.7493

  direct lattice vectors                    reciprocal lattice vectors
     2.775234370 -2.775234370  0.000000000     0.180164964 -0.180164964 -0.180164964
     2.775234370  0.000000000  2.775234370     0.180164964  0.180164964  0.180164964
    -0.000000000 -2.775234370  2.775234370    -0.180164964 -0.180164964  0.180164964

  length of vectors
     3.924774085  3.924774085  3.924774085     0.312054871  0.312054871  0.312054871

  position of ions in fractional coordinates (direct lattice)
     0.750000000  0.750000000  0.750000000
     0.000000000  1.000000000  1.000000000

  ion indices of the primitive-cell ions
   primitive index   ion index
                 1           1
                 2           2

----------------------------------------------------------------------------------------



 KPOINTS: # Generated by Masgent for EOS calculati

Automatic generation of k-mesh.
 Grid dimensions read from file:
 generate k-points for:    5    5    5

 Generating k-lattice:

  Cartesian coordinates                     Fractional coordinates (reciprocal lattice)
     0.036032993 -0.000000000  0.000000000     0.200000000 -0.000000000  0.000000000
     0.000000000  0.036032993  0.000000000     0.000000000  0.200000000  0.000000000
    -0.000000000 -0.000000000  0.036032993     0.000000000 -0.000000000  0.200000000

  Length of vectors
     0.036032993  0.036032993  0.036032993

  Shift w.r.t. Gamma in fractional coordinates (k-lattice)
     0.000000000  0.000000000  0.000000000

 
 Subroutine IBZKPT returns following result:
 ===========================================
 
 Found     10 irreducible k-points:
 
 Following reciprocal coordinates:
            Coordinates               Weight
  0.000000  0.000000  0.000000      1.000000
  0.200000  0.000000  0.000000      6.000000
  0.400000  0.000000  0.000000      6.000000
  0.200000  0.200000  0.000000     12.000000
  0.400000  0.200000  0.000000     24.000000
  0.400000  0.400000  0.000000     12.000000
  0.200000  0.200000  0.200000      8.000000
  0.400000  0.200000  0.200000     24.000000
  0.400000  0.400000  0.200000     24.000000
  0.400000  0.400000  0.400000      8.000000
 
 Following cartesian coordinates:
            Coordinates               Weight
  0.000000  0.000000  0.000000      1.000000
  0.036033  0.000000  0.000000      6.000000
  0.072066  0.000000  0.000000      6.000000
  0.036033  0.036033  0.000000     12.000000
  0.072066  0.036033  0.000000     24.000000
  0.072066  0.072066  0.000000     12.000000
  0.036033  0.036033  0.036033      8.000000
  0.072066  0.036033  0.036033     24.000000
  0.072066  0.072066  0.036033     24.000000
  0.072066  0.072066  0.072066      8.000000
 


--------------------------------------------------------------------------------------------------------




 Dimension of arrays:
   k-points           NKPTS =     10   k-points in BZ     NKDIM =     10   number of bands    NBANDS=     24
   number of dos      NEDOS =    301   number of ions     NIONS =      8
   non local maximal  LDIM  =      4   non local SUM 2l+1 LMDIM =      8
   total plane-waves  NPLWV =  74088
   max r-space proj   IRMAX =      1   max aug-charges    IRDMAX=  14684
   dimension x,y,z NGX =    42 NGY =   42 NGZ =   42
   dimension x,y,z NGXF=    84 NGYF=   84 NGZF=   84
   support grid    NGXF=    84 NGYF=   84 NGZF=   84
   ions per type =               8
   NGX,Y,Z   is equivalent  to a cutoff of  12.58, 12.58, 12.58 a.u.
   NGXF,Y,Z  is equivalent  to a cutoff of  25.16, 25.16, 25.16 a.u.

 SYSTEM =  unknown system                          
 POSCAR =  # Generated by Masgent for EOS calculati

 Startparameter for this run:
   NWRITE =      2    write-flag & timer
   PREC   = accura    normal or accurate (medium, high low for compatibility)
   ISTART =      0    job   : 0-new  1-cont  2-samecut
   ICHARG =      2    charge: 1-file 2-atom 10-const
   ISPIN  =      1    spin polarized calculation?
   LNONCOLLINEAR =      F non collinear calculations
   LSORBIT =      F    spin-orbit coupling
   INIWAV =      1    electr: 0-lowe 1-rand  2-diag
   LASPH  =      T    aspherical Exc in radial PAW
 Electronic Relaxation 1
   ENCUT  =  520.0 eV  38.22 Ry    6.18 a.u.  10.32 10.32 10.32*2*pi/ulx,y,z
   ENINI  =  520.0     initial cutoff
   ENAUG  =  322.1 eV  augmentation charge cutoff
   NELM   =    100;   NELMIN=  2; NELMDL=  0     # of ELM steps 
   EDIFF  = 0.1E-05   stopping-criterion for ELM
   LREAL  =      F    real-space projection
   NLSPLINE    = F    spline interpolate recip. space projectors
   LCOMPAT=      F    compatible to vasp.4.4
   GGA_COMPAT  = T    GGA compatible to vasp.4.4-vasp.4.6
   LMAXPAW     = -100 max onsite density
   LMAXMIX     =    2 max onsite mixed and CHGCAR
   VOSKOWN=      0    Vosko Wilk Nusair interpolation
   ROPT   =    0.00000
 Ionic relaxation
   EDIFFG = 0.1E-04   stopping-criterion for IOM
   NSW    =      0    number of steps for IOM
   NBLOCK =      1;   KBLOCK =      1    inner block; outer block 
   IBRION =     -1    ionic relax: 0-MD 1-quasi-New 2-CG
   NFREE  =      0    steps in history (QN), initial steepest desc. (CG)
   ISIF   =      2    stress and relaxation
   IWAVPR =     10    prediction:  0-non 1-charg 2-wave 3-comb
   ISYM   =      2    0-nonsym 1-usesym 2-fastsym
   LCORR  =      T    Harris-Foulkes like correction to forces

   POTIM  = 0.5000    time-step for ionic-motion
   TEIN   =    0.0    initial temperature
   TEBEG  =    0.0;   TEEND  =   0.0 temperature during run
   SMASS  =  -3.00    Nose mass-parameter (am)
   estimated Nose-frequenzy (Omega)   =  0.10E-29 period in steps = 0.13E+47 mass=  -0.704E-27a.u.
   SCALEE = 1.0000    scale energy and forces
   NPACO  =    256;   APACO  = 16.0  distance and # of slots for P.C.
   PSTRESS=    0.0 pullay stress

  Mass of Ions in am
   POMASS =  28.09
  Ionic Valenz
   ZVAL   =   4.00
  Atomic Wigner-Seitz radii
   RWIGS  =  -1.00
  virtual crystal weights 
   VCA    =   1.00
   NELECT =      32.0000    total number of electrons
   NUPDOWN=      -1.0000    fix difference up-down

 DOS related values:
   EMIN   =  10.00;   EMAX   =-10.00  energy-range for DOS
   EFERMI =   0.00
   ISMEAR =     1;   SIGMA  =   0.20  broadening in eV -4-tet -1-fermi 0-gaus

 Electronic relaxation 2 (details)
   IALGO  =     68    algorithm
   LDIAG  =      T    sub-space diagonalisation (order eigenvalues)
   LSUBROT=      F    optimize rotation matrix (better conditioning)
   TURBO    =      0    0=normal 1=particle mesh
   IRESTART =      0    0=no restart 2=restart with 2 vectors
   NREBOOT  =      0    no. of reboots
   NMIN     =      0    reboot dimension
   EREF     =   0.00    reference energy to select bands
   IMIX   =      4    mixing-type and parameters
     AMIX     =   0.40;   BMIX     =  1.00
     AMIX_MAG =   1.60;   BMIX_MAG =  1.00
     AMIN     =   0.10
     WC   =   100.;   INIMIX=   1;  MIXPRE=   1;  MAXMIX= -45

 Intra band minimization:
   WEIMIN = 0.0000     energy-eigenvalue tresh-hold
   EBREAK =  0.10E-07  absolut break condition
   DEPER  =   0.30     relativ break condition  

   TIME   =   0.40     timestep for ELM

  volume/ion in A,a.u.               =      21.37       144.24
  Fermi-wavevector in a.u.,A,eV,Ry     =   0.936401  1.769541 11.930223  0.876847
  Thomas-Fermi vector in A             =   2.063407

 Write flags
   LWAVE        =      F    write WAVECAR
   LDOWNSAMPLE  =      F    k-point downsampling of WAVECAR
   LCHARG       =      F    write CHGCAR
   LVTOT        =      F    write LOCPOT, total local potential
   LVHAR        =      F    write LOCPOT, Hartree potential only
   LELF         =      F    write electronic localiz. function (ELF)
   LORBIT       =      0    0 simple, 1 ext, 2 COOP (PROOUT), +10 PAW based schemes


 Dipole corrections
   LMONO  =      F    monopole corrections only (constant potential shift)
   LDIPOL =      F    correct potential (dipole corrections)
   IDIPOL =      0    1-x, 2-y, 3-z, 4-all directions 
   EPSILON=  1.0000000 bulk dielectric constant

 Exchange correlation treatment:
   GGA     =    --    GGA type
   LEXCH   =     8    internal setting for exchange type
   VOSKOWN=      0    Vosko Wilk Nusair interpolation
   LHFCALC =     F    Hartree Fock is set to
   LHFONE  =     F    Hartree Fock one center treatment
   AEXX    =    0.0000 exact exchange contribution

 Linear response parameters
   LEPSILON=     F    determine dielectric tensor
   LRPA    =     F    only Hartree local field effects (RPA)
   LNABLA  =     F    use nabla operator in PAW spheres
   LVEL    =     F    velocity operator in full k-point grid
   LINTERFAST=   F  fast interpolation
   KINTER  =     0    interpolate to denser k-point grid
   CSHIFT  =0.1000    complex shift for real part using Kramers Kronig
   OMEGAMAX=  -1.0    maximum frequency
   DEG_THRESHOLD= 0.2000000E-02 threshold for treating states as degnerate
   RTIME   =   -0.100 relaxation time in fs
  (WPLASMAI=    0.000 imaginary part of plasma frequency in eV, 0.658/RTIME)
   DFIELD  = 0.0000000 0.0000000 0.0000000 field for delta impulse in time

 Orbital magnetization related:
   ORBITALMAG=     F  switch on orbital magnetization
   LCHIMAG   =     F  perturbation theory with respect to B field
   DQ        =  0.001000  dq finite difference perturbation B field
   LLRAUG    =     F  two centre corrections for induced B field



--------------------------------------------------------------------------------------------------------


 Static calculation
 charge density and potential will be updated during run
 non-spin polarized calculation
 RMM-DIIS sequential band-by-band and
  variant of blocked Davidson during initial phase
 perform sub-space diagonalisation
    before iterative eigenvector-optimisation
 modified Broyden-mixing scheme, WC =      100.0
 initial mixing is a Kerker type mixing with AMIX =  0.4000 and BMIX =      1.0000
 Hartree-type preconditioning will be used
 using additional bands            8
 reciprocal scheme for non local part
 use partial core corrections
 calculate Harris-corrections to forces   (improved forces if not selfconsistent)
 use gradient corrections 
 use of overlap-Matrix (Vanderbilt PP)
 Methfessel and Paxton  Order N= 1 SIGMA  =   0.20


--------------------------------------------------------------------------------------------------------


  energy-cutoff  :      520.00
  volume of cell :      171.00
      direct lattice vectors                 reciprocal lattice vectors
     5.550468741  0.000000000  0.000000000     0.180164964 -0.000000000  0.000000000
     0.000000000  5.550468741  0.000000000     0.000000000  0.180164964  0.000000000
     0.000000000  0.000000000  5.550468741    -0.000000000 -0.000000000  0.180164964

  length of vectors
     5.550468741  5.550468741  5.550468741     0.180164964  0.180164964  0.180164964



 k-points in units of 2pi/SCALE and weight: # Generated by Masgent for EOS calculati
   0.00000000  0.00000000  0.00000000       0.008
   0.03603299  0.00000000  0.00000000       0.048
   0.07206599  0.00000000  0.00000000       0.048
   0.03603299  0.03603299  0.00000000       0.096
   0.07206599  0.03603299  0.00000000       0.192
   0.07206599  0.07206599  0.00000000       0.096
   0.03603299  0.03603299  0.03603299       0.064
   0.07206599  0.03603299  0.03603299       0.192
   0.07206599  0.07206599  0.03603299       0.192
   0.07206599  0.07206599  0.07206599       0.064

 k-points in reciprocal lattice and weights: # Generated by Masgent for EOS calculati
   0.00000000  0.00000000  0.00000000       0.008
   0.20000000  0.00000000  0.00000000       0.048
   0.40000000  0.00000000  0.00000000       0.048
   0.20000000  0.20000000  0.00000000       0.096
   0.40000000  0.20000000  0.00000000       0.192
   0.40000000  0.40000000  0.00000000       0.096
   0.20000000  0.20000000  0.20000000       0.064
   0.40000000  0.20000000  0.20000000       0.192
   0.40000000  0.40000000  0.20000000       0.192
   0.40000000  0.40000000  0.40000000       0.064

 position of ions in fractional coordinates (direct lattice) 
   0.75000000  0.75000000  0.25000000
   0.00000000  0.50000000  0.50000000
   0.75000000  0.25000000  0.75000000
   0.00000000  0.00000000  0.00000000
   0.25000000  0.75000000  0.75000000
   0.50000000  0.50000000  0.00000000
   0.25000000  0.25000000  0.25000000
   0.50000000  0.00000000  0.50000000

 position of ions in cartesian coordinates  (Angst):
   4.16285156  4.16285156  1.38761719
   0.00000000  2.77523437  2.77523437
   4.16285156  1.38761719  4.16285156
   0.00000000  0.00000000  0.00000000
   1.38761719  4.16285156  4.16285156
   2.77523437  2.77523437  0.00000000
   1.38761719  1.38761719  1.38761719
   2.77523437  0.00000000  2.77523437



--------------------------------------------------------------------------------------------------------


 k-point   1 :   0.0000 0.0000 0.0000  plane waves:    4625
 k-point   2 :   0.2000 0.0000 0.0000  plane waves:    4613
 k-point   3 :   0.4000 0.0000 0.0000  plane waves:    4612
 k-point   4 :   0.2000 0.2000 0.0000  plane waves:    4633
 k-point   5 :   0.4000 0.2000 0.0000  plane waves:    4594
 k-point   6 :   0.4000 0.4000 0.0000  plane waves:    4594
 k-point   7 :   0.2000 0.2000 0.2000  plane waves:    4605
 k-point   8 :   0.4000 0.2000 0.2000  plane waves:    4603
 k-point   9 :   0.4000 0.4000 0.2000  plane waves:    4593
 k-point  10 :   0.4000 0.4000 0.4000  plane waves:    4623

 maximum and minimum number of plane-waves per node :      4633     4593

 maximum number of plane-waves:      4633
 maximum index in each direction: 
   IXMAX=   10   IYMAX=   10   IZMAX=   10
   IXMIN=  -10   IYMIN=  -10   IZMIN=  -10


 serial   3D FFT for wavefunctions
 parallel 3D FFT for charge:
    minimum data exchange during FFTs selected (reduces bandwidth)


 total amount of memory used by VASP MPI-rank0    53714. kBytes
=======================================================================

   base      :      30000. kBytes
   nonl-proj :       3560. kBytes
   fftplans  :       5401. kBytes
   grid      :      10217. kBytes
   one-center:         24. kBytes
   wavefun   :       4512. kBytes

     INWAV:  cpu time    0.0000: real time    0.0002
 Broyden mixing: mesh for mixing (old mesh)
   NGX = 21   NGY = 21   NGZ = 21
  (NGX  = 84   NGY  = 84   NGZ  = 84)
  gives a total of   9261 points

 initial charge density was supplied:
 charge density of overlapping atoms calculated
 number of electron      32.0000000 magnetization 
 keeping initial charge density in first step


--------------------------------------------------------------------------------------------------------


 Maximum index for augmentation-charges         3535 (set IRDMAX)


--------------------------------------------------------------------------------------------------------


 First call to EWALD:  gamma=   0.319
 Maximum number of real-space cells 3x 3x 3
 Maximum number of reciprocal cells 3x 3x 3

    FEWALD:  cpu time    0.0005: real time    0.0005


--------------------------------------- Iteration      1(   1)  ---------------------------------------


    POTLOK:  cpu time    0.0469: real time    0.0478
    SETDIJ:  cpu time    0.0524: real time    0.0524
     EDDAV:  cpu time    0.4306: real time    0.4307
       DOS:  cpu time    0.0003: real time    0.0003
    --------------------------------------------
      LOOP:  cpu time    0.5301: real time    0.5313

 eigenvalue-minimisations  :   480
 total energy-change (2. order) : 0.6760097E+02  (-0.1180571E+04)
 number of electron      32.0000000 magnetization 
 augmentation part       32.0000000 magnetization 

 Free energy of the ion-electron system (eV)
  ---------------------------------------------------
  alpha Z        PSCENC =        12.59925364
  Ewald energy   TEWEN  =      -894.41093563
  -Hartree energ DENC   =       -48.04491816
  -exchange      EXHF   =         0.00000000
  -V(xc)+E(xc)   XCENC  =       -75.42218940
  PAW double counting   =       263.82083246     -123.07410713
  entropy T*S    EENTRO =        -0.00029635
  eigenvalues    EBANDS =       107.60251778
  atomic energy  EATOM  =       824.53081094
  Solvation  Ediel_sol  =         0.00000000
  ---------------------------------------------------
  free energy    TOTEN  =        67.60096816 eV

  energy without entropy =       67.60126451  energy(sigma->0) =       67.60106694


--------------------------------------------------------------------------------------------------------




--------------------------------------- Iteration      1(   2)  ---------------------------------------


     EDDAV:  cpu time    0.5307: real time    0.5308
       DOS:  cpu time    0.0002: real time    0.0003
    --------------------------------------------
      LOOP:  cpu time    0.5309: real time    0.5311

 eigenvalue-minimisations  :   656
 total energy-change (2. order) :-0.1063803E+03  (-0.9877169E+02)
 number of electron      32.0000000 magnetization 
 augmentation part       32.0000000 magnetization 

 Free energy of the ion-electron system (eV)
  ---------------------------------------------------
  alpha Z        PSCENC =        12.59925364
  Ewald energy   TEWEN  =      -894.41093563
  -Hartree energ DENC   =       -48.04491816
  -exchange      EXHF   =         0.00000000
  -V(xc)+E(xc)   XCENC  =       -75.42218940
  PAW double counting   =       263.82083246     -123.07410713
  entropy T*S    EENTRO =         0.00655681
  eigenvalues    EBANDS =         1.21538500
  atomic energy  EATOM  =       824.53081094
  Solvation  Ediel_sol  =         0.00000000
  ---------------------------------------------------
  free energy    TOTEN  =       -38.77931146 eV

  energy without entropy =      -38.78586827  energy(sigma->0) =      -38.78149706


--------------------------------------------------------------------------------------------------------




--------------------------------------- Iteration      1(   3)  ---------------------------------------


     EDDAV:  cpu time    0.5069: real time    0.5070
       DOS:  cpu time    0.0002: real time    0.0003
    --------------------------------------------
      LOOP:  cpu time    0.5071: real time    0.5073

 eigenvalue-minimisations  :   616
 total energy-change (2. order) :-0.5013710E+01  (-0.4945464E+01)
 number of electron      32.0000000 magnetization 
 augmentation part       32.0000000 magnetization 

 Free energy of the ion-electron system (eV)
  ---------------------------------------------------
  alpha Z        PSCENC =        12.59925364
  Ewald energy   TEWEN  =      -894.41093563
  -Hartree energ DENC   =       -48.04491816
  -exchange      EXHF   =         0.00000000
  -V(xc)+E(xc)   XCENC  =       -75.42218940
  PAW double counting   =       263.82083246     -123.07410713
  entropy T*S    EENTRO =         0.00180189
  eigenvalues    EBANDS =        -3.79357026
  atomic energy  EATOM  =       824.53081094
  Solvation  Ediel_sol  =         0.00000000
  ---------------------------------------------------
  free energy    TOTEN  =       -43.79302164 eV

  energy without entropy =      -43.79482354  energy(sigma->0) =      -43.79362227


--------------------------------------------------------------------------------------------------------




--------------------------------------- Iteration      1(   4)  ---------------------------------------


     EDDAV:  cpu time    0.4781: real time    0.4782
       DOS:  cpu time    0.0003: real time    0.0004
    --------------------------------------------
      LOOP:  cpu time    0.4783: real time    0.4786

 eigenvalue-minimisations  :   576
 total energy-change (2. order) :-0.9108595E-01  (-0.9084734E-01)
 number of electron      32.0000000 magnetization 
 augmentation part       32.0000000 magnetization 

 Free energy of the ion-electron system (eV)
  ---------------------------------------------------
  alpha Z        PSCENC =        12.59925364
  Ewald energy   TEWEN  =      -894.41093563
  -Hartree energ DENC   =       -48.04491816
  -exchange      EXHF   =         0.00000000
  -V(xc)+E(xc)   XCENC  =       -75.42218940
  PAW double counting   =       263.82083246     -123.07410713
  entropy T*S    EENTRO =         0.00181051
  eigenvalues    EBANDS =        -3.88466484
  atomic energy  EATOM  =       824.53081094
  Solvation  Ediel_sol  =         0.00000000
  ---------------------------------------------------
  free energy    TOTEN  =       -43.88410760 eV

  energy without entropy =      -43.88591811  energy(sigma->0) =      -43.88471110


--------------------------------------------------------------------------------------------------------




--------------------------------------- Iteration      1(   5)  ---------------------------------------


     EDDAV:  cpu time    0.5197: real time    0.5198
       DOS:  cpu time    0.0002: real time    0.0003
    CHARGE:  cpu time    0.0598: real time    0.0598
    MIXING:  cpu time    0.0015: real time    0.0015
    --------------------------------------------
      LOOP:  cpu time    0.5812: real time    0.5814

 eigenvalue-minimisations  :   656
 total energy-change (2. order) :-0.2572804E-02  (-0.2571482E-02)
 number of electron      32.0000000 magnetization 
 augmentation part       -1.8707695 magnetization 

 Broyden mixing:
  rms(total) = 0.57002E+00    rms(broyden)= 0.57001E+00
  rms(prec ) = 0.10466E+01
  weight for this iteration     100.00

 Free energy of the ion-electron system (eV)
  ---------------------------------------------------
  alpha Z        PSCENC =        12.59925364
  Ewald energy   TEWEN  =      -894.41093563
  -Hartree energ DENC   =       -48.04491816
  -exchange      EXHF   =         0.00000000
  -V(xc)+E(xc)   XCENC  =       -75.42218940
  PAW double counting   =       263.82083246     -123.07410713
  entropy T*S    EENTRO =         0.00180988
  eigenvalues    EBANDS =        -3.88723701
  atomic energy  EATOM  =       824.53081094
  Solvation  Ediel_sol  =         0.00000000
  ---------------------------------------------------
  free energy    TOTEN  =       -43.88668040 eV

  energy without entropy =      -43.88849028  energy(sigma->0) =      -43.88728369


--------------------------------------------------------------------------------------------------------




--------------------------------------- Iteration      1(   6)  ---------------------------------------


    POTLOK:  cpu time    0.0457: real time    0.0459
    SETDIJ:  cpu time    0.0528: real time    0.0528
    EDDIAG:  cpu time    0.0968: real time    0.0969
  RMM-DIIS:  cpu time    0.3403: real time    0.3403
    ORTHCH:  cpu time    0.0042: real time    0.0042
       DOS:  cpu time    0.0003: real time    0.0004
    CHARGE:  cpu time    0.0558: real time    0.0558
    MIXING:  cpu time    0.0010: real time    0.0010
    --------------------------------------------
      LOOP:  cpu time    0.5969: real time    0.5973

 eigenvalue-minimisations  :   481
 total energy-change (2. order) : 0.3960975E+00  (-0.1836085E-01)
 number of electron      32.0000000 magnetization 
 augmentation part       -1.8518634 magnetization 

 Broyden mixing:
  rms(total) = 0.34392E+00    rms(broyden)= 0.34392E+00
  rms(prec ) = 0.62936E+00
  weight for this iteration     100.00

 eigenvalues of (default mixing * dielectric matrix)
  average eigenvalue GAMMA=   2.5066
  2.5066

 Free energy of the ion-electron system (eV)
  ---------------------------------------------------
  alpha Z        PSCENC =        12.59925364
  Ewald energy   TEWEN  =      -894.41093563
  -Hartree energ DENC   =       -53.60290887
  -exchange      EXHF   =         0.00000000
  -V(xc)+E(xc)   XCENC  =       -74.55474498
  PAW double counting   =       276.38293218     -135.98119334
  entropy T*S    EENTRO =         0.00179540
  eigenvalues    EBANDS =         1.54440771
  atomic energy  EATOM  =       824.53081094
  Solvation  Ediel_sol  =         0.00000000
  ---------------------------------------------------
  free energy    TOTEN  =       -43.49058295 eV

  energy without entropy =      -43.49237834  energy(sigma->0) =      -43.49118141


--------------------------------------------------------------------------------------------------------




--------------------------------------- Iteration      1(   7)  ---------------------------------------


    POTLOK:  cpu time    0.0438: real time    0.0439
    SETDIJ:  cpu time    0.0524: real time    0.0524
    EDDIAG:  cpu time    0.0958: real time    0.0958
  RMM-DIIS:  cpu time    0.3556: real time    0.3556
    ORTHCH:  cpu time    0.0042: real time    0.0042
       DOS:  cpu time    0.0002: real time    0.0004
    CHARGE:  cpu time    0.0559: real time    0.0559
    MIXING:  cpu time    0.0010: real time    0.0010
    --------------------------------------------
      LOOP:  cpu time    0.6090: real time    0.6093

 eigenvalue-minimisations  :   519
 total energy-change (2. order) : 0.1919184E+00  (-0.4756552E-01)
 number of electron      32.0000000 magnetization 
 augmentation part       -1.8253885 magnetization 

 Broyden mixing:
  rms(total) = 0.27799E-01    rms(broyden)= 0.27799E-01
  rms(prec ) = 0.47700E-01
  weight for this iteration     100.00

 eigenvalues of (default mixing * dielectric matrix)
  average eigenvalue GAMMA=   2.7920
  2.7920  2.7920

 Free energy of the ion-electron system (eV)
  ---------------------------------------------------
  alpha Z        PSCENC =        12.59925364
  Ewald energy   TEWEN  =      -894.41093563
  -Hartree energ DENC   =       -63.06551310
  -exchange      EXHF   =         0.00000000
  -V(xc)+E(xc)   XCENC  =       -73.05227605
  PAW double counting   =       293.25960297     -153.31170307
  entropy T*S    EENTRO =         0.00178842
  eigenvalues    EBANDS =        10.15030734
  atomic energy  EATOM  =       824.53081094
  Solvation  Ediel_sol  =         0.00000000
  ---------------------------------------------------
  free energy    TOTEN  =       -43.29866454 eV

  energy without entropy =      -43.30045296  energy(sigma->0) =      -43.29926068


--------------------------------------------------------------------------------------------------------




--------------------------------------- Iteration      1(   8)  ---------------------------------------


    POTLOK:  cpu time    0.0432: real time    0.0433
    SETDIJ:  cpu time    0.0520: real time    0.0520
    EDDIAG:  cpu time    0.0947: real time    0.0947
  RMM-DIIS:  cpu time    0.3549: real time    0.3549
    ORTHCH:  cpu time    0.0042: real time    0.0042
       DOS:  cpu time    0.0002: real time    0.0004
    CHARGE:  cpu time    0.0560: real time    0.0560
    MIXING:  cpu time    0.0010: real time    0.0010
    --------------------------------------------
      LOOP:  cpu time    0.6063: real time    0.6066

 eigenvalue-minimisations  :   511
 total energy-change (2. order) :-0.8358548E-02  (-0.4519569E-02)
 number of electron      32.0000000 magnetization 
 augmentation part       -1.8305442 magnetization 

 Broyden mixing:
  rms(total) = 0.81234E-02    rms(broyden)= 0.81234E-02
  rms(prec ) = 0.19328E-01
  weight for this iteration     100.00

 eigenvalues of (default mixing * dielectric matrix)
  average eigenvalue GAMMA=   2.1006
  2.7428  1.7795  1.7795

 Free energy of the ion-electron system (eV)
  ---------------------------------------------------
  alpha Z        PSCENC =        12.59925364
  Ewald energy   TEWEN  =      -894.41093563
  -Hartree energ DENC   =       -62.54887654
  -exchange      EXHF   =         0.00000000
  -V(xc)+E(xc)   XCENC  =       -73.08482284
  PAW double counting   =       288.41524503     -148.31956320
  entropy T*S    EENTRO =         0.00177649
  eigenvalues    EBANDS =         9.51008902
  atomic energy  EATOM  =       824.53081094
  Solvation  Ediel_sol  =         0.00000000
  ---------------------------------------------------
  free energy    TOTEN  =       -43.30702309 eV

  energy without entropy =      -43.30879958  energy(sigma->0) =      -43.30761525


--------------------------------------------------------------------------------------------------------




--------------------------------------- Iteration      1(   9)  ---------------------------------------


    POTLOK:  cpu time    0.0434: real time    0.0436
    SETDIJ:  cpu time    0.0521: real time    0.0521
    EDDIAG:  cpu time    0.0952: real time    0.0952
  RMM-DIIS:  cpu time    0.3852: real time    0.3852
    ORTHCH:  cpu time    0.0055: real time    0.0055
       DOS:  cpu time    0.0002: real time    0.0003
    CHARGE:  cpu time    0.0583: real time    0.0583
    MIXING:  cpu time    0.0011: real time    0.0011
    --------------------------------------------
      LOOP:  cpu time    0.6410: real time    0.6413

 eigenvalue-minimisations  :   555
 total energy-change (2. order) :-0.8925221E-03  (-0.1162891E-02)
 number of electron      32.0000000 magnetization 
 augmentation part       -1.8292440 magnetization 

 Broyden mixing:
  rms(total) = 0.74423E-02    rms(broyden)= 0.74423E-02
  rms(prec ) = 0.12011E-01
  weight for this iteration     100.00

 eigenvalues of (default mixing * dielectric matrix)
  average eigenvalue GAMMA=   2.1496
  2.9798  2.9798  0.9605  1.6783

 Free energy of the ion-electron system (eV)
  ---------------------------------------------------
  alpha Z        PSCENC =        12.59925364
  Ewald energy   TEWEN  =      -894.41093563
  -Hartree energ DENC   =       -62.94282238
  -exchange      EXHF   =         0.00000000
  -V(xc)+E(xc)   XCENC  =       -73.03010610
  PAW double counting   =       289.49531250     -149.43149815
  entropy T*S    EENTRO =         0.00177698
  eigenvalues    EBANDS =         9.88029258
  atomic energy  EATOM  =       824.53081094
  Solvation  Ediel_sol  =         0.00000000
  ---------------------------------------------------
  free energy    TOTEN  =       -43.30791561 eV

  energy without entropy =      -43.30969259  energy(sigma->0) =      -43.30850794


--------------------------------------------------------------------------------------------------------




--------------------------------------- Iteration      1(  10)  ---------------------------------------


    POTLOK:  cpu time    0.0445: real time    0.0447
    SETDIJ:  cpu time    0.0523: real time    0.0523
    EDDIAG:  cpu time    0.0948: real time    0.0948
  RMM-DIIS:  cpu time    0.3717: real time    0.3717
    ORTHCH:  cpu time    0.0043: real time    0.0043
       DOS:  cpu time    0.0002: real time    0.0004
    CHARGE:  cpu time    0.0566: real time    0.0566
    MIXING:  cpu time    0.0010: real time    0.0010
    --------------------------------------------
      LOOP:  cpu time    0.6254: real time    0.6258

 eigenvalue-minimisations  :   533
 total energy-change (2. order) :-0.3640839E-03  (-0.2784195E-03)
 number of electron      32.0000000 magnetization 
 augmentation part       -1.8307352 magnetization 

 Broyden mixing:
  rms(total) = 0.41718E-02    rms(broyden)= 0.41718E-02
  rms(prec ) = 0.84856E-02
  weight for this iteration     100.00

 eigenvalues of (default mixing * dielectric matrix)
  average eigenvalue GAMMA=   2.0683
  3.3893  2.7190  2.2909  1.0921  0.8502

 Free energy of the ion-electron system (eV)
  ---------------------------------------------------
  alpha Z        PSCENC =        12.59925364
  Ewald energy   TEWEN  =      -894.41093563
  -Hartree energ DENC   =       -62.71614198
  -exchange      EXHF   =         0.00000000
  -V(xc)+E(xc)   XCENC  =       -73.06037249
  PAW double counting   =       288.71631919     -148.63100475
  entropy T*S    EENTRO =         0.00177469
  eigenvalues    EBANDS =         9.66201670
  atomic energy  EATOM  =       824.53081094
  Solvation  Ediel_sol  =         0.00000000
  ---------------------------------------------------
  free energy    TOTEN  =       -43.30827970 eV

  energy without entropy =      -43.31005438  energy(sigma->0) =      -43.30887126


--------------------------------------------------------------------------------------------------------




--------------------------------------- Iteration      1(  11)  ---------------------------------------


    POTLOK:  cpu time    0.0437: real time    0.0439
    SETDIJ:  cpu time    0.0519: real time    0.0519
    EDDIAG:  cpu time    0.0952: real time    0.0952
  RMM-DIIS:  cpu time    0.3991: real time    0.3991
    ORTHCH:  cpu time    0.0040: real time    0.0040
       DOS:  cpu time    0.0002: real time    0.0004
    CHARGE:  cpu time    0.0563: real time    0.0563
    MIXING:  cpu time    0.0010: real time    0.0010
    --------------------------------------------
      LOOP:  cpu time    0.6514: real time    0.6518

 eigenvalue-minimisations  :   567
 total energy-change (2. order) :-0.1952464E-04  (-0.8614102E-04)
 number of electron      32.0000000 magnetization 
 augmentation part       -1.8303884 magnetization 

 Broyden mixing:
  rms(total) = 0.41611E-03    rms(broyden)= 0.41609E-03
  rms(prec ) = 0.58905E-03
  weight for this iteration     100.00

 eigenvalues of (default mixing * dielectric matrix)
  average eigenvalue GAMMA=   2.2013
  4.1291  2.8469  2.4555  1.9702  0.9030  0.9030

 Free energy of the ion-electron system (eV)
  ---------------------------------------------------
  alpha Z        PSCENC =        12.59925364
  Ewald energy   TEWEN  =      -894.41093563
  -Hartree energ DENC   =       -62.85902561
  -exchange      EXHF   =         0.00000000
  -V(xc)+E(xc)   XCENC  =       -73.04165581
  PAW double counting   =       289.21457116     -149.14442021
  entropy T*S    EENTRO =         0.00177504
  eigenvalues    EBANDS =         9.80132725
  atomic energy  EATOM  =       824.53081094
  Solvation  Ediel_sol  =         0.00000000
  ---------------------------------------------------
  free energy    TOTEN  =       -43.30829922 eV

  energy without entropy =      -43.31007426  energy(sigma->0) =      -43.30889090


--------------------------------------------------------------------------------------------------------




--------------------------------------- Iteration      1(  12)  ---------------------------------------


    POTLOK:  cpu time    0.0436: real time    0.0438
    SETDIJ:  cpu time    0.0519: real time    0.0519
    EDDIAG:  cpu time    0.0952: real time    0.0952
  RMM-DIIS:  cpu time    0.4031: real time    0.4032
    ORTHCH:  cpu time    0.0040: real time    0.0040
       DOS:  cpu time    0.0002: real time    0.0004
    CHARGE:  cpu time    0.0565: real time    0.0565
    MIXING:  cpu time    0.0011: real time    0.0011
    --------------------------------------------
      LOOP:  cpu time    0.6557: real time    0.6561

 eigenvalue-minimisations  :   589
 total energy-change (2. order) :-0.2073664E-04  (-0.1923468E-04)
 number of electron      32.0000000 magnetization 
 augmentation part       -1.8305961 magnetization 

 Broyden mixing:
  rms(total) = 0.38862E-03    rms(broyden)= 0.38861E-03
  rms(prec ) = 0.58427E-03
  weight for this iteration     100.00

 eigenvalues of (default mixing * dielectric matrix)
  average eigenvalue GAMMA=   2.1068
  4.5607  2.6655  2.1817  0.8490  1.0586  1.8340  1.5979

 Free energy of the ion-electron system (eV)
  ---------------------------------------------------
  alpha Z        PSCENC =        12.59925364
  Ewald energy   TEWEN  =      -894.41093563
  -Hartree energ DENC   =       -62.86388433
  -exchange      EXHF   =         0.00000000
  -V(xc)+E(xc)   XCENC  =       -73.04164703
  PAW double counting   =       289.23134864     -149.16217273
  entropy T*S    EENTRO =         0.00177501
  eigenvalues    EBANDS =         9.80713153
  atomic energy  EATOM  =       824.53081094
  Solvation  Ediel_sol  =         0.00000000
  ---------------------------------------------------
  free energy    TOTEN  =       -43.30831996 eV

  energy without entropy =      -43.31009497  energy(sigma->0) =      -43.30891163


--------------------------------------------------------------------------------------------------------




--------------------------------------- Iteration      1(  13)  ---------------------------------------


    POTLOK:  cpu time    0.0433: real time    0.0435
    SETDIJ:  cpu time    0.0520: real time    0.0520
    EDDIAG:  cpu time    0.0959: real time    0.0959
  RMM-DIIS:  cpu time    0.3648: real time    0.3648
    ORTHCH:  cpu time    0.0042: real time    0.0042
       DOS:  cpu time    0.0002: real time    0.0004
    CHARGE:  cpu time    0.0566: real time    0.0566
    MIXING:  cpu time    0.0011: real time    0.0011
    --------------------------------------------
      LOOP:  cpu time    0.6181: real time    0.6185

 eigenvalue-minimisations  :   537
 total energy-change (2. order) :-0.1677117E-05  (-0.4877051E-05)
 number of electron      32.0000000 magnetization 
 augmentation part       -1.8306493 magnetization 

 Broyden mixing:
  rms(total) = 0.33141E-03    rms(broyden)= 0.33140E-03
  rms(prec ) = 0.60640E-03
  weight for this iteration     100.00

 eigenvalues of (default mixing * dielectric matrix)
  average eigenvalue GAMMA=   1.9390
  3.2706  3.2706  2.6531  2.3928  0.8466  1.0642  1.0642  0.9497

 Free energy of the ion-electron system (eV)
  ---------------------------------------------------
  alpha Z        PSCENC =        12.59925364
  Ewald energy   TEWEN  =      -894.41093563
  -Hartree energ DENC   =       -62.86165119
  -exchange      EXHF   =         0.00000000
  -V(xc)+E(xc)   XCENC  =       -73.04263201
  PAW double counting   =       289.17683960     -149.10671847
  entropy T*S    EENTRO =         0.00177484
  eigenvalues    EBANDS =         9.80493664
  atomic energy  EATOM  =       824.53081094
  Solvation  Ediel_sol  =         0.00000000
  ---------------------------------------------------
  free energy    TOTEN  =       -43.30832163 eV

  energy without entropy =      -43.31009647  energy(sigma->0) =      -43.30891325


--------------------------------------------------------------------------------------------------------




--------------------------------------- Iteration      1(  14)  ---------------------------------------


    POTLOK:  cpu time    0.0433: real time    0.0435
    SETDIJ:  cpu time    0.0519: real time    0.0519
    EDDIAG:  cpu time    0.0950: real time    0.0950
  RMM-DIIS:  cpu time    0.3364: real time    0.3364
    ORTHCH:  cpu time    0.0042: real time    0.0042
       DOS:  cpu time    0.0002: real time    0.0004
    CHARGE:  cpu time    0.0564: real time    0.0564
    MIXING:  cpu time    0.0011: real time    0.0011
    --------------------------------------------
      LOOP:  cpu time    0.5886: real time    0.5889

 eigenvalue-minimisations  :   481
 total energy-change (2. order) :-0.1063755E-05  (-0.7776099E-06)
 number of electron      32.0000000 magnetization 
 augmentation part       -1.8307001 magnetization 

 Broyden mixing:
  rms(total) = 0.22624E-03    rms(broyden)= 0.22624E-03
  rms(prec ) = 0.37609E-03
  weight for this iteration     100.00

 eigenvalues of (default mixing * dielectric matrix)
  average eigenvalue GAMMA=   1.7404
  3.4936  2.9607  2.6321  2.3975  0.8752  0.9299  1.0310  1.0310  0.3123

 Free energy of the ion-electron system (eV)
  ---------------------------------------------------
  alpha Z        PSCENC =        12.59925364
  Ewald energy   TEWEN  =      -894.41093563
  -Hartree energ DENC   =       -62.85683403
  -exchange      EXHF   =         0.00000000
  -V(xc)+E(xc)   XCENC  =       -73.04301062
  PAW double counting   =       289.16750921     -149.09682570
  entropy T*S    EENTRO =         0.00177496
  eigenvalues    EBANDS =         9.79993454
  atomic energy  EATOM  =       824.53081094
  Solvation  Ediel_sol  =         0.00000000
  ---------------------------------------------------
  free energy    TOTEN  =       -43.30832270 eV

  energy without entropy =      -43.31009765  energy(sigma->0) =      -43.30891435


--------------------------------------------------------------------------------------------------------




--------------------------------------- Iteration      1(  15)  ---------------------------------------


    POTLOK:  cpu time    0.0433: real time    0.0434
    SETDIJ:  cpu time    0.0519: real time    0.0519
    EDDIAG:  cpu time    0.0982: real time    0.0982
  RMM-DIIS:  cpu time    0.2850: real time    0.2850
    ORTHCH:  cpu time    0.0042: real time    0.0042
       DOS:  cpu time    0.0002: real time    0.0003
    --------------------------------------------
      LOOP:  cpu time    0.4828: real time    0.4830

 eigenvalue-minimisations  :   376
 total energy-change (2. order) :-0.1163698E-06  (-0.2132929E-06)
 number of electron      32.0000000 magnetization 
 augmentation part       -1.8307001 magnetization 

 Free energy of the ion-electron system (eV)
  ---------------------------------------------------
  alpha Z        PSCENC =        12.59925364
  Ewald energy   TEWEN  =      -894.41093563
  -Hartree energ DENC   =       -62.85588557
  -exchange      EXHF   =         0.00000000
  -V(xc)+E(xc)   XCENC  =       -73.04317813
  PAW double counting   =       289.16473405     -149.09402119
  entropy T*S    EENTRO =         0.00177496
  eigenvalues    EBANDS =         9.79912412
  atomic energy  EATOM  =       824.53081094
  Solvation  Ediel_sol  =         0.00000000
  ---------------------------------------------------
  free energy    TOTEN  =       -43.30832281 eV

  energy without entropy =      -43.31009777  energy(sigma->0) =      -43.30891447


--------------------------------------------------------------------------------------------------------




 average (electrostatic) potential at core
  the test charge radii are     0.9892
  (the norm of the test charge is              1.0000)
       1 -83.9683       2 -83.9683       3 -83.9683       4 -83.9683       5 -83.9683
       6 -83.9683       7 -83.9683       8 -83.9683



 E-fermi :   5.2828     XC(G=0):  -9.1544     alpha+bet :-11.2210

 Fermi energy:         5.2827625949

 k-point     1 :       0.0000    0.0000    0.0000
  band No.  band energies     occupation 
      1      -6.3364      2.00000
      2      -2.4260      2.00000
      3      -2.4260      2.00000
      4      -2.4260      2.00000
      5      -2.4260      2.00000
      6      -2.4260      2.00000
      7      -2.4260      2.00000
      8       2.5035      2.00000
      9       2.5035      2.00000
     10       2.5035      2.00000
     11       2.5035      2.00000
     12       2.5035      2.00000
     13       2.5035      2.00000
     14       5.1837      1.73521
     15       5.1837      1.73521
     16       5.1837      1.73521
     17       6.0160     -0.00000
     18       6.0160     -0.00000
     19       6.0160     -0.00000
     20       6.0160     -0.00000
     21       6.0160     -0.00000
     22       6.0160     -0.00000
     23       7.7198     -0.00000
     24       7.8177     -0.00000

 k-point     2 :       0.2000    0.0000    0.0000
  band No.  band energies     occupation 
      1      -6.1712      2.00000
      2      -3.7762      2.00000
      3      -2.3813      2.00000
      4      -2.3813      2.00000
      5      -2.3813      2.00000
      6      -2.3813      2.00000
      7      -0.8788      2.00000
      8       2.1371      2.00000
      9       2.1371      2.00000
     10       2.1371      2.00000
     11       2.1371      2.00000
     12       2.6531      2.00000
     13       2.6531      2.00000
     14       4.1823      2.00000
     15       4.6514      2.00008
     16       4.6514      2.00008
     17       5.8735     -0.00024
     18       6.6057     -0.00000
     19       6.8122     -0.00000
     20       6.8122     -0.00000
     21       6.8122     -0.00000
     22       6.8122     -0.00000
     23       7.3633     -0.00000
     24       8.4557     -0.00000

 k-point     3 :       0.4000    0.0000    0.0000
  band No.  band energies     occupation 
      1      -5.6794      2.00000
      2      -4.8734      2.00000
      3      -2.3036      2.00000
      4      -2.3036      2.00000
      5      -2.3036      2.00000
      6      -2.3036      2.00000
      7       0.7934      2.00000
      8       1.6738      2.00000
      9       1.6738      2.00000
     10       1.6738      2.00000
     11       1.6738      2.00000
     12       2.5155      2.00000
     13       3.0941      2.00000
     14       3.0941      2.00000
     15       3.7954      2.00000
     16       3.7954      2.00000
     17       6.1250     -0.00000
     18       6.6840     -0.00000
     19       7.6527     -0.00000
     20       8.5897     -0.00000
     21       8.5897     -0.00000
     22       8.5897     -0.00000
     23       8.5897     -0.00000
     24       8.9265     -0.00000

 k-point     4 :       0.2000    0.2000    0.0000
  band No.  band energies     occupation 
      1      -6.0082      2.00000
      2      -3.6682      2.00000
      3      -3.6682      2.00000
      4      -2.6613      2.00000
      5      -2.0632      2.00000
      6      -0.9629      2.00000
      7      -0.9629      2.00000
      8       1.4034      2.00000
      9       2.1745      2.00000
     10       2.1745      2.00000
     11       2.4845      2.00000
     12       2.4845      2.00000
     13       2.7632      2.00000
     14       3.1535      2.00000
     15       4.1099      2.00000
     16       5.0105      2.06617
     17       6.3124     -0.00000
     18       6.7199     -0.00000
     19       6.7199     -0.00000
     20       7.3169     -0.00000
     21       7.3169     -0.00000
     22       7.9182     -0.00000
     23       8.0633     -0.00000
     24       8.3025     -0.00000

 k-point     5 :       0.4000    0.2000    0.0000
  band No.  band energies     occupation 
      1      -5.5240      2.00000
      2      -4.7339      2.00000
      3      -3.3758      2.00000
      4      -2.9980      2.00000
      5      -1.6598      2.00000
      6      -1.2427      2.00000
      7       0.4682      2.00000
      8       1.1504      2.00000
      9       1.4747      2.00000
     10       1.8359      2.00000
     11       2.4004      2.00000
     12       2.5604      2.00000
     13       2.6497      2.00000
     14       3.2298      2.00000
     15       3.2454      2.00000
     16       4.2587      2.00000
     17       6.9840     -0.00000
     18       7.3719     -0.00000
     19       7.5159     -0.00000
     20       8.2465     -0.00000
     21       8.5334     -0.00000
     22       8.6383     -0.00000
     23       8.9753     -0.00000
     24       9.4173     -0.00000

 k-point     6 :       0.4000    0.4000    0.0000
  band No.  band energies     occupation 
      1      -5.0656      2.00000
      2      -4.3307      2.00000
      3      -4.3307      2.00000
      4      -3.7167      2.00000
      5      -0.9830      2.00000
      6      -0.2355      2.00000
      7      -0.2355      2.00000
      8       0.7860      2.00000
      9       1.2080      2.00000
     10       1.7436      2.00000
     11       1.7436      2.00000
     12       2.3837      2.00000
     13       3.4754      2.00000
     14       3.5062      2.00000
     15       3.5062      2.00000
     16       4.3802      2.00000
     17       7.1134     -0.00000
     18       7.9282     -0.00000
     19       8.2794     -0.00000
     20       8.2794     -0.00000
     21       8.7697     -0.00000
     22       8.7697     -0.00000
     23       9.0831     -0.00000
     24       9.3638     -0.00000

 k-point     7 :       0.2000    0.2000    0.2000
  band No.  band energies     occupation 
      1      -5.8481      2.00000
      2      -3.5967      2.00000
      3      -3.5967      2.00000
      4      -3.5967      2.00000
      5      -1.1026      2.00000
      6      -1.1026      2.00000
      7      -1.1026      2.00000
      8       1.7433      2.00000
      9       1.7433      2.00000
     10       1.7433      2.00000
     11       2.2459      2.00000
     12       2.9032      2.00000
     13       2.9032      2.00000
     14       2.9032      2.00000
     15       4.6388      2.00005
     16       4.6388      2.00005
     17       6.4955     -0.00000
     18       6.4955     -0.00000
     19       6.4955     -0.00000
     20       7.1789     -0.00000
     21       8.4821     -0.00000
     22       8.4874     -0.00000
     23       8.5430     -0.00000
     24       8.5430     -0.00000

 k-point     8 :       0.4000    0.2000    0.2000
  band No.  band energies     occupation 
      1      -5.3739      2.00000
      2      -4.6067      2.00000
      3      -3.4623      2.00000
      4      -3.4623      2.00000
      5      -1.3613      2.00000
      6      -1.3613      2.00000
      7       0.0011      2.00000
      8       1.0826      2.00000
      9       1.5837      2.00000
     10       1.5837      2.00000
     11       2.7005      2.00000
     12       2.8783      2.00000
     13       2.8783      2.00000
     14       3.3108      2.00000
     15       3.9369      2.00000
     16       3.9561      2.00000
     17       6.9875     -0.00000
     18       7.4508     -0.00000
     19       7.5319     -0.00000
     20       7.5319     -0.00000
     21       8.4204     -0.00000
     22       9.1902     -0.00000
     23       9.3862     -0.00000
     24       9.4534     -0.00000

 k-point     9 :       0.4000    0.4000    0.2000
  band No.  band energies     occupation 
      1      -4.9355      2.00000
      2      -4.2545      2.00000
      3      -4.2545      2.00000
      4      -3.7934      2.00000
      5      -1.2858      2.00000
      6      -0.7621      2.00000
      7      -0.7621      2.00000
      8       0.0640      2.00000
      9       1.9406      2.00000
     10       2.4329      2.00000
     11       2.4329      2.00000
     12       3.2442      2.00000
     13       3.5698      2.00000
     14       3.5900      2.00000
     15       3.5900      2.00000
     16       4.3172      2.00000
     17       7.2313     -0.00000
     18       7.3838     -0.00000
     19       7.8208     -0.00000
     20       7.8208     -0.00000
     21       8.4467     -0.00000
     22       8.4467     -0.00000
     23       8.7708     -0.00000
     24       8.8491     -0.00000

 k-point    10 :       0.4000    0.4000    0.4000
  band No.  band energies     occupation 
      1      -4.5758      2.00000
      2      -4.1110      2.00000
      3      -4.1110      2.00000
      4      -4.1110      2.00000
      5      -1.3633      2.00000
      6      -1.3633      2.00000
      7      -1.3633      2.00000
      8      -0.8434      2.00000
      9       3.2916      2.00000
     10       3.2916      2.00000
     11       3.2916      2.00000
     12       3.8184      2.00000
     13       3.8184      2.00000
     14       3.8184      2.00000
     15       4.1135      2.00000
     16       4.1135      2.00000
     17       6.5765     -0.00000
     18       7.1557     -0.00000
     19       7.1557     -0.00000
     20       7.1557     -0.00000
     21       8.4858     -0.00000
     22       8.4858     -0.00000
     23       8.4868     -0.00000
     24       8.6076     -0.00000


--------------------------------------------------------------------------------------------------------


 soft charge-density along one line, spin component           1
         0         1         2         3         4         5         6         7         8         9
 total charge-density along one line

 pseudopotential strength for first ion, spin component:           1
 18.487  -0.000   0.000  -0.000  -0.000  -0.000   0.000   0.000
 -0.000   0.006  -0.000   0.000   0.000   0.000  -0.000  -0.000
  0.000  -0.000   4.186  -0.000  -0.000  -0.004   0.000   0.000
 -0.000   0.000  -0.000   4.186   0.000   0.000  -0.004  -0.000
 -0.000   0.000  -0.000   0.000   4.186   0.000  -0.000  -0.004
 -0.000   0.000  -0.004   0.000   0.000   0.005  -0.000   0.000
  0.000  -0.000   0.000  -0.004  -0.000  -0.000   0.005  -0.000
  0.000  -0.000   0.000  -0.000  -0.004   0.000  -0.000   0.005
 total augmentation occupancy for first ion, spin component:           1
  1.504  -0.696  -0.000   0.000   0.000  -0.000  -0.000  -0.000
 -0.696   0.667   0.000  -0.000   0.000   0.000  -0.000  -0.000
 -0.000   0.000   0.987   0.000   0.000  -0.513  -0.000  -0.000
 -0.000   0.000   0.000   0.987   0.000  -0.000  -0.513  -0.000
 -0.000  -0.000   0.000   0.000   0.987  -0.000  -0.000  -0.513
 -0.000   0.000  -0.513  -0.000  -0.000   0.316   0.000   0.000
 -0.000   0.000  -0.000  -0.513  -0.000   0.000   0.316   0.000
 -0.000   0.000  -0.000  -0.000  -0.513   0.000   0.000   0.316


------------------------ aborting loop because EDIFF is reached ----------------------------------------


    CHARGE:  cpu time    0.0592: real time    0.0592
    FORLOC:  cpu time    0.0024: real time    0.0024
    FORNL :  cpu time    0.1038: real time    0.1038
    STRESS:  cpu time    0.1904: real time    0.1904
    FORCOR:  cpu time    0.0459: real time    0.0459
    FORHAR:  cpu time    0.0110: real time    0.0110
    MIXING:  cpu time    0.0013: real time    0.0013
    OFIELD:  cpu time    0.0000: real time    0.0000

  FORCE on cell =-STRESS in cart. coord.  units (eV):
  Direction    XX          YY          ZZ          XY          YZ          ZX
  --------------------------------------------------------------------------------------
  Alpha Z    12.59925    12.59925    12.59925
  Ewald    -298.13749  -298.13749  -298.13749    -0.00000     0.00000    -0.00000
  Hartree    20.94988    20.94988    20.94988    -0.00000    -0.00000    -0.00000
  E(xc)     -99.98745   -99.98745   -99.98745     0.00000     0.00000    -0.00000
  Local    -120.59205  -120.59205  -120.59205     0.00000    -0.00000    -0.00000
  n-local   306.67838   309.84552   303.98996    -3.07006    -1.89400    -1.53036
  augment   -46.58682   -46.58682   -46.58682     0.00000     0.00000    -0.00000
  Kinetic   214.76948   225.15074   223.30262    -4.17081    -4.17799    -2.67811
  Fock        0.00000     0.00000     0.00000     0.00000     0.00000     0.00000
  -------------------------------------------------------------------------------------
  Total      -3.84244    -3.84244    -3.84244    -0.00000     0.00000    -0.00000
  in kB     -36.00217   -36.00217   -36.00217    -0.00000     0.00000    -0.00000
  external pressure =      -36.00 kB  Pullay stress =        0.00 kB


 VOLUME and BASIS-vectors are now :
 -----------------------------------------------------------------------------
  energy-cutoff  :      520.00
  volume of cell :      171.00
      direct lattice vectors                 reciprocal lattice vectors
     5.550468741  0.000000000  0.000000000     0.180164964 -0.000000000  0.000000000
     0.000000000  5.550468741  0.000000000     0.000000000  0.180164964  0.000000000
     0.000000000  0.000000000  5.550468741    -0.000000000 -0.000000000  0.180164964

  length of vectors
     5.550468741  5.550468741  5.550468741     0.180164964  0.180164964  0.180164964


 FORCES acting on ions
    electron-ion (+dipol)            ewald-force                    non-local-force                 convergence-correction
 -----------------------------------------------------------------------------------------------
   -.102E-13 0.121E-12 -.588E-12   -.711E-14 0.355E-14 -.711E-14   -.246E-16 0.247E-16 0.139E-16   0.699E-14 0.311E-14 -.121E-15
   -.237E-13 -.130E-13 -.182E-13   -.503E-14 -.108E-13 0.711E-14   0.722E-17 0.173E-17 -.121E-16   0.960E-15 -.934E-15 -.106E-14
   -.832E-14 -.480E-12 -.471E-13   0.000E+00 0.711E-14 -.142E-13   0.570E-16 -.564E-17 -.434E-17   0.666E-14 0.123E-14 0.134E-14
   -.243E-13 0.214E-14 -.196E-14   0.392E-14 -.712E-14 -.347E-15   -.405E-16 0.304E-16 -.260E-17   0.114E-14 -.256E-14 -.976E-15
   0.211E-13 0.555E-13 -.205E-12   0.355E-14 0.711E-14 0.000E+00   -.176E-16 0.213E-16 0.520E-17   -.631E-14 0.337E-14 0.115E-14
   -.230E-13 -.235E-12 0.257E-12   0.215E-16 -.663E-14 0.139E-13   0.194E-16 -.867E-17 0.000E+00   0.233E-14 -.118E-14 -.111E-14
   0.243E-13 0.950E-13 -.187E-12   0.711E-14 0.107E-13 -.711E-14   0.223E-16 -.178E-16 0.260E-17   -.623E-14 0.894E-15 -.411E-16
   -.307E-13 -.104E-14 0.584E-13   0.357E-14 -.360E-14 0.707E-14   -.283E-16 0.217E-16 -.234E-16   0.189E-14 -.244E-14 -.988E-15
 -----------------------------------------------------------------------------------------------
   -.749E-13 -.456E-12 -.732E-12   0.605E-14 0.224E-15 -.729E-15   -.520E-17 0.677E-16 -.208E-16   0.743E-14 0.148E-14 -.180E-14


 POSITION                                       TOTAL-FORCE (eV/Angst)
 -----------------------------------------------------------------------------------
      4.16285      4.16285      1.38762        -0.000000      0.000000     -0.000000
      0.00000      2.77523      2.77523         0.000000     -0.000000      0.000000
      4.16285      1.38762      4.16285         0.000000     -0.000000     -0.000000
      0.00000      0.00000      0.00000        -0.000000     -0.000000      0.000000
      1.38762      4.16285      4.16285        -0.000000     -0.000000      0.000000
      2.77523      2.77523      0.00000         0.000000      0.000000     -0.000000
      1.38762      1.38762      1.38762        -0.000000     -0.000000      0.000000
      2.77523      0.00000      2.77523         0.000000      0.000000     -0.000000
 -----------------------------------------------------------------------------------
    total drift:                               -0.000000     -0.000000     -0.000000


--------------------------------------------------------------------------------------------------------



  FREE ENERGIE OF THE ION-ELECTRON SYSTEM (eV)
  ---------------------------------------------------
  free  energy   TOTEN  =       -43.30832281 eV

  energy  without entropy=      -43.31009777  energy(sigma->0) =      -43.30891447



--------------------------------------------------------------------------------------------------------


    POTLOK:  cpu time    0.0957: real time    0.0957


--------------------------------------------------------------------------------------------------------


 stress matrix after NEB project (eV)
     -3.84244     -0.00000     -0.00000
     -0.00000     -3.84244      0.00000
     -0.00000      0.00000     -3.84244
  FORCES: max atom, RMS     0.000000    0.000000
  FORCE total and by dimension    0.000000    0.000000
  Stress total and by dimension    6.655301    3.842440
     LOOP+:  cpu time    9.2680: real time    9.2749
    4ORBIT:  cpu time    0.0000: real time    0.0000

 total amount of memory used by VASP MPI-rank0    53714. kBytes
=======================================================================

   base      :      30000. kBytes
   nonl-proj :       3560. kBytes
   fftplans  :       5401. kBytes
   grid      :      10217. kBytes
   one-center:         24. kBytes
   wavefun   :       4512. kBytes

  
  
 General timing and accounting informations for this job:
 ========================================================
  
                  Total CPU time used (sec):        9.934
                            User time (sec):        9.481
                          System time (sec):        0.453
                         Elapsed time (sec):        9.994
  
                   Maximum memory used (kb):       63164.
                   Average memory used (kb):          N/A
  
                          Minor page faults:        88077
                          Major page faults:          352
                 Voluntary context switches:          638
