<?xml version="1.0" encoding="ISO-8859-1"?>
<modeling>
 <generator>
  <i name="program" type="string">vasp </i>
  <i name="version" type="string">6.2.1  </i>
  <i name="subversion" type="string">16May21 (build Aug 15 2022 14:47:30) complex                          parallel </i>
  <i name="platform" type="string">LinuxGNU </i>
  <i name="date" type="string">2025 12 30 </i>
  <i name="time" type="string">16:12:29 </i>
 </generator>
 <incar>
  <i type="string" name="PREC">Accurate</i>
  <i type="string" name="ALGO">Fast</i>
  <i type="int" name="NELM">   100</i>
  <i name="EDIFF">      0.00000100</i>
  <i type="int" name="NSW">     0</i>
  <i name="ENCUT">    520.00000000</i>
  <i type="logical" name="LREAL"> F  </i>
  <i type="int" name="ISMEAR">     1</i>
  <i type="logical" name="LWAVE"> F  </i>
  <i type="logical" name="LCHARG"> F  </i>
  <i type="logical" name="LASPH"> T  </i>
 </incar>
 <primitive_cell>
  <structure name="primitive_cell" >
   <crystal>
    <varray name="basis" >
     <v>       2.77523437      -2.77523437       0.00000000 </v>
     <v>       2.77523437       0.00000000       2.77523437 </v>
     <v>      -0.00000000      -2.77523437       2.77523437 </v>
    </varray>
    <i name="volume">     42.74929846 </i>
    <varray name="rec_basis" >
     <v>       0.18016496      -0.18016496      -0.18016496 </v>
     <v>       0.18016496       0.18016496       0.18016496 </v>
     <v>      -0.18016496      -0.18016496       0.18016496 </v>
    </varray>
   </crystal>
   <varray name="positions" >
    <v>       0.75000000       0.75000000       0.75000000 </v>
    <v>       0.00000000       1.00000000       1.00000000 </v>
   </varray>
  </structure>
  <varray name="primitive_index" >
   <v type="int" >        1 </v>
   <v type="int" >        2 </v>
  </varray>
 </primitive_cell>
 <kpoints>
  <generation param="Gamma">
   <v type="int" name="divisions">       5        5        5 </v>
   <v name="usershift">      0.00000000       0.00000000       0.00000000 </v>
   <v name="genvec1">      0.20000000      -0.00000000       0.00000000 </v>
   <v name="genvec2">      0.00000000       0.20000000       0.00000000 </v>
   <v name="genvec3">      0.00000000      -0.00000000       0.20000000 </v>
   <v name="shift">      0.00000000       0.00000000       0.00000000 </v>
  </generation>
  <varray name="kpointlist" >
   <v>       0.00000000       0.00000000       0.00000000 </v>
   <v>       0.20000000       0.00000000       0.00000000 </v>
   <v>       0.40000000       0.00000000       0.00000000 </v>
   <v>       0.20000000       0.20000000       0.00000000 </v>
   <v>       0.40000000       0.20000000       0.00000000 </v>
   <v>       0.40000000       0.40000000       0.00000000 </v>
   <v>       0.20000000       0.20000000       0.20000000 </v>
   <v>       0.40000000       0.20000000       0.20000000 </v>
   <v>       0.40000000       0.40000000       0.20000000 </v>
   <v>       0.40000000       0.40000000       0.40000000 </v>
  </varray>
  <varray name="weights" >
   <v>       0.00800000 </v>
   <v>       0.04800000 </v>
   <v>       0.04800000 </v>
   <v>       0.09600000 </v>
   <v>       0.19200000 </v>
   <v>       0.09600000 </v>
   <v>       0.06400000 </v>
   <v>       0.19200000 </v>
   <v>       0.19200000 </v>
   <v>       0.06400000 </v>
  </varray>
 </kpoints>
 <parameters>
  <separator name="general" >
   <i type="string" name="SYSTEM">unknown system</i>
   <i type="logical" name="LCOMPAT"> F  </i>
  </separator>
  <separator name="electronic" >
   <i type="string" name="PREC">accura</i>
   <i name="ENMAX">    520.00000000</i>
   <i name="ENAUG">    322.06900000</i>
   <i name="EDIFF">      0.00000100</i>
   <i type="int" name="IALGO">    68</i>
   <i type="int" name="IWAVPR">    10</i>
   <i type="int" name="NBANDS">    24</i>
   <i type="int" name="NBANDSLOW">    -1</i>
   <i type="int" name="NBANDSHIGH">    -1</i>
   <i name="NELECT">     32.00000000</i>
   <i type="int" name="TURBO">     0</i>
   <i type="int" name="IRESTART">     0</i>
   <i type="int" name="NREBOOT">     0</i>
   <i type="int" name="NMIN">     0</i>
   <i name="EREF">      0.00000000</i>
   <separator name="electronic smearing" >
    <i type="int" name="ISMEAR">     1</i>
    <i name="SIGMA">      0.20000000</i>
    <i name="KSPACING">      0.50000000</i>
    <i type="logical" name="KGAMMA"> T  </i>
    <i type="logical" name="KBLOWUP"> T  </i>
   </separator>
   <separator name="electronic projectors" >
    <i type="logical" name="LREAL"> F  </i>
    <v name="ROPT">      0.00000000</v>
    <i type="int" name="LMAXPAW">  -100</i>
    <i type="int" name="LMAXMIX">     2</i>
    <i type="logical" name="NLSPLINE"> F  </i>
   </separator>
   <separator name="electronic startup" >
    <i type="int" name="ISTART">     0</i>
    <i type="int" name="ICHARG">     2</i>
    <i type="int" name="INIWAV">     1</i>
   </separator>
   <separator name="electronic spin" >
    <i type="int" name="ISPIN">     1</i>
    <i type="logical" name="LNONCOLLINEAR"> F  </i>
    <v name="MAGMOM">      1.00000000      1.00000000      1.00000000      1.00000000      1.00000000      1.00000000      1.00000000      1.00000000</v>
    <i name="NUPDOWN">     -1.00000000</i>
    <i type="logical" name="LSORBIT"> F  </i>
    <v name="SAXIS">      0.00000000      0.00000000      1.00000000</v>
    <i type="logical" name="LSPIRAL"> F  </i>
    <v name="QSPIRAL">      0.00000000      0.00000000      0.00000000</v>
    <i type="logical" name="LZEROZ"> F  </i>
   </separator>
   <separator name="electronic exchange-correlation" >
    <i type="logical" name="LASPH"> T  </i>
    <i type="logical" name="LMETAGGA"> F  </i>
   </separator>
   <separator name="electronic convergence" >
    <i type="int" name="NELM">   100</i>
    <i type="int" name="NELMDL">     0</i>
    <i type="int" name="NELMIN">     2</i>
    <i name="ENINI">    520.00000000</i>
    <separator name="electronic convergence detail" >
     <i type="logical" name="LDIAG"> T  </i>
     <i type="logical" name="LSUBROT"> F  </i>
     <i name="WEIMIN">      0.00000000</i>
     <i name="EBREAK">      0.00000001</i>
     <i name="DEPER">      0.30000000</i>
     <i type="int" name="NRMM">     4</i>
     <i name="TIME">      0.40000000</i>
    </separator>
   </separator>
   <separator name="electronic mixer" >
    <i name="AMIX">      0.40000000</i>
    <i name="BMIX">      1.00000000</i>
    <i name="AMIN">      0.10000000</i>
    <i name="AMIX_MAG">      1.60000000</i>
    <i name="BMIX_MAG">      1.00000000</i>
    <separator name="electronic mixer details" >
     <i type="int" name="IMIX">     4</i>
     <i type="logical" name="MIXFIRST"> F  </i>
     <i type="int" name="MAXMIX">   -45</i>
     <i name="WC">    100.00000000</i>
     <i type="int" name="INIMIX">     1</i>
     <i type="int" name="MIXPRE">     1</i>
     <i type="int" name="MREMOVE">     5</i>
    </separator>
   </separator>
   <separator name="electronic dipolcorrection" >
    <i type="logical" name="LDIPOL"> F  </i>
    <i type="logical" name="LMONO"> F  </i>
    <i type="int" name="IDIPOL">     0</i>
    <i name="EPSILON">      1.00000000</i>
    <v name="DIPOL">   -100.00000000   -100.00000000   -100.00000000</v>
    <i name="EFIELD">      0.00000000</i>
   </separator>
  </separator>
  <separator name="grids" >
   <i type="int" name="NGX">    42</i>
   <i type="int" name="NGY">    42</i>
   <i type="int" name="NGZ">    42</i>
   <i type="int" name="NGXF">    84</i>
   <i type="int" name="NGYF">    84</i>
   <i type="int" name="NGZF">    84</i>
   <i type="logical" name="ADDGRID"> F  </i>
  </separator>
  <separator name="ionic" >
   <i type="int" name="NSW">     0</i>
   <i type="int" name="IBRION">    -1</i>
   <i type="int" name="MDALGO">     0</i>
   <i type="int" name="ISIF">     2</i>
   <i name="PSTRESS">      0.00000000</i>
   <i name="EDIFFG">      0.00001000</i>
   <i type="int" name="NFREE">     0</i>
   <i name="POTIM">      0.50000000</i>
   <i name="SMASS">     -3.00000000</i>
   <i name="SCALEE">      1.00000000</i>
  </separator>
  <separator name="ionic md" >
   <i name="TEBEG">      0.00010000</i>
   <i name="TEEND">      0.00010000</i>
   <i type="int" name="NBLOCK">     1</i>
   <i type="int" name="KBLOCK">     1</i>
   <i type="int" name="NPACO">   256</i>
   <i name="APACO">     16.00000000</i>
  </separator>
  <separator name="symmetry" >
   <i type="int" name="ISYM">     2</i>
   <i name="SYMPREC">      0.00001000</i>
  </separator>
  <separator name="dos" >
   <i type="int" name="LORBIT">     0</i>
   <v name="RWIGS">     -1.00000000</v>
   <i type="int" name="NEDOS">   301</i>
   <i name="EMIN">     10.00000000</i>
   <i name="EMAX">    -10.00000000</i>
   <i name="EFERMI">      0.00000000</i>
  </separator>
  <separator name="writing" >
   <i type="int" name="NWRITE">     2</i>
   <i type="logical" name="LWAVE"> F  </i>
   <i type="logical" name="LDOWNSAMPLE"> F  </i>
   <i type="logical" name="LCHARG"> F  </i>
   <i type="logical" name="LPARD"> F  </i>
   <i type="logical" name="LVTOT"> F  </i>
   <i type="logical" name="LVHAR"> F  </i>
   <i type="logical" name="LELF"> F  </i>
   <i type="logical" name="LOPTICS"> F  </i>
   <v name="STM">      0.00000000      0.00000000      0.00000000      0.00000000      0.00000000      0.00000000      0.00000000</v>
  </separator>
  <separator name="performance" >
   <i type="int" name="NPAR">     4</i>
   <i type="int" name="NSIM">     4</i>
   <i type="int" name="NBLK">    -1</i>
   <i type="logical" name="LPLANE"> T  </i>
   <i type="logical" name="LSCALAPACK"> T  </i>
   <i type="logical" name="LSCAAWARE"> F  </i>
   <i type="logical" name="LSCALU"> F  </i>
   <i type="logical" name="LASYNC"> F  </i>
   <i type="logical" name="LORBITALREAL"> F  </i>
  </separator>
  <separator name="miscellaneous" >
   <i type="int" name="IDIOT">     3</i>
   <i type="int" name="PHON_NSTRUCT">    -1</i>
   <i type="logical" name="LMUSIC"> F  </i>
   <v name="POMASS">     28.08500000</v>
   <v name="DARWINR">      0.00000000</v>
   <v name="DARWINV">      1.00000000</v>
   <i type="logical" name="LCORR"> T  </i>
  </separator>
  <i type="logical" name="GGA_COMPAT"> T  </i>
  <i type="logical" name="LBERRY"> F  </i>
  <i type="int" name="ICORELEVEL">     0</i>
  <i type="logical" name="LDAU"> F  </i>
  <i type="int" name="I_CONSTRAINED_M">     0</i>
  <separator name="electronic exchange-correlation" >
   <i type="string" name="GGA">--</i>
   <i type="int" name="VOSKOWN">     0</i>
   <i type="logical" name="LHFCALC"> F  </i>
   <i type="string" name="PRECFOCK"></i>
   <i type="logical" name="LSYMGRAD"> F  </i>
   <i type="logical" name="LHFONE"> F  </i>
   <i type="logical" name="LRHFCALC"> F  </i>
   <i type="logical" name="LTHOMAS"> F  </i>
   <i type="logical" name="LMODELHF"> F  </i>
   <i type="logical" name="LFOCKACE"> F  </i>
   <i name="ENCUT4O">     -1.00000000</i>
   <i type="int" name="EXXOEP">     0</i>
   <i type="int" name="FOURORBIT">     0</i>
   <i name="AEXX">      0.00000000</i>
   <i name="HFALPHA">      0.00000000</i>
   <i name="MCALPHA">      0.00000000</i>
   <i name="ALDAX">      1.00000000</i>
   <i name="AGGAX">      1.00000000</i>
   <i name="ALDAC">      1.00000000</i>
   <i name="AGGAC">      1.00000000</i>
   <i type="int" name="NKREDX">     1</i>
   <i type="int" name="NKREDY">     1</i>
   <i type="int" name="NKREDZ">     1</i>
   <i type="logical" name="SHIFTRED"> F  </i>
   <i type="logical" name="ODDONLY"> F  </i>
   <i type="logical" name="EVENONLY"> F  </i>
   <i type="int" name="LMAXFOCK">     0</i>
   <i type="int" name="NMAXFOCKAE">     0</i>
   <i type="logical" name="LFOCKAEDFT"> F  </i>
   <i name="HFSCREEN">      0.00000000</i>
   <i name="HFSCREENC">      0.00000000</i>
   <i type="int" name="NBANDSGWLOW">     0</i>
  </separator>
  <separator name="vdW DFT" >
   <i type="logical" name="LUSE_VDW"> F  </i>
   <i name="Zab_VDW">     -0.84910000</i>
   <i name="PARAM1">      0.12340000</i>
   <i name="PARAM2">      1.00000000</i>
   <i name="PARAM3">      0.00000000</i>
  </separator>
  <separator name="model GW" >
   <i type="int" name="MODEL_GW">     0</i>
   <i name="MODEL_EPS0">     12.82478954</i>
   <i name="MODEL_ALPHA">      1.00000000</i>
  </separator>
  <separator name="linear response parameters" >
   <i type="logical" name="LEPSILON"> F  </i>
   <i type="logical" name="LRPA"> F  </i>
   <i type="logical" name="LNABLA"> F  </i>
   <i type="logical" name="LVEL"> F  </i>
   <i type="int" name="KINTER">     0</i>
   <i name="CSHIFT">      0.10000000</i>
   <i name="OMEGAMAX">     -1.00000000</i>
   <i name="DEG_THRESHOLD">      0.00200000</i>
   <i name="RTIME">     -0.10000000</i>
   <i name="WPLASMAI">      0.00000000</i>
   <v name="DFIELD">      0.00000000      0.00000000      0.00000000</v>
   <v name="WPLASMA">      0.00000000      0.00000000      0.00000000      0.00000000      0.00000000      0.00000000      0.00000000      0.00000000      0.00000000</v>
  </separator>
  <separator name="orbital magnetization" >
   <i type="logical" name="NUCIND"> F  </i>
   <v name="MAGPOS">      0.00000000      0.00000000      0.00000000</v>
   <i type="logical" name="LNICSALL"> T  </i>
   <i type="logical" name="ORBITALMAG"> F  </i>
   <i type="logical" name="LMAGBLOCH"> F  </i>
   <i type="logical" name="LCHIMAG"> F  </i>
   <i type="logical" name="LGAUGE"> T  </i>
   <i type="int" name="MAGATOM">     0</i>
   <v name="MAGDIPOL">      0.00000000      0.00000000      0.00000000</v>
   <v name="AVECCONST">      0.00000000      0.00000000      0.00000000</v>
  </separator>
  <separator name="response functions" >
   <i type="logical" name="LFINITE_TEMPERATURE"> F  </i>
   <i type="logical" name="LADDER"> F  </i>
   <i type="logical" name="LRPAFORCE"> F  </i>
   <i type="logical" name="LFXC"> F  </i>
   <i type="logical" name="LHARTREE"> T  </i>
   <i type="int" name="IBSE">     0</i>
   <v type="int" name="KPOINT">    -1     0     0     0</v>
   <i type="logical" name="LTCTC"> F  </i>
   <i type="logical" name="LTCTE"> F  </i>
   <i type="logical" name="LTETE"> F  </i>
   <i type="logical" name="LTRIPLET"> F  </i>
   <i type="logical" name="LFXCEPS"> F  </i>
   <i type="logical" name="LFXHEG"> F  </i>
   <i type="int" name="NATURALO">     2</i>
   <i type="logical" name="LHOLEGF"> F  </i>
   <i type="logical" name="L2ORDER"> F  </i>
   <i type="logical" name="LDMP1"> F  </i>
   <i type="logical" name="LMP2LT"> F  </i>
   <i type="logical" name="LSMP2LT"> F  </i>
   <i type="logical" name="LGWLF"> F  </i>
   <i name="ENCUTGW">     -2.00000000</i>
   <i name="ENCUTGWSOFT">     -2.00000000</i>
   <i name="ENCUTLF">     -1.00000000</i>
   <i type="logical" name="LESF_SPLINES"> F  </i>
   <i type="int" name="LMAXMP2">    -1</i>
   <i name="SCISSOR">      0.00000000</i>
   <i type="int" name="NOMEGA">     0</i>
   <i type="int" name="NOMEGAR">     0</i>
   <i type="int" name="NBANDSGW">    -1</i>
   <i type="int" name="NBANDSO">    -1</i>
   <i type="int" name="NBANDSV">    -1</i>
   <i type="int" name="NELM">   100</i>
   <i type="int" name="NELMHF">     1</i>
   <i type="int" name="DIM">     3</i>
   <i type="int" name="IESPILON">     4</i>
   <i type="int" name="ANTIRES">     0</i>
   <i name="OMEGAMAX">    -30.00000000</i>
   <i name="OMEGAMIN">    -30.00000000</i>
   <i name="OMEGATL">   -200.00000000</i>
   <i type="int" name="OMEGAGRID">     0</i>
   <i name="CSHIFT">     -0.10000000</i>
   <i type="logical" name="LSELFENERGY"> F  </i>
   <i type="logical" name="LSPECTRAL"> F  </i>
   <i type="logical" name="LSPECTRALGW"> F  </i>
   <i type="logical" name="LSINGLES"> F  </i>
   <i type="logical" name="LFERMIGW"> F  </i>
   <i type="logical" name="ODDONLYGW"> F  </i>
   <i type="logical" name="EVENONLYGW"> F  </i>
   <i type="int" name="NKREDLFX">     1</i>
   <i type="int" name="NKREDLFY">     1</i>
   <i type="int" name="NKREDLFZ">     1</i>
   <i type="int" name="MAXMEM">  2800</i>
   <i type="int" name="TELESCOPE">     0</i>
   <i type="int" name="NTAUPAR">    -1</i>
   <i type="int" name="NOMEGAPAR">    -1</i>
   <i name="DAMP_NEWTON">      0.80000001</i>
   <i name="LAMBDA">      1.00000000</i>
  </separator>
  <separator name="External order field" >
   <i name="OFIELD_KAPPA">      0.00000000</i>
   <v name="OFIELD_K">      0.00000000      0.00000000      0.00000000</v>
   <i name="OFIELD_Q6_NEAR">      0.00000000</i>
   <i name="OFIELD_Q6_FAR">      0.00000000</i>
   <i name="OFIELD_A">      0.00000000</i>
  </separator>
 </parameters>
 <atominfo>
  <atoms>       8 </atoms>
  <types>       1 </types>
  <array name="atoms" >
   <dimension dim="1">ion</dimension>
   <field type="string">element</field>
   <field type="int">atomtype</field>
   <set>
    <rc><c>Si</c><c>   1</c></rc>
    <rc><c>Si</c><c>   1</c></rc>
    <rc><c>Si</c><c>   1</c></rc>
    <rc><c>Si</c><c>   1</c></rc>
    <rc><c>Si</c><c>   1</c></rc>
    <rc><c>Si</c><c>   1</c></rc>
    <rc><c>Si</c><c>   1</c></rc>
    <rc><c>Si</c><c>   1</c></rc>
   </set>
  </array>
  <array name="atomtypes" >
   <dimension dim="1">type</dimension>
   <field type="int">atomspertype</field>
   <field type="string">element</field>
   <field>mass</field>
   <field>valence</field>
   <field type="string">pseudopotential</field>
   <set>
    <rc><c>   8</c><c>Si</c><c>     28.08500000</c><c>      4.00000000</c><c> PAW_PBE Si 05Jan2001                   </c></rc>
   </set>
  </array>
 </atominfo>
 <structure name="initialpos" >
  <crystal>
   <varray name="basis" >
    <v>       5.55046874       0.00000000       0.00000000 </v>
    <v>       0.00000000       5.55046874       0.00000000 </v>
    <v>       0.00000000       0.00000000       5.55046874 </v>
   </varray>
   <i name="volume">    170.99719383 </i>
   <varray name="rec_basis" >
    <v>       0.18016496      -0.00000000       0.00000000 </v>
    <v>       0.00000000       0.18016496       0.00000000 </v>
    <v>      -0.00000000      -0.00000000       0.18016496 </v>
   </varray>
  </crystal>
  <varray name="positions" >
   <v>       0.75000000       0.75000000       0.25000000 </v>
   <v>       0.00000000       0.50000000       0.50000000 </v>
   <v>       0.75000000       0.25000000       0.75000000 </v>
   <v>       0.00000000       0.00000000       0.00000000 </v>
   <v>       0.25000000       0.75000000       0.75000000 </v>
   <v>       0.50000000       0.50000000       0.00000000 </v>
   <v>       0.25000000       0.25000000       0.25000000 </v>
   <v>       0.50000000       0.00000000       0.50000000 </v>
  </varray>
 </structure>
 <calculation>
  <scstep>
   <time name="dav">    0.43    0.43</time>
   <time name="total">    0.53    0.53</time>
   <energy>
    <i name="alphaZ">     12.59925364 </i>
    <i name="ewald">   -894.41093563 </i>
    <i name="hartreedc">    -48.04491816 </i>
    <i name="XCdc">    -75.42218940 </i>
    <i name="pawpsdc">    263.82083246 </i>
    <i name="pawaedc">   -123.07410713 </i>
    <i name="eentropy">     -0.00029635 </i>
    <i name="bandstr">    107.60251778 </i>
    <i name="atom">    824.53081094 </i>
    <i name="e_fr_energy">     67.60096816 </i>
    <i name="e_wo_entrp">     67.60126451 </i>
    <i name="e_0_energy">     67.60106694 </i>
   </energy>
  </scstep>
  <scstep>
   <time name="dav">    0.53    0.53</time>
   <time name="total">    0.53    0.53</time>
   <energy>
    <i name="e_fr_energy">    -38.77931146 </i>
    <i name="e_wo_entrp">    -38.78586827 </i>
    <i name="e_0_energy">    -38.78149706 </i>
   </energy>
  </scstep>
  <scstep>
   <time name="dav">    0.51    0.51</time>
   <time name="total">    0.51    0.51</time>
   <energy>
    <i name="e_fr_energy">    -43.79302164 </i>
    <i name="e_wo_entrp">    -43.79482354 </i>
    <i name="e_0_energy">    -43.79362227 </i>
   </energy>
  </scstep>
  <scstep>
   <time name="dav">    0.48    0.48</time>
   <time name="total">    0.48    0.48</time>
   <energy>
    <i name="e_fr_energy">    -43.88410760 </i>
    <i name="e_wo_entrp">    -43.88591811 </i>
    <i name="e_0_energy">    -43.88471110 </i>
   </energy>
  </scstep>
  <scstep>
   <time name="dav">    0.52    0.52</time>
   <time name="total">    0.58    0.58</time>
   <energy>
    <i name="e_fr_energy">    -43.88668040 </i>
    <i name="e_wo_entrp">    -43.88849028 </i>
    <i name="e_0_energy">    -43.88728369 </i>
   </energy>
  </scstep>
  <scstep>
   <time name="diag">    0.10    0.10</time>
   <time name="diis">    0.34    0.34</time>
   <time name="orth">    0.00    0.00</time>
   <time name="total">    0.60    0.60</time>
   <energy>
    <i name="e_fr_energy">    -43.49058295 </i>
    <i name="e_wo_entrp">    -43.49237834 </i>
    <i name="e_0_energy">    -43.49118141 </i>
   </energy>
  </scstep>
  <scstep>
   <time name="diag">    0.10    0.10</time>
   <time name="diis">    0.36    0.36</time>
   <time name="orth">    0.00    0.00</time>
   <time name="total">    0.61    0.61</time>
   <energy>
    <i name="e_fr_energy">    -43.29866454 </i>
    <i name="e_wo_entrp">    -43.30045296 </i>
    <i name="e_0_energy">    -43.29926068 </i>
   </energy>
  </scstep>
  <scstep>
   <time name="diag">    0.09    0.09</time>
   <time name="diis">    0.35    0.35</time>
   <time name="orth">    0.00    0.00</time>
   <time name="total">    0.61    0.61</time>
   <energy>
    <i name="e_fr_energy">    -43.30702309 </i>
    <i name="e_wo_entrp">    -43.30879958 </i>
    <i name="e_0_energy">    -43.30761525 </i>
   </energy>
  </scstep>
  <scstep>
   <time name="diag">    0.10    0.10</time>
   <time name="diis">    0.39    0.39</time>
   <time name="orth">    0.01    0.01</time>
   <time name="total">    0.64    0.64</time>
   <energy>
    <i name="e_fr_energy">    -43.30791561 </i>
    <i name="e_wo_entrp">    -43.30969259 </i>
    <i name="e_0_energy">    -43.30850794 </i>
   </energy>
  </scstep>
  <scstep>
   <time name="diag">    0.09    0.09</time>
   <time name="diis">    0.37    0.37</time>
   <time name="orth">    0.00    0.00</time>
   <time name="total">    0.63    0.63</time>
   <energy>
    <i name="e_fr_energy">    -43.30827970 </i>
    <i name="e_wo_entrp">    -43.31005438 </i>
    <i name="e_0_energy">    -43.30887126 </i>
   </energy>
  </scstep>
  <scstep>
   <time name="diag">    0.10    0.10</time>
   <time name="diis">    0.40    0.40</time>
   <time name="orth">    0.00    0.00</time>
   <time name="total">    0.65    0.65</time>
   <energy>
    <i name="e_fr_energy">    -43.30829922 </i>
    <i name="e_wo_entrp">    -43.31007426 </i>
    <i name="e_0_energy">    -43.30889090 </i>
   </energy>
  </scstep>
  <scstep>
   <time name="diag">    0.10    0.10</time>
   <time name="diis">    0.40    0.40</time>
   <time name="orth">    0.00    0.00</time>
   <time name="total">    0.66    0.66</time>
   <energy>
    <i name="e_fr_energy">    -43.30831996 </i>
    <i name="e_wo_entrp">    -43.31009497 </i>
    <i name="e_0_energy">    -43.30891163 </i>
   </energy>
  </scstep>
  <scstep>
   <time name="diag">    0.10    0.10</time>
   <time name="diis">    0.36    0.36</time>
   <time name="orth">    0.00    0.00</time>
   <time name="total">    0.62    0.62</time>
   <energy>
    <i name="e_fr_energy">    -43.30832163 </i>
    <i name="e_wo_entrp">    -43.31009647 </i>
    <i name="e_0_energy">    -43.30891325 </i>
   </energy>
  </scstep>
  <scstep>
   <time name="diag">    0.09    0.10</time>
   <time name="diis">    0.34    0.34</time>
   <time name="orth">    0.00    0.00</time>
   <time name="total">    0.59    0.59</time>
   <energy>
    <i name="e_fr_energy">    -43.30832270 </i>
    <i name="e_wo_entrp">    -43.31009765 </i>
    <i name="e_0_energy">    -43.30891435 </i>
   </energy>
  </scstep>
  <scstep>
   <time name="diag">    0.10    0.10</time>
   <time name="diis">    0.28    0.29</time>
   <time name="orth">    0.00    0.00</time>
   <time name="total">    0.48    0.48</time>
   <energy>
    <i name="alphaZ">     12.59925364 </i>
    <i name="ewald">   -894.41093563 </i>
    <i name="hartreedc">    -62.85588557 </i>
    <i name="XCdc">    -73.04317813 </i>
    <i name="pawpsdc">    289.16473405 </i>
    <i name="pawaedc">   -149.09402119 </i>
    <i name="eentropy">      0.00177496 </i>
    <i name="bandstr">      9.79912412 </i>
    <i name="atom">    824.53081094 </i>
    <i name="e_fr_energy">    -43.30832281 </i>
    <i name="e_wo_entrp">    -43.31009777 </i>
    <i name="e_0_energy">    -43.30891447 </i>
   </energy>
  </scstep>
  <structure>
   <crystal>
    <varray name="basis" >
     <v>       5.55046874       0.00000000       0.00000000 </v>
     <v>       0.00000000       5.55046874       0.00000000 </v>
     <v>       0.00000000       0.00000000       5.55046874 </v>
    </varray>
    <i name="volume">    170.99719383 </i>
    <varray name="rec_basis" >
     <v>       0.18016496      -0.00000000       0.00000000 </v>
     <v>       0.00000000       0.18016496       0.00000000 </v>
     <v>      -0.00000000      -0.00000000       0.18016496 </v>
    </varray>
   </crystal>
   <varray name="positions" >
    <v>       0.75000000       0.75000000       0.25000000 </v>
    <v>       0.00000000       0.50000000       0.50000000 </v>
    <v>       0.75000000       0.25000000       0.75000000 </v>
    <v>       0.00000000       0.00000000       0.00000000 </v>
    <v>       0.25000000       0.75000000       0.75000000 </v>
    <v>       0.50000000       0.50000000       0.00000000 </v>
    <v>       0.25000000       0.25000000       0.25000000 </v>
    <v>       0.50000000       0.00000000       0.50000000 </v>
   </varray>
  </structure>
  <varray name="forces" >
   <v>      -0.00000000       0.00000000      -0.00000000 </v>
   <v>       0.00000000      -0.00000000       0.00000000 </v>
   <v>       0.00000000      -0.00000000      -0.00000000 </v>
   <v>      -0.00000000      -0.00000000       0.00000000 </v>
   <v>      -0.00000000      -0.00000000       0.00000000 </v>
   <v>       0.00000000       0.00000000      -0.00000000 </v>
   <v>      -0.00000000      -0.00000000       0.00000000 </v>
   <v>       0.00000000       0.00000000      -0.00000000 </v>
  </varray>
  <varray name="stress" >
   <v>     -36.00216938      -0.00000000      -0.00000000 </v>
   <v>      -0.00000000     -36.00216938       0.00000000 </v>
   <v>      -0.00000000       0.00000000     -36.00216938 </v>
  </varray>
  <energy>
   <i name="e_fr_energy">    -43.30832281 </i>
   <i name="e_wo_entrp">    -43.31009777 </i>
   <i name="e_0_energy">    -43.30891447 </i>
  </energy>
  <time name="totalsc">    9.27    9.27</time>
  <eigenvalues>
   <array>
    <dimension dim="1">band</dimension>
    <dimension dim="2">kpoint</dimension>
    <dimension dim="3">spin</dimension>
    <field>eigene</field>
    <field>occ</field>
    <set>
     <set comment="spin 1">
      <set comment="kpoint 1">
       <r>   -6.3364    1.0000 </r>
       <r>   -2.4260    1.0000 </r>
       <r>   -2.4260    1.0000 </r>
       <r>   -2.4260    1.0000 </r>
       <r>   -2.4260    1.0000 </r>
       <r>   -2.4260    1.0000 </r>
       <r>   -2.4260    1.0000 </r>
       <r>    2.5035    1.0000 </r>
       <r>    2.5035    1.0000 </r>
       <r>    2.5035    1.0000 </r>
       <r>    2.5035    1.0000 </r>
       <r>    2.5035    1.0000 </r>
       <r>    2.5035    1.0000 </r>
       <r>    5.1837    0.8676 </r>
       <r>    5.1837    0.8676 </r>
       <r>    5.1837    0.8676 </r>
       <r>    6.0160   -0.0000 </r>
       <r>    6.0160   -0.0000 </r>
       <r>    6.0160   -0.0000 </r>
       <r>    6.0160   -0.0000 </r>
       <r>    6.0160   -0.0000 </r>
       <r>    6.0160   -0.0000 </r>
       <r>    7.7198   -0.0000 </r>
       <r>    7.8177   -0.0000 </r>
      </set>
      <set comment="kpoint 2">
       <r>   -6.1712    1.0000 </r>
       <r>   -3.7762    1.0000 </r>
       <r>   -2.3813    1.0000 </r>
       <r>   -2.3813    1.0000 </r>
       <r>   -2.3813    1.0000 </r>
       <r>   -2.3813    1.0000 </r>
       <r>   -0.8788    1.0000 </r>
       <r>    2.1371    1.0000 </r>
       <r>    2.1371    1.0000 </r>
       <r>    2.1371    1.0000 </r>
       <r>    2.1371    1.0000 </r>
       <r>    2.6531    1.0000 </r>
       <r>    2.6531    1.0000 </r>
       <r>    4.1823    1.0000 </r>
       <r>    4.6514    1.0000 </r>
       <r>    4.6514    1.0000 </r>
       <r>    5.8735   -0.0001 </r>
       <r>    6.6057   -0.0000 </r>
       <r>    6.8122   -0.0000 </r>
       <r>    6.8122   -0.0000 </r>
       <r>    6.8122   -0.0000 </r>
       <r>    6.8122   -0.0000 </r>
       <r>    7.3633   -0.0000 </r>
       <r>    8.4557   -0.0000 </r>
      </set>
      <set comment="kpoint 3">
       <r>   -5.6794    1.0000 </r>
       <r>   -4.8734    1.0000 </r>
       <r>   -2.3036    1.0000 </r>
       <r>   -2.3036    1.0000 </r>
       <r>   -2.3036    1.0000 </r>
       <r>   -2.3036    1.0000 </r>
       <r>    0.7934    1.0000 </r>
       <r>    1.6738    1.0000 </r>
       <r>    1.6738    1.0000 </r>
       <r>    1.6738    1.0000 </r>
       <r>    1.6738    1.0000 </r>
       <r>    2.5155    1.0000 </r>
       <r>    3.0941    1.0000 </r>
       <r>    3.0941    1.0000 </r>
       <r>    3.7954    1.0000 </r>
       <r>    3.7954    1.0000 </r>
       <r>    6.1250   -0.0000 </r>
       <r>    6.6840   -0.0000 </r>
       <r>    7.6527   -0.0000 </r>
       <r>    8.5897   -0.0000 </r>
       <r>    8.5897   -0.0000 </r>
       <r>    8.5897   -0.0000 </r>
       <r>    8.5897   -0.0000 </r>
       <r>    8.9265   -0.0000 </r>
      </set>
      <set comment="kpoint 4">
       <r>   -6.0082    1.0000 </r>
       <r>   -3.6682    1.0000 </r>
       <r>   -3.6682    1.0000 </r>
       <r>   -2.6613    1.0000 </r>
       <r>   -2.0632    1.0000 </r>
       <r>   -0.9629    1.0000 </r>
       <r>   -0.9629    1.0000 </r>
       <r>    1.4034    1.0000 </r>
       <r>    2.1745    1.0000 </r>
       <r>    2.1745    1.0000 </r>
       <r>    2.4845    1.0000 </r>
       <r>    2.4845    1.0000 </r>
       <r>    2.7632    1.0000 </r>
       <r>    3.1535    1.0000 </r>
       <r>    4.1099    1.0000 </r>
       <r>    5.0105    1.0331 </r>
       <r>    6.3124   -0.0000 </r>
       <r>    6.7199   -0.0000 </r>
       <r>    6.7199   -0.0000 </r>
       <r>    7.3169   -0.0000 </r>
       <r>    7.3169   -0.0000 </r>
       <r>    7.9182   -0.0000 </r>
       <r>    8.0633   -0.0000 </r>
       <r>    8.3025   -0.0000 </r>
      </set>
      <set comment="kpoint 5">
       <r>   -5.5240    1.0000 </r>
       <r>   -4.7339    1.0000 </r>
       <r>   -3.3758    1.0000 </r>
       <r>   -2.9980    1.0000 </r>
       <r>   -1.6598    1.0000 </r>
       <r>   -1.2427    1.0000 </r>
       <r>    0.4682    1.0000 </r>
       <r>    1.1504    1.0000 </r>
       <r>    1.4747    1.0000 </r>
       <r>    1.8359    1.0000 </r>
       <r>    2.4004    1.0000 </r>
       <r>    2.5604    1.0000 </r>
       <r>    2.6497    1.0000 </r>
       <r>    3.2298    1.0000 </r>
       <r>    3.2454    1.0000 </r>
       <r>    4.2587    1.0000 </r>
       <r>    6.9840   -0.0000 </r>
       <r>    7.3719   -0.0000 </r>
       <r>    7.5159   -0.0000 </r>
       <r>    8.2465   -0.0000 </r>
       <r>    8.5334   -0.0000 </r>
       <r>    8.6383   -0.0000 </r>
       <r>    8.9753   -0.0000 </r>
       <r>    9.4173   -0.0000 </r>
      </set>
      <set comment="kpoint 6">
       <r>   -5.0656    1.0000 </r>
       <r>   -4.3307    1.0000 </r>
       <r>   -4.3307    1.0000 </r>
       <r>   -3.7167    1.0000 </r>
       <r>   -0.9830    1.0000 </r>
       <r>   -0.2355    1.0000 </r>
       <r>   -0.2355    1.0000 </r>
       <r>    0.7860    1.0000 </r>
       <r>    1.2080    1.0000 </r>
       <r>    1.7436    1.0000 </r>
       <r>    1.7436    1.0000 </r>
       <r>    2.3837    1.0000 </r>
       <r>    3.4754    1.0000 </r>
       <r>    3.5062    1.0000 </r>
       <r>    3.5062    1.0000 </r>
       <r>    4.3802    1.0000 </r>
       <r>    7.1134   -0.0000 </r>
       <r>    7.9282   -0.0000 </r>
       <r>    8.2794   -0.0000 </r>
       <r>    8.2794   -0.0000 </r>
       <r>    8.7697   -0.0000 </r>
       <r>    8.7697   -0.0000 </r>
       <r>    9.0831   -0.0000 </r>
       <r>    9.3638   -0.0000 </r>
      </set>
      <set comment="kpoint 7">
       <r>   -5.8481    1.0000 </r>
       <r>   -3.5967    1.0000 </r>
       <r>   -3.5967    1.0000 </r>
       <r>   -3.5967    1.0000 </r>
       <r>   -1.1026    1.0000 </r>
       <r>   -1.1026    1.0000 </r>
       <r>   -1.1026    1.0000 </r>
       <r>    1.7433    1.0000 </r>
       <r>    1.7433    1.0000 </r>
       <r>    1.7433    1.0000 </r>
       <r>    2.2459    1.0000 </r>
       <r>    2.9032    1.0000 </r>
       <r>    2.9032    1.0000 </r>
       <r>    2.9032    1.0000 </r>
       <r>    4.6388    1.0000 </r>
       <r>    4.6388    1.0000 </r>
       <r>    6.4955   -0.0000 </r>
       <r>    6.4955   -0.0000 </r>
       <r>    6.4955   -0.0000 </r>
       <r>    7.1789   -0.0000 </r>
       <r>    8.4821   -0.0000 </r>
       <r>    8.4874   -0.0000 </r>
       <r>    8.5430   -0.0000 </r>
       <r>    8.5430   -0.0000 </r>
      </set>
      <set comment="kpoint 8">
       <r>   -5.3739    1.0000 </r>
       <r>   -4.6067    1.0000 </r>
       <r>   -3.4623    1.0000 </r>
       <r>   -3.4623    1.0000 </r>
       <r>   -1.3613    1.0000 </r>
       <r>   -1.3613    1.0000 </r>
       <r>    0.0011    1.0000 </r>
       <r>    1.0826    1.0000 </r>
       <r>    1.5837    1.0000 </r>
       <r>    1.5837    1.0000 </r>
       <r>    2.7005    1.0000 </r>
       <r>    2.8783    1.0000 </r>
       <r>    2.8783    1.0000 </r>
       <r>    3.3108    1.0000 </r>
       <r>    3.9369    1.0000 </r>
       <r>    3.9561    1.0000 </r>
       <r>    6.9875   -0.0000 </r>
       <r>    7.4508   -0.0000 </r>
       <r>    7.5319   -0.0000 </r>
       <r>    7.5319   -0.0000 </r>
       <r>    8.4204   -0.0000 </r>
       <r>    9.1902   -0.0000 </r>
       <r>    9.3862   -0.0000 </r>
       <r>    9.4534   -0.0000 </r>
      </set>
      <set comment="kpoint 9">
       <r>   -4.9355    1.0000 </r>
       <r>   -4.2545    1.0000 </r>
       <r>   -4.2545    1.0000 </r>
       <r>   -3.7934    1.0000 </r>
       <r>   -1.2858    1.0000 </r>
       <r>   -0.7621    1.0000 </r>
       <r>   -0.7621    1.0000 </r>
       <r>    0.0640    1.0000 </r>
       <r>    1.9406    1.0000 </r>
       <r>    2.4329    1.0000 </r>
       <r>    2.4329    1.0000 </r>
       <r>    3.2442    1.0000 </r>
       <r>    3.5698    1.0000 </r>
       <r>    3.5900    1.0000 </r>
       <r>    3.5900    1.0000 </r>
       <r>    4.3172    1.0000 </r>
       <r>    7.2313   -0.0000 </r>
       <r>    7.3838   -0.0000 </r>
       <r>    7.8208   -0.0000 </r>
       <r>    7.8208   -0.0000 </r>
       <r>    8.4467   -0.0000 </r>
       <r>    8.4467   -0.0000 </r>
       <r>    8.7708   -0.0000 </r>
       <r>    8.8491   -0.0000 </r>
      </set>
      <set comment="kpoint 10">
       <r>   -4.5758    1.0000 </r>
       <r>   -4.1110    1.0000 </r>
       <r>   -4.1110    1.0000 </r>
       <r>   -4.1110    1.0000 </r>
       <r>   -1.3633    1.0000 </r>
       <r>   -1.3633    1.0000 </r>
       <r>   -1.3633    1.0000 </r>
       <r>   -0.8434    1.0000 </r>
       <r>    3.2916    1.0000 </r>
       <r>    3.2916    1.0000 </r>
       <r>    3.2916    1.0000 </r>
       <r>    3.8184    1.0000 </r>
       <r>    3.8184    1.0000 </r>
       <r>    3.8184    1.0000 </r>
       <r>    4.1135    1.0000 </r>
       <r>    4.1135    1.0000 </r>
       <r>    6.5765   -0.0000 </r>
       <r>    7.1557   -0.0000 </r>
       <r>    7.1557   -0.0000 </r>
       <r>    7.1557   -0.0000 </r>
       <r>    8.4858   -0.0000 </r>
       <r>    8.4858   -0.0000 </r>
       <r>    8.4868   -0.0000 </r>
       <r>    8.6076   -0.0000 </r>
      </set>
     </set>
    </set>
   </array>
  </eigenvalues>
  <separator name="orbital magnetization" >
   <v name="MAGDIPOLOUT">      0.00000000      0.00000000      0.00000000</v>
  </separator>
  <dos>
   <i name="efermi">      5.28276259 </i>
   <total>
    <array>
     <dimension dim="1">gridpoints</dimension>
     <dimension dim="2">spin</dimension>
     <field>energy</field>
     <field>total</field>
     <field>integrated</field>
     <set>
      <set comment="spin 1">
       <r>    -8.3364     0.0000     0.0000 </r>
       <r>    -8.2704     0.0000     0.0000 </r>
       <r>    -8.2045     0.0000     0.0000 </r>
       <r>    -8.1385     0.0000     0.0000 </r>
       <r>    -8.0725     0.0000     0.0000 </r>
       <r>    -8.0066     0.0000     0.0000 </r>
       <r>    -7.9406    -0.0000    -0.0000 </r>
       <r>    -7.8746    -0.0000    -0.0000 </r>
       <r>    -7.8087    -0.0000    -0.0000 </r>
       <r>    -7.7427    -0.0000    -0.0000 </r>
       <r>    -7.6768    -0.0000    -0.0000 </r>
       <r>    -7.6108    -0.0000    -0.0000 </r>
       <r>    -7.5448    -0.0000    -0.0000 </r>
       <r>    -7.4789    -0.0000    -0.0000 </r>
       <r>    -7.4129    -0.0000    -0.0000 </r>
       <r>    -7.3469    -0.0000    -0.0000 </r>
       <r>    -7.2810    -0.0000    -0.0000 </r>
       <r>    -7.2150    -0.0000    -0.0000 </r>
       <r>    -7.1490    -0.0000    -0.0000 </r>
       <r>    -7.0831    -0.0000    -0.0000 </r>
       <r>    -7.0171    -0.0000    -0.0000 </r>
       <r>    -6.9511    -0.0000    -0.0000 </r>
       <r>    -6.8852    -0.0001    -0.0000 </r>
       <r>    -6.8192    -0.0004    -0.0000 </r>
       <r>    -6.7532    -0.0012    -0.0001 </r>
       <r>    -6.6873    -0.0034    -0.0003 </r>
       <r>    -6.6213    -0.0073    -0.0008 </r>
       <r>    -6.5553    -0.0114    -0.0016 </r>
       <r>    -6.4894    -0.0107    -0.0023 </r>
       <r>    -6.4234     0.0055    -0.0019 </r>
       <r>    -6.3574     0.0549     0.0017 </r>
       <r>    -6.2915     0.1578     0.0121 </r>
       <r>    -6.2255     0.3254     0.0336 </r>
       <r>    -6.1595     0.5474     0.0697 </r>
       <r>    -6.0936     0.7865     0.1216 </r>
       <r>    -6.0276     0.9777     0.1861 </r>
       <r>    -5.9616     1.0491     0.2553 </r>
       <r>    -5.8957     0.9738     0.3195 </r>
       <r>    -5.8297     0.8054     0.3726 </r>
       <r>    -5.7637     0.6680     0.4167 </r>
       <r>    -5.6978     0.7164     0.4640 </r>
       <r>    -5.6318     1.0552     0.5336 </r>
       <r>    -5.5658     1.6322     0.6412 </r>
       <r>    -5.4999     2.2116     0.7871 </r>
       <r>    -5.4339     2.4956     0.9518 </r>
       <r>    -5.3679     2.2995     1.1034 </r>
       <r>    -5.3020     1.6822     1.2144 </r>
       <r>    -5.2360     0.9696     1.2784 </r>
       <r>    -5.1700     0.5885     1.3172 </r>
       <r>    -5.1041     0.7652     1.3677 </r>
       <r>    -5.0381     1.3602     1.4574 </r>
       <r>    -4.9721     1.9982     1.5892 </r>
       <r>    -4.9062     2.3745     1.7459 </r>
       <r>    -4.8402     2.4911     1.9102 </r>
       <r>    -4.7742     2.5885     2.0809 </r>
       <r>    -4.7083     2.7947     2.2653 </r>
       <r>    -4.6423     2.8981     2.4565 </r>
       <r>    -4.5763     2.6011     2.6281 </r>
       <r>    -4.5104     2.0238     2.7616 </r>
       <r>    -4.4444     1.8044     2.8806 </r>
       <r>    -4.3784     2.4901     3.0449 </r>
       <r>    -4.3125     3.8212     3.2969 </r>
       <r>    -4.2465     4.8361     3.6159 </r>
       <r>    -4.1805     4.7617     3.9301 </r>
       <r>    -4.1146     3.6438     4.1704 </r>
       <r>    -4.0486     2.1419     4.3117 </r>
       <r>    -3.9827     1.0038     4.3779 </r>
       <r>    -3.9167     0.7501     4.4274 </r>
       <r>    -3.8507     1.4897     4.5257 </r>
       <r>    -3.7848     2.8230     4.7119 </r>
       <r>    -3.7188     4.0768     4.9808 </r>
       <r>    -3.6528     4.8164     5.2985 </r>
       <r>    -3.5869     5.1247     5.6366 </r>
       <r>    -3.5209     5.2933     5.9858 </r>
       <r>    -3.4549     5.2821     6.3342 </r>
       <r>    -3.3890     4.6900     6.6436 </r>
       <r>    -3.3230     3.3475     6.8644 </r>
       <r>    -3.2570     1.7296     6.9785 </r>
       <r>    -3.1911     0.6118     7.0189 </r>
       <r>    -3.1251     0.4066     7.0457 </r>
       <r>    -3.0591     0.8731     7.1033 </r>
       <r>    -2.9932     1.3712     7.1937 </r>
       <r>    -2.9272     1.4043     7.2864 </r>
       <r>    -2.8612     1.0063     7.3528 </r>
       <r>    -2.7953     0.5931     7.3919 </r>
       <r>    -2.7293     0.4571     7.4220 </r>
       <r>    -2.6633     0.5289     7.4569 </r>
       <r>    -2.5974     0.6605     7.5005 </r>
       <r>    -2.5314     0.9660     7.5642 </r>
       <r>    -2.4654     1.6669     7.6742 </r>
       <r>    -2.3995     2.6134     7.8466 </r>
       <r>    -2.3335     3.2121     8.0585 </r>
       <r>    -2.2675     3.0036     8.2566 </r>
       <r>    -2.2016     2.1797     8.4004 </r>
       <r>    -2.1356     1.3424     8.4889 </r>
       <r>    -2.0696     0.8450     8.5447 </r>
       <r>    -2.0037     0.5769     8.5827 </r>
       <r>    -1.9377     0.3386     8.6051 </r>
       <r>    -1.8717     0.1850     8.6173 </r>
       <r>    -1.8058     0.3172     8.6382 </r>
       <r>    -1.7398     0.7344     8.6866 </r>
       <r>    -1.6738     1.1245     8.7608 </r>
       <r>    -1.6079     1.2433     8.8428 </r>
       <r>    -1.5419     1.4241     8.9368 </r>
       <r>    -1.4759     2.4130     9.0960 </r>
       <r>    -1.4100     4.4006     9.3862 </r>
       <r>    -1.3440     6.4197     9.8097 </r>
       <r>    -1.2780     7.1382    10.2806 </r>
       <r>    -1.2121     6.2374    10.6921 </r>
       <r>    -1.1461     4.6656    10.9998 </r>
       <r>    -1.0801     3.5683    11.2352 </r>
       <r>    -1.0142     3.3261    11.4546 </r>
       <r>    -0.9482     3.6397    11.6947 </r>
       <r>    -0.8822     4.1081    11.9657 </r>
       <r>    -0.8163     4.4152    12.2570 </r>
       <r>    -0.7503     4.2025    12.5342 </r>
       <r>    -0.6843     3.2447    12.7482 </r>
       <r>    -0.6184     1.8104    12.8677 </r>
       <r>    -0.5524     0.5332    12.9028 </r>
       <r>    -0.4864    -0.1263    12.8945 </r>
       <r>    -0.4205    -0.1220    12.8865 </r>
       <r>    -0.3545     0.3442    12.9092 </r>
       <r>    -0.2886     0.9696    12.9731 </r>
       <r>    -0.2226     1.4494    13.0687 </r>
       <r>    -0.1566     1.7202    13.1822 </r>
       <r>    -0.0907     2.0450    13.3171 </r>
       <r>    -0.0247     2.5885    13.4879 </r>
       <r>     0.0413     2.9990    13.6857 </r>
       <r>     0.1072     2.7385    13.8663 </r>
       <r>     0.1732     1.7922    13.9846 </r>
       <r>     0.2392     0.7752    14.0357 </r>
       <r>     0.3051     0.3366    14.0579 </r>
       <r>     0.3711     0.6095    14.0981 </r>
       <r>     0.4371     1.1761    14.1757 </r>
       <r>     0.5030     1.4707    14.2727 </r>
       <r>     0.5690     1.2884    14.3577 </r>
       <r>     0.6350     0.9317    14.4192 </r>
       <r>     0.7009     0.7963    14.4717 </r>
       <r>     0.7669     0.8938    14.5307 </r>
       <r>     0.8329     0.9431    14.5929 </r>
       <r>     0.8988     0.8939    14.6518 </r>
       <r>     0.9648     1.1130    14.7253 </r>
       <r>     1.0308     1.8965    14.8504 </r>
       <r>     1.0967     2.9224    15.0431 </r>
       <r>     1.1627     3.4338    15.2697 </r>
       <r>     1.2287     3.0450    15.4705 </r>
       <r>     1.2946     2.2190    15.6169 </r>
       <r>     1.3606     1.8371    15.7381 </r>
       <r>     1.4266     2.3952    15.8961 </r>
       <r>     1.4925     3.7042    16.1404 </r>
       <r>     1.5585     5.2163    16.4845 </r>
       <r>     1.6245     6.4355    16.9091 </r>
       <r>     1.6904     7.0473    17.3739 </r>
       <r>     1.7564     6.8863    17.8282 </r>
       <r>     1.8224     5.9756    18.2224 </r>
       <r>     1.8883     4.6131    18.5267 </r>
       <r>     1.9543     3.3235    18.7459 </r>
       <r>     2.0203     2.6095    18.9181 </r>
       <r>     2.0862     2.6108    19.0903 </r>
       <r>     2.1522     2.9902    19.2875 </r>
       <r>     2.2182     3.3935    19.5114 </r>
       <r>     2.2841     4.0361    19.7776 </r>
       <r>     2.3501     5.3956    20.1336 </r>
       <r>     2.4161     7.2346    20.6108 </r>
       <r>     2.4820     8.5179    21.1727 </r>
       <r>     2.5480     8.5330    21.7356 </r>
       <r>     2.6140     7.6041    22.2372 </r>
       <r>     2.6799     6.5589    22.6699 </r>
       <r>     2.7459     5.9431    23.0619 </r>
       <r>     2.8119     5.7541    23.4415 </r>
       <r>     2.8778     5.5100    23.8050 </r>
       <r>     2.9438     4.6997    24.1150 </r>
       <r>     3.0098     3.5609    24.3499 </r>
       <r>     3.0757     3.1815    24.5598 </r>
       <r>     3.1417     4.3704    24.8481 </r>
       <r>     3.2077     6.5076    25.2773 </r>
       <r>     3.2736     7.9260    25.8002 </r>
       <r>     3.3396     7.6470    26.3046 </r>
       <r>     3.4056     6.4572    26.7306 </r>
       <r>     3.4715     5.8466    27.1163 </r>
       <r>     3.5375     6.1112    27.5194 </r>
       <r>     3.6034     6.1916    27.9278 </r>
       <r>     3.6694     5.3428    28.2803 </r>
       <r>     3.7354     4.1508    28.5541 </r>
       <r>     3.8013     3.6252    28.7932 </r>
       <r>     3.8673     3.9168    29.0516 </r>
       <r>     3.9333     4.3421    29.3380 </r>
       <r>     3.9992     4.3283    29.6235 </r>
       <r>     4.0652     3.9686    29.8853 </r>
       <r>     4.1312     3.7383    30.1319 </r>
       <r>     4.1971     3.8891    30.3885 </r>
       <r>     4.2631     4.1578    30.6628 </r>
       <r>     4.3291     4.0095    30.9272 </r>
       <r>     4.3950     3.2005    31.1384 </r>
       <r>     4.4610     2.1200    31.2782 </r>
       <r>     4.5270     1.4502    31.3739 </r>
       <r>     4.5929     1.4372    31.4687 </r>
       <r>     4.6589     1.6446    31.5772 </r>
       <r>     4.7249     1.5109    31.6768 </r>
       <r>     4.7908     0.9935    31.7424 </r>
       <r>     4.8568     0.5193    31.7766 </r>
       <r>     4.9228     0.4230    31.8045 </r>
       <r>     4.9887     0.6173    31.8453 </r>
       <r>     5.0547     0.7828    31.8969 </r>
       <r>     5.1207     0.7279    31.9449 </r>
       <r>     5.1866     0.5061    31.9783 </r>
       <r>     5.2526     0.2674    31.9960 </r>
       <r>     5.3186     0.1002    32.0026 </r>
       <r>     5.3845     0.0121    32.0034 </r>
       <r>     5.4505    -0.0230    32.0018 </r>
       <r>     5.5165    -0.0340    31.9996 </r>
       <r>     5.5824    -0.0376    31.9971 </r>
       <r>     5.6484    -0.0253    31.9955 </r>
       <r>     5.7144     0.0358    31.9978 </r>
       <r>     5.7803     0.1723    32.0092 </r>
       <r>     5.8463     0.3671    32.0334 </r>
       <r>     5.9123     0.5611    32.0704 </r>
       <r>     5.9782     0.6964    32.1163 </r>
       <r>     6.0442     0.7483    32.1657 </r>
       <r>     6.1102     0.7308    32.2139 </r>
       <r>     6.1761     0.6985    32.2600 </r>
       <r>     6.2421     0.7309    32.3082 </r>
       <r>     6.3081     0.8959    32.3673 </r>
       <r>     6.3740     1.2300    32.4484 </r>
       <r>     6.4400     1.7174    32.5617 </r>
       <r>     6.5060     2.2589    32.7108 </r>
       <r>     6.5719     2.7309    32.8909 </r>
       <r>     6.6379     3.0932    33.0949 </r>
       <r>     6.7039     3.3504    33.3160 </r>
       <r>     6.7698     3.4651    33.5445 </r>
       <r>     6.8358     3.4670    33.7732 </r>
       <r>     6.9018     3.5442    34.0070 </r>
       <r>     6.9677     3.8360    34.2601 </r>
       <r>     7.0337     4.2514    34.5405 </r>
       <r>     7.0997     4.6550    34.8476 </r>
       <r>     7.1656     5.0987    35.1839 </r>
       <r>     7.2316     5.7638    35.5642 </r>
       <r>     7.2975     6.7571    36.0099 </r>
       <r>     7.3635     7.9313    36.5331 </r>
       <r>     7.4295     8.7930    37.1131 </r>
       <r>     7.4954     8.6761    37.6855 </r>
       <r>     7.5614     7.2695    38.1650 </r>
       <r>     7.6274     5.1331    38.5036 </r>
       <r>     7.6933     3.4902    38.7339 </r>
       <r>     7.7593     3.1674    38.9428 </r>
       <r>     7.8253     3.7683    39.1914 </r>
       <r>     7.8912     4.1433    39.4647 </r>
       <r>     7.9572     3.6081    39.7027 </r>
       <r>     8.0232     2.4981    39.8675 </r>
       <r>     8.0891     1.6743    39.9779 </r>
       <r>     8.1551     1.7631    40.0942 </r>
       <r>     8.2211     2.8448    40.2819 </r>
       <r>     8.2870     4.6823    40.5908 </r>
       <r>     8.3530     7.0502    41.0559 </r>
       <r>     8.4190     9.5878    41.6883 </r>
       <r>     8.4849    11.4316    42.4424 </r>
       <r>     8.5509    11.6153    43.2086 </r>
       <r>     8.6169    10.0988    43.8748 </r>
       <r>     8.6828     7.9665    44.4003 </r>
       <r>     8.7488     6.3536    44.8195 </r>
       <r>     8.8148     5.4765    45.1807 </r>
       <r>     8.8807     4.8549    45.5010 </r>
       <r>     8.9467     4.1225    45.7729 </r>
       <r>     9.0127     3.3327    45.9928 </r>
       <r>     9.0786     2.6939    46.1705 </r>
       <r>     9.1446     2.3469    46.3253 </r>
       <r>     9.2106     2.4359    46.4860 </r>
       <r>     9.2765     3.1448    46.6934 </r>
       <r>     9.3425     4.3586    46.9809 </r>
       <r>     9.4085     5.3269    47.3323 </r>
       <r>     9.4744     5.1223    47.6702 </r>
       <r>     9.5404     3.6222    47.9092 </r>
       <r>     9.6064     1.7014    48.0214 </r>
       <r>     9.6723     0.3312    48.0433 </r>
       <r>     9.7383    -0.2138    48.0292 </r>
       <r>     9.8043    -0.2443    48.0131 </r>
       <r>     9.8702    -0.1322    48.0043 </r>
       <r>     9.9362    -0.0489    48.0011 </r>
       <r>    10.0022    -0.0135    48.0002 </r>
       <r>    10.0681    -0.0028    48.0000 </r>
       <r>    10.1341    -0.0005    48.0000 </r>
       <r>    10.2001    -0.0001    48.0000 </r>
       <r>    10.2660    -0.0000    48.0000 </r>
       <r>    10.3320    -0.0000    48.0000 </r>
       <r>    10.3980    -0.0000    48.0000 </r>
       <r>    10.4639    -0.0000    48.0000 </r>
       <r>    10.5299    -0.0000    48.0000 </r>
       <r>    10.5959    -0.0000    48.0000 </r>
       <r>    10.6618    -0.0000    48.0000 </r>
       <r>    10.7278    -0.0000    48.0000 </r>
       <r>    10.7938     0.0000    48.0000 </r>
       <r>    10.8597     0.0000    48.0000 </r>
       <r>    10.9257     0.0000    48.0000 </r>
       <r>    10.9916     0.0000    48.0000 </r>
       <r>    11.0576     0.0000    48.0000 </r>
       <r>    11.1236     0.0000    48.0000 </r>
       <r>    11.1895     0.0000    48.0000 </r>
       <r>    11.2555     0.0000    48.0000 </r>
       <r>    11.3215     0.0000    48.0000 </r>
       <r>    11.3874     0.0000    48.0000 </r>
       <r>    11.4534     0.0000    48.0000 </r>
      </set>
     </set>
    </array>
   </total>
  </dos>
 </calculation>
 <structure name="finalpos" >
  <crystal>
   <varray name="basis" >
    <v>       5.55046874       0.00000000       0.00000000 </v>
    <v>       0.00000000       5.55046874       0.00000000 </v>
    <v>       0.00000000       0.00000000       5.55046874 </v>
   </varray>
   <i name="volume">    170.99719383 </i>
   <varray name="rec_basis" >
    <v>       0.18016496      -0.00000000       0.00000000 </v>
    <v>       0.00000000       0.18016496       0.00000000 </v>
    <v>      -0.00000000      -0.00000000       0.18016496 </v>
   </varray>
  </crystal>
  <varray name="positions" >
   <v>       0.75000000       0.75000000       0.25000000 </v>
   <v>       0.00000000       0.50000000       0.50000000 </v>
   <v>       0.75000000       0.25000000       0.75000000 </v>
   <v>       0.00000000       0.00000000       0.00000000 </v>
   <v>       0.25000000       0.75000000       0.75000000 </v>
   <v>       0.50000000       0.50000000       0.00000000 </v>
   <v>       0.25000000       0.25000000       0.25000000 </v>
   <v>       0.50000000       0.00000000       0.50000000 </v>
  </varray>
 </structure>
</modeling>
