    7    7    1    2
  0.1404647E+02  0.3950078E-09  0.3950078E-09  0.6892915E-09  0.5000000E-15
   1.0000000000000000E-004
  CAR 
 unknown system                          
     62     60     48

  0.1262379E-14  0.1262379E-14  0.1262379E-14  0.5102041E-02
    1      -57.394306    -55.223869   1.000000   1.000000
    2      -57.302827    -55.103055   1.000000   1.000000
    3      -57.302808    -55.102304   1.000000   1.000000
    4      -24.096522    -24.097524   1.000000   1.000000
    5      -23.902913    -23.904468   1.000000   1.000000
    6      -11.502177    -11.348578   1.000000   1.000000
    7       -9.992788     -9.916110   1.000000   1.000000
    8       -9.946147     -9.645775   1.000000   1.000000
    9       -9.702213     -9.563798   1.000000   1.000000
   10       -7.569300     -7.574212   1.000000   1.000000
   11       -7.569300     -7.574212   1.000000   1.000000
   12       -7.558404     -7.562834   1.000000   1.000000
   13       -7.558404     -7.562834   1.000000   1.000000
   14       -6.842973     -6.834559   1.000000   1.000000
   15       -6.379884     -6.278353   1.000000   1.000000
   16        1.351039      3.009020   1.000000   1.000000
   17        2.113274      3.009032   1.000000   1.000000
   18        2.567125      3.380122   1.000000   1.000000
   19        2.567131      3.562865   1.000000   1.000000
   20        2.577924      3.563064   1.000000   1.000000
   21        2.824529      3.594271   1.000000   1.000000
   22        2.824529      4.015491   1.000000   1.000000
   23        3.297153      4.149907   1.000000   1.000000
   24        4.097026      5.165538   1.000000   1.000000
   25        4.684997      5.165540   1.000000   1.000000
   26        5.060192      5.184295   1.000000   1.000000
   27        5.060192      5.184311   1.000000   1.000000
   28        5.109020      5.980362   1.000000   1.000000
   29        5.109020      5.980364   1.000000   1.000000
   30        5.866816      6.287215   1.000000   1.000000
   31        5.866817      9.603766   1.000000   0.003425
   32        6.179933     10.268089   1.000000   0.000000
   33        9.598954     10.515587   0.003746   0.000000
   34       10.271393     10.557482   0.000000   0.000000
   35       10.522313     10.752261   0.000000   0.000000
   36       10.730877     10.841172   0.000000   0.000000
   37       10.834561     10.938748   0.000000   0.000000
   38       10.931695     10.938751   0.000000   0.000000
   39       10.931698     11.093150   0.000000   0.000000
   40       11.092346     11.113433   0.000000   0.000000
   41       11.110861     11.113459   0.000000   0.000000
   42       11.110862     11.119587   0.000000   0.000000
   43       11.117218     11.187298   0.000000   0.000000
   44       11.186842     11.187311   0.000000   0.000000
   45       11.186842     11.374498   0.000000   0.000000
   46       11.369689     11.374510   0.000000   0.000000
   47       11.369689     11.454588   0.000000   0.000000
   48       11.456255     12.159278   0.000000   0.000000

  0.1428571E+00  0.1262379E-14  0.1272217E-14  0.2040816E-01
    1      -57.394126    -55.223688   1.000000   1.000000
    2      -57.302447    -55.102595   1.000000   1.000000
    3      -57.302336    -55.101897   1.000000   1.000000
    4      -24.080503    -24.081559   1.000000   1.000000
    5      -23.901502    -23.903038   1.000000   1.000000
    6      -11.421553    -11.269465   1.000000   1.000000
    7      -10.209556    -10.092280   1.000000   1.000000
    8       -9.932577     -9.720312   1.000000   1.000000
    9       -9.774000     -9.634095   1.000000   1.000000
   10       -7.584854     -7.589424   1.000000   1.000000
   11       -7.574635     -7.576504   1.000000   1.000000
   12       -7.511943     -7.516814   1.000000   1.000000
   13       -7.369703     -7.351305   1.000000   1.000000
   14       -6.800512     -6.789321   1.000000   1.000000
   15       -6.465978     -6.373657   1.000000   1.000000
   16        1.223919      2.848757   1.000000   1.000000
   17        1.551137      2.907202   1.000000   1.000000
   18        2.326733      2.974248   1.000000   1.000000
   19        2.358178      3.528088   1.000000   1.000000
   20        2.547424      3.612465   1.000000   1.000000
   21        3.022424      3.734458   1.000000   1.000000
   22        3.202555      4.217605   1.000000   1.000000
   23        3.441936      4.490485   1.000000   1.000000
   24        4.293245      4.956703   1.000000   1.000000
   25        4.882330      5.030133   1.000000   1.000000
   26        4.908527      5.238909   1.000000   1.000000
   27        4.926456      5.276191   1.000000   1.000000
   28        5.157544      5.594179   1.000000   1.000000
   29        5.194460      5.875816   1.000000   1.000000
   30        5.702230      6.263146   1.000000   1.000000
   31        5.740181      9.727715   1.000000  -0.015574
   32        6.187464     10.344826   1.000000   0.000000
   33        9.722147     10.575670  -0.015066   0.000000
   34       10.350313     10.671508   0.000000   0.000000
   35       10.680203     10.872764   0.000000   0.000000
   36       10.865643     10.943630   0.000000   0.000000
   37       10.936326     10.964836   0.000000   0.000000
   38       10.953956     10.992500   0.000000   0.000000
   39       10.973884     11.088514   0.000000   0.000000
   40       11.085268     11.099088   0.000000   0.000000
   41       11.100043     11.102295   0.000000   0.000000
   42       11.100768     11.157199   0.000000   0.000000
   43       11.155992     11.176553   0.000000   0.000000
   44       11.176563     11.330452   0.000000   0.000000
   45       11.325700     11.364171   0.000000   0.000000
   46       11.362314     11.398688   0.000000   0.000000
   47       11.393537     11.505115   0.000000   0.000000
   48       11.498359     12.037094   0.000000   0.000000

  0.2857143E+00  0.1262379E-14  0.1262281E-14  0.2040816E-01
    1      -57.393951    -55.223537   1.000000   1.000000
    2      -57.302300    -55.102497   1.000000   1.000000
    3      -57.302196    -55.101650   1.000000   1.000000
    4      -24.042224    -24.043411   1.000000   1.000000
    5      -23.900417    -23.901912   1.000000   1.000000
    6      -11.241383    -11.091627   1.000000   1.000000
    7      -10.615631    -10.493467   1.000000   1.000000
    8       -9.931572     -9.853855   1.000000   1.000000
    9       -9.855037     -9.664051   1.000000   1.000000
   10       -7.600660     -7.595251   1.000000   1.000000
   11       -7.578616     -7.583040   1.000000   1.000000
   12       -7.447953     -7.453209   1.000000   1.000000
   13       -7.173396     -7.129892   1.000000   1.000000
   14       -6.654887     -6.631004   1.000000   1.000000
   15       -6.597496     -6.536707   1.000000   1.000000
   16        0.457196      2.520519   1.000000   1.000000
   17        1.434074      2.664516   1.000000   1.000000
   18        1.974445      2.729264   1.000000   1.000000
   19        2.106597      3.437429   1.000000   1.000000
   20        2.496940      3.570180   1.000000   1.000000
   21        3.197471      3.830812   1.000000   1.000000
   22        3.489123      4.396625   1.000000   1.000000
   23        3.695142      4.779393   1.000000   1.000000
   24        4.570148      4.938627   1.000000   1.000000
   25        4.678569      4.944782   1.000000   1.000000
   26        4.747021      4.974792   1.000000   1.000000
   27        4.896543      5.297811   1.000000   1.000000
   28        5.146027      5.327779   1.000000   1.000000
   29        5.276678      5.693062   1.000000   1.000000
   30        5.465791      6.171038   1.000000   1.000000
   31        5.811703     10.128755   1.000000   0.000000
   32        6.276117     10.402522   1.000000   0.000000
   33       10.127866     10.585231   0.000000   0.000000
   34       10.405813     10.750330   0.000000   0.000000
   35       10.779285     10.930816   0.000000   0.000000
   36       10.923537     10.967031   0.000000   0.000000
   37       10.958148     11.010272   0.000000   0.000000
   38       11.010098     11.065101   0.000000   0.000000
   39       11.061295     11.071875   0.000000   0.000000
   40       11.071317     11.083089   0.000000   0.000000
   41       11.088380     11.090601   0.000000   0.000000
   42       11.094567     11.119622   0.000000   0.000000
   43       11.107631     11.165848   0.000000   0.000000
   44       11.166143     11.264994   0.000000   0.000000
   45       11.261567     11.332153   0.000000   0.000000
   46       11.347062     11.686535   0.000000   0.000000
   47       11.683189     12.082678   0.000000   0.000000
   48       12.085325     12.325273   0.000000   0.000000

  0.4285714E+00  0.1262379E-14  0.1219610E-14  0.2040816E-01
    1      -57.394067    -55.223626   1.000000   1.000000
    2      -57.302441    -55.102667   1.000000   1.000000
    3      -57.302188    -55.101653   1.000000   1.000000
    4      -24.007494    -24.008804   1.000000   1.000000
    5      -23.903294    -23.904747   1.000000   1.000000
    6      -11.156015    -10.998570   1.000000   1.000000
    7      -10.815384    -10.722921   1.000000   1.000000
    8       -9.953444     -9.861217   1.000000   1.000000
    9       -9.876139     -9.732659   1.000000   1.000000
   10       -7.658215     -7.645652   1.000000   1.000000
   11       -7.566231     -7.570544   1.000000   1.000000
   12       -7.403202     -7.408777   1.000000   1.000000
   13       -7.192664     -7.142925   1.000000   1.000000
   14       -6.659204     -6.625316   1.000000   1.000000
   15       -6.454536     -6.420905   1.000000   1.000000
   16       -0.075497      2.275463   1.000000   1.000000
   17        1.433384      2.592627   1.000000   1.000000
   18        1.770733      2.612920   1.000000   1.000000
   19        1.962875      3.354242   1.000000   1.000000
   20        2.450159      3.483856   1.000000   1.000000
   21        3.243978      3.744111   1.000000   1.000000
   22        3.615637      4.395413   1.000000   1.000000
   23        4.049611      4.683556   1.000000   1.000000
   24        4.417335      4.879673   1.000000   1.000000
   25        4.443623      4.894817   1.000000   1.000000
   26        4.736752      4.979039   1.000000   1.000000
   27        4.762684      5.182947   1.000000   1.000000
   28        5.074518      5.630601   1.000000   1.000000
   29        5.259586      5.701461   1.000000   1.000000
   30        5.568042      6.003029   1.000000   1.000000
   31        5.822684     10.445354   1.000000   0.000000
   32        6.508342     10.556856   1.000000   0.000000
   33       10.450502     10.600258   0.000000   0.000000
   34       10.570854     10.702348   0.000000   0.000000
   35       10.733897     10.962953   0.000000   0.000000
   36       10.954487     11.000202   0.000000   0.000000
   37       10.996297     11.006257   0.000000   0.000000
   38       11.006850     11.026325   0.000000   0.000000
   39       11.033287     11.051585   0.000000   0.000000
   40       11.048823     11.062906   0.000000   0.000000
   41       11.059528     11.070856   0.000000   0.000000
   42       11.069386     11.133969   0.000000   0.000000
   43       11.129384     11.181273   0.000000   0.000000
   44       11.181268     11.205174   0.000000   0.000000
   45       11.212327     11.214229   0.000000   0.000000
   46       11.266250     11.522914   0.000000   0.000000
   47       12.053248     12.064871   0.000000   0.000000
   48       12.312055     12.333878   0.000000   0.000000

  0.1428571E+00  0.1428571E+00  0.1279165E-14  0.1020408E-01
    1      -57.394010    -55.223573   1.000000   1.000000
    2      -57.302492    -55.102604   1.000000   1.000000
    3      -57.302284    -55.101832   1.000000   1.000000
    4      -24.061385    -24.062503   1.000000   1.000000
    5      -23.903727    -23.905236   1.000000   1.000000
    6      -11.358478    -11.211211   1.000000   1.000000
    7      -10.195692    -10.137855   1.000000   1.000000
    8      -10.117473     -9.809785   1.000000   1.000000
    9       -9.769462     -9.700576   1.000000   1.000000
   10       -7.671285     -7.672122   1.000000   1.000000
   11       -7.540617     -7.542929   1.000000   1.000000
   12       -7.432698     -7.406842   1.000000   1.000000
   13       -7.336037     -7.329722   1.000000   1.000000
   14       -6.748500     -6.732915   1.000000   1.000000
   15       -6.543713     -6.466603   1.000000   1.000000
   16        1.206962      2.478340   1.000000   1.000000
   17        1.227733      2.906295   1.000000   1.000000
   18        2.115227      3.237892   1.000000   1.000000
   19        2.270479      3.297785   1.000000   1.000000
   20        2.416243      3.372790   1.000000   1.000000
   21        2.698157      4.018281   1.000000   1.000000
   22        3.625939      4.362160   1.000000   1.000000
   23        3.799056      4.667500   1.000000   1.000000
   24        4.462489      4.834193   1.000000   1.000000
   25        4.707727      4.955402   1.000000   1.000000
   26        4.868818      5.210677   1.000000   1.000000
   27        4.898972      5.348092   1.000000   1.000000
   28        5.186133      5.421284   1.000000   1.000000
   29        5.362759      5.877369   1.000000   1.000000
   30        5.459907      6.177493   1.000000   1.000000
   31        6.046757      9.832461   1.000000  -0.036864
   32        6.157536     10.359466   1.000000   0.000000
   33        9.829287     10.641098  -0.035625   0.000000
   34       10.359676     10.756266   0.000000   0.000000
   35       10.762821     10.861147   0.000000   0.000000
   36       10.835521     10.952062   0.000000   0.000000
   37       10.950009     10.959424   0.000000   0.000000
   38       10.952029     10.989501   0.000000   0.000000
   39       10.980091     11.092314   0.000000   0.000000
   40       11.088570     11.108621   0.000000   0.000000
   41       11.108283     11.143004   0.000000   0.000000
   42       11.142957     11.165432   0.000000   0.000000
   43       11.163196     11.189784   0.000000   0.000000
   44       11.180305     11.314148   0.000000   0.000000
   45       11.306246     11.315984   0.000000   0.000000
   46       11.315991     11.560002   0.000000   0.000000
   47       11.555023     11.642455   0.000000   0.000000
   48       11.606720     12.064044   0.000000   0.000000

  0.2857143E+00  0.1428571E+00  0.1275121E-14  0.2040816E-01
    1      -57.394060    -55.223617   1.000000   1.000000
    2      -57.302475    -55.102650   1.000000   1.000000
    3      -57.302315    -55.101786   1.000000   1.000000
    4      -24.023548    -24.024793   1.000000   1.000000
    5      -23.902860    -23.904332   1.000000   1.000000
    6      -11.228347    -11.091447   1.000000   1.000000
    7      -10.509870    -10.387056   1.000000   1.000000
    8      -10.052966     -9.883329   1.000000   1.000000
    9       -9.813519     -9.730116   1.000000   1.000000
   10       -7.712704     -7.711293   1.000000   1.000000
   11       -7.627092     -7.626887   1.000000   1.000000
   12       -7.393913     -7.383008   1.000000   1.000000
   13       -7.278177     -7.239615   1.000000   1.000000
   14       -6.636529     -6.588135   1.000000   1.000000
   15       -6.597639     -6.572285   1.000000   1.000000
   16        0.443777      2.233796   1.000000   1.000000
   17        1.224874      2.636868   1.000000   1.000000
   18        1.936421      2.875434   1.000000   1.000000
   19        2.026723      3.200112   1.000000   1.000000
   20        2.373870      3.594697   1.000000   1.000000
   21        2.570200      4.081504   1.000000   1.000000
   22        3.799922      4.504764   1.000000   1.000000
   23        4.207759      4.629892   1.000000   1.000000
   24        4.560453      4.895846   1.000000   1.000000
   25        4.678336      4.981154   1.000000   1.000000
   26        4.801620      5.121357   1.000000   1.000000
   27        4.853772      5.368614   1.000000   1.000000
   28        5.199846      5.424980   1.000000   1.000000
   29        5.402155      5.758437   1.000000   1.000000
   30        5.670884      6.087862   1.000000   1.000000
   31        5.946085     10.221701   1.000000   0.000000
   32        6.410489     10.412892   1.000000   0.000000
   33       10.226301     10.664874   0.000000   0.000000
   34       10.412015     10.790468   0.000000   0.000000
   35       10.794711     10.878359   0.000000   0.000000
   36       10.860047     10.951427   0.000000   0.000000
   37       10.948728     10.984461   0.000000   0.000000
   38       10.974877     11.013074   0.000000   0.000000
   39       11.000920     11.052534   0.000000   0.000000
   40       11.047139     11.101125   0.000000   0.000000
   41       11.102673     11.133994   0.000000   0.000000
   42       11.127186     11.146717   0.000000   0.000000
   43       11.146222     11.173671   0.000000   0.000000
   44       11.171744     11.239005   0.000000   0.000000
   45       11.230903     11.335887   0.000000   0.000000
   46       11.318166     11.866946   0.000000   0.000000
   47       11.848708     12.081344   0.000000   0.000000
   48       12.060365     12.326695   0.000000   0.000000

  0.4285714E+00  0.1428571E+00  0.1298040E-14  0.2040816E-01
    1      -57.394055    -55.223625   1.000000   1.000000
    2      -57.302546    -55.102757   1.000000   1.000000
    3      -57.302324    -55.101798   1.000000   1.000000
    4      -23.994620    -23.995971   1.000000   1.000000
    5      -23.900272    -23.901709   1.000000   1.000000
    6      -11.138415    -11.000478   1.000000   1.000000
    7      -10.717835    -10.607810   1.000000   1.000000
    8      -10.015524     -9.912638   1.000000   1.000000
    9       -9.822677     -9.707597   1.000000   1.000000
   10       -7.824706     -7.823748   1.000000   1.000000
   11       -7.558191     -7.557693   1.000000   1.000000
   12       -7.484358     -7.479091   1.000000   1.000000
   13       -7.226114     -7.180807   1.000000   1.000000
   14       -6.668186     -6.635700   1.000000   1.000000
   15       -6.493855     -6.463081   1.000000   1.000000
   16       -0.081291      2.168544   1.000000   1.000000
   17        1.227870      2.449318   1.000000   1.000000
   18        1.844842      2.477695   1.000000   1.000000
   19        1.863456      3.205976   1.000000   1.000000
   20        2.365494      3.754232   1.000000   1.000000
   21        2.502225      3.980677   1.000000   1.000000
   22        3.788761      4.431048   1.000000   1.000000
   23        4.370823      4.760265   1.000000   1.000000
   24        4.491785      4.802558   1.000000   1.000000
   25        4.726191      5.016179   1.000000   1.000000
   26        4.860194      5.143637   1.000000   1.000000
   27        4.955520      5.261944   1.000000   1.000000
   28        5.199921      5.573842   1.000000   1.000000
   29        5.520214      5.832651   1.000000   1.000000
   30        5.679001      5.983321   1.000000   1.000000
   31        5.770894     10.465517   1.000000   0.000000
   32        6.666095     10.583600   1.000000   0.000000
   33       10.472361     10.664492   0.000000   0.000000
   34       10.605754     10.740335   0.000000   0.000000
   35       10.747346     10.903448   0.000000   0.000000
   36       10.898931     10.947500   0.000000   0.000000
   37       10.943448     10.977844   0.000000   0.000000
   38       10.970227     10.985629   0.000000   0.000000
   39       10.974978     11.075620   0.000000   0.000000
   40       11.046062     11.093514   0.000000   0.000000
   41       11.092654     11.120211   0.000000   0.000000
   42       11.119714     11.132320   0.000000   0.000000
   43       11.125244     11.144791   0.000000   0.000000
   44       11.141091     11.221247   0.000000   0.000000
   45       11.218237     11.322851   0.000000   0.000000
   46       11.296445     12.077633   0.000000   0.000000
   47       12.073574     12.392511   0.000000   0.000000
   48       12.379010     12.669055   0.000000   0.000000

 -0.4285714E+00  0.1428571E+00  0.1311984E-14  0.2040816E-01
    1      -57.394050    -55.223611   1.000000   1.000000
    2      -57.302458    -55.102693   1.000000   1.000000
    3      -57.302355    -55.101812   1.000000   1.000000
    4      -24.001588    -24.002921   1.000000   1.000000
    5      -23.893069    -23.894530   1.000000   1.000000
    6      -11.050362    -10.891344   1.000000   1.000000
    7      -10.793581    -10.697351   1.000000   1.000000
    8      -10.038179     -9.968250   1.000000   1.000000
    9       -9.870454     -9.734697   1.000000   1.000000
   10       -7.776121     -7.775091   1.000000   1.000000
   11       -7.583322     -7.581410   1.000000   1.000000
   12       -7.449497     -7.445247   1.000000   1.000000
   13       -7.136229     -7.086246   1.000000   1.000000
   14       -6.705802     -6.669842   1.000000   1.000000
   15       -6.533355     -6.504749   1.000000   1.000000
   16       -0.081933      2.069306   1.000000   1.000000
   17        1.227388      2.429510   1.000000   1.000000
   18        1.821364      2.554641   1.000000   1.000000
   19        1.845627      3.208904   1.000000   1.000000
   20        2.367596      3.733248   1.000000   1.000000
   21        2.482070      4.012314   1.000000   1.000000
   22        3.816730      4.438451   1.000000   1.000000
   23        4.395228      4.630161   1.000000   1.000000
   24        4.459975      4.880989   1.000000   1.000000
   25        4.779219      5.022907   1.000000   1.000000
   26        4.803896      5.237786   1.000000   1.000000
   27        4.987060      5.254114   1.000000   1.000000
   28        5.226407      5.509505   1.000000   1.000000
   29        5.478537      5.774234   1.000000   1.000000
   30        5.596359      6.072322   1.000000   1.000000
   31        5.918909     10.477579   1.000000   0.000000
   32        6.596168     10.596143   1.000000   0.000000
   33       10.485520     10.652488   0.000000   0.000000
   34       10.604623     10.713567   0.000000   0.000000
   35       10.736372     10.917057   0.000000   0.000000
   36       10.908635     10.956552   0.000000   0.000000
   37       10.945981     10.981039   0.000000   0.000000
   38       10.974318     10.996935   0.000000   0.000000
   39       10.982488     11.065802   0.000000   0.000000
   40       11.038973     11.084789   0.000000   0.000000
   41       11.079469     11.118532   0.000000   0.000000
   42       11.111426     11.131272   0.000000   0.000000
   43       11.127858     11.170710   0.000000   0.000000
   44       11.170807     11.209469   0.000000   0.000000
   45       11.207035     11.352359   0.000000   0.000000
   46       11.329665     12.021589   0.000000   0.000000
   47       12.031647     12.329009   0.000000   0.000000
   48       12.322494     12.679625   0.000000   0.000000

 -0.2857143E+00  0.1428571E+00  0.1272259E-14  0.2040816E-01
    1      -57.393997    -55.223577   1.000000   1.000000
    2      -57.302385    -55.102560   1.000000   1.000000
    3      -57.302271    -55.101749   1.000000   1.000000
    4      -24.035738    -24.036955   1.000000   1.000000
    5      -23.890110    -23.891612   1.000000   1.000000
    6      -11.152041    -11.001554   1.000000   1.000000
    7      -10.564994    -10.441834   1.000000   1.000000
    8      -10.011173     -9.928032   1.000000   1.000000
    9       -9.975442     -9.827777   1.000000   1.000000
   10       -7.737501     -7.740357   1.000000   1.000000
   11       -7.505621     -7.504627   1.000000   1.000000
   12       -7.405718     -7.392831   1.000000   1.000000
   13       -7.102632     -7.062444   1.000000   1.000000
   14       -6.708102     -6.648649   1.000000   1.000000
   15       -6.661255     -6.635319   1.000000   1.000000
   16        0.445160      2.125481   1.000000   1.000000
   17        1.225010      2.594839   1.000000   1.000000
   18        1.876589      2.932295   1.000000   1.000000
   19        2.003575      3.209123   1.000000   1.000000
   20        2.378828      3.589479   1.000000   1.000000
   21        2.537670      4.112319   1.000000   1.000000
   22        3.793216      4.424312   1.000000   1.000000
   23        4.268338      4.755207   1.000000   1.000000
   24        4.603949      4.880723   1.000000   1.000000
   25        4.713625      5.004492   1.000000   1.000000
   26        4.859241      5.164924   1.000000   1.000000
   27        4.905623      5.174599   1.000000   1.000000
   28        5.103781      5.449580   1.000000   1.000000
   29        5.264861      5.717455   1.000000   1.000000
   30        5.675593      6.229164   1.000000   1.000000
   31        6.091764     10.254423   1.000000   0.000000
   32        6.291966     10.417264   1.000000   0.000000
   33       10.249022     10.634224   0.000000   0.000000
   34       10.432921     10.777928   0.000000   0.000000
   35       10.794119     10.910857   0.000000   0.000000
   36       10.872414     10.952447   0.000000   0.000000
   37       10.940572     10.976728   0.000000   0.000000
   38       10.970253     10.993605   0.000000   0.000000
   39       10.988697     11.054496   0.000000   0.000000
   40       11.050926     11.109947   0.000000   0.000000
   41       11.110855     11.129969   0.000000   0.000000
   42       11.125508     11.161673   0.000000   0.000000
   43       11.157559     11.172490   0.000000   0.000000
   44       11.167291     11.272643   0.000000   0.000000
   45       11.269743     11.393511   0.000000   0.000000
   46       11.383905     11.848419   0.000000   0.000000
   47       11.844812     11.984500   0.000000   0.000000
   48       11.972872     12.350448   0.000000   0.000000

 -0.1428571E+00  0.1428571E+00  0.1270181E-14  0.1020408E-01
    1      -57.394178    -55.223731   1.000000   1.000000
    2      -57.302567    -55.102654   1.000000   1.000000
    3      -57.302302    -55.101868   1.000000   1.000000
    4      -24.069452    -24.070554   1.000000   1.000000
    5      -23.895205    -23.896742   1.000000   1.000000
    6      -11.343001    -11.191502   1.000000   1.000000
    7      -10.173070    -10.108548   1.000000   1.000000
    8      -10.116071     -9.809588   1.000000   1.000000
    9       -9.861653     -9.807735   1.000000   1.000000
   10       -7.682069     -7.686771   1.000000   1.000000
   11       -7.466585     -7.470008   1.000000   1.000000
   12       -7.424785     -7.395619   1.000000   1.000000
   13       -7.323749     -7.317133   1.000000   1.000000
   14       -6.760449     -6.749073   1.000000   1.000000
   15       -6.544428     -6.453478   1.000000   1.000000
   16        1.207177      2.436240   1.000000   1.000000
   17        1.229394      2.870567   1.000000   1.000000
   18        2.089957      3.266203   1.000000   1.000000
   19        2.255434      3.285318   1.000000   1.000000
   20        2.421312      3.383506   1.000000   1.000000
   21        2.673792      4.022452   1.000000   1.000000
   22        3.593144      4.271116   1.000000   1.000000
   23        3.823543      4.669280   1.000000   1.000000
   24        4.459114      5.044910   1.000000   1.000000
   25        4.825476      5.102556   1.000000   1.000000
   26        4.970403      5.104445   1.000000   1.000000
   27        4.989715      5.192566   1.000000   1.000000
   28        5.021301      5.318206   1.000000   1.000000
   29        5.215526      5.875540   1.000000   1.000000
   30        5.444148      6.298506   1.000000   1.000000
   31        6.049806      9.904758   1.000000   0.000000
   32        6.191493     10.367660   1.000000   0.000000
   33        9.896634     10.610981   0.000000   0.000000
   34       10.381218     10.725671   0.000000   0.000000
   35       10.737105     10.863866   0.000000   0.000000
   36       10.838412     10.954198   0.000000   0.000000
   37       10.949092     10.961333   0.000000   0.000000
   38       10.949084     10.987063   0.000000   0.000000
   39       10.977469     11.094736   0.000000   0.000000
   40       11.092404     11.110692   0.000000   0.000000
   41       11.110022     11.148619   0.000000   0.000000
   42       11.149070     11.167166   0.000000   0.000000
   43       11.165035     11.218165   0.000000   0.000000
   44       11.207168     11.321631   0.000000   0.000000
   45       11.321471     11.438345   0.000000   0.000000
   46       11.434957     11.505220   0.000000   0.000000
   47       11.496072     11.611108   0.000000   0.000000
   48       11.606496     11.956050   0.000000   0.000000

  0.2857143E+00  0.2857143E+00  0.1265186E-14  0.1020408E-01
    1      -57.394108    -55.223660   1.000000   1.000000
    2      -57.302518    -55.102676   1.000000   1.000000
    3      -57.302412    -55.101923   1.000000   1.000000
    4      -23.991940    -23.993291   1.000000   1.000000
    5      -23.897160    -23.898598   1.000000   1.000000
    6      -11.137146    -11.018378   1.000000   1.000000
    7      -10.448242    -10.252986   1.000000   1.000000
    8      -10.206373    -10.157977   1.000000   1.000000
    9       -9.728425     -9.630282   1.000000   1.000000
   10       -7.813624     -7.814246   1.000000   1.000000
   11       -7.803470     -7.804667   1.000000   1.000000
   12       -7.482949     -7.471486   1.000000   1.000000
   13       -7.305599     -7.259726   1.000000   1.000000
   14       -6.691893     -6.657541   1.000000   1.000000
   15       -6.551588     -6.525705   1.000000   1.000000
   16        0.312772      1.882645   1.000000   1.000000
   17        0.656927      2.482022   1.000000   1.000000
   18        1.810373      2.783019   1.000000   1.000000
   19        2.066321      2.966877   1.000000   1.000000
   20        2.203728      3.837703   1.000000   1.000000
   21        2.214100      4.253356   1.000000   1.000000
   22        3.992060      4.515829   1.000000   1.000000