 running on   48 total cores
 distrk:  each k-point on   48 cores,    1 groups
 distr:  one band on    1 cores,   48 groups
 vasp.6.2.1 16May21 (build Aug 15 2022 14:47:30) complex                         
 POSCAR found type information on POSCAR LaNiO 
 POSCAR found :  3 types and       7 ions
 scaLAPACK will be used
 -----------------------------------------------------------------------------
|                                                                             |
|           W    W    AA    RRRRR   N    N  II  N    N   GGGG   !!!           |
|           W    W   A  A   R    R  NN   N  II  NN   N  G    G  !!!           |
|           W    W  A    A  R    R  N N  N  II  N N  N  G       !!!           |
|           W WW W  AAAAAA  RRRRR   N  N N  II  N  N N  G  GGG   !            |
|           WW  WW  A    A  R   R   N   NN  II  N   NN  G    G                |
|           W    W  A    A  R    R  N    N  II  N    N   GGGG   !!!           |
|                                                                             |
|     For optimal performance we recommend to set                             |
|       NCORE = 2 up to number-of-cores-per-socket                            |
|     NCORE specifies how many cores store one orbital (NPAR=cpu/NCORE).      |
|     This setting can greatly improve the performance of VASP for DFT.       |
|     The default, NCORE=1 might be grossly inefficient on modern             |
|     multi-core architectures or massively parallel machines. Do your        |
|     own testing! More info at https://www.vasp.at/wiki/index.php/NCORE      |
|     Unfortunately you need to use the default for GW and RPA                |
|     calculations (for HF NCORE is supported but not extensively tested      |
|     yet).                                                                   |
|                                                                             |
 -----------------------------------------------------------------------------

 LDA part: xc-table for Pade appr. of Perdew
 POSCAR found type information on POSCAR LaNiO 
 POSCAR found :  3 types and       7 ions
 -----------------------------------------------------------------------------
|                                                                             |
|           W    W    AA    RRRRR   N    N  II  N    N   GGGG   !!!           |
|           W    W   A  A   R    R  NN   N  II  NN   N  G    G  !!!           |
|           W    W  A    A  R    R  N N  N  II  N N  N  G       !!!           |
|           W WW W  AAAAAA  RRRRR   N  N N  II  N  N N  G  GGG   !            |
|           WW  WW  A    A  R   R   N   NN  II  N   NN  G    G                |
|           W    W  A    A  R    R  N    N  II  N    N   GGGG   !!!           |
|                                                                             |
|     Your reciprocal lattice and k-lattice belong to different lattice       |
|     classes:                                                                |
|                                                                             |
|        The reciprocal lattice is body-centered tetragonal,                  |
|        whereas your k-lattice is base-centered monoclinic.                  |
|                                                                             |
|     Results are often still useful ...                                      |
|                                                                             |
 -----------------------------------------------------------------------------

 POSCAR, INCAR and KPOINTS ok, starting setup
 FFT: planning ...
 WAVECAR not read
 entering main loop
       N       E                     dE             d eps       ncg     rms          rms(c)
DAV:   1     0.362750453883E+03    0.36275E+03   -0.33766E+04 11520   0.208E+03
DAV:   2    -0.489445641526E+02   -0.41170E+03   -0.41136E+03 17232   0.230E+02
DAV:   3    -0.570601663190E+02   -0.81156E+01   -0.81106E+01 11520   0.509E+01
DAV:   4    -0.573675280618E+02   -0.30736E+00   -0.30616E+00 22944   0.891E+00
DAV:   5    -0.573683560650E+02   -0.82800E-03   -0.83445E-03 11520   0.369E-01    0.356E+01
RMM:   6    -0.613352167870E+02   -0.39669E+01   -0.25175E+02 18222   0.985E+01    0.123E+02
RMM:   7    -0.607050481057E+02    0.63017E+00   -0.45607E+01 20068   0.302E+01    0.684E+01
RMM:   8    -0.507864734527E+02    0.99186E+01   -0.29470E+01 16148   0.310E+01    0.260E+01
RMM:   9    -0.498265294038E+02    0.95994E+00   -0.87959E+00 18258   0.131E+01    0.104E+01
RMM:  10    -0.501797640052E+02   -0.35323E+00   -0.62231E+00 18087   0.105E+01    0.462E+00
RMM:  11    -0.504736580768E+02   -0.29389E+00   -0.13666E+00 20059   0.412E+00    0.382E+00
RMM:  12    -0.506184821151E+02   -0.14482E+00   -0.35976E-01 20402   0.275E+00    0.254E+00
RMM:  13    -0.506555815764E+02   -0.37099E-01   -0.16349E-01 20208   0.183E+00    0.152E+00
RMM:  14    -0.506607641287E+02   -0.51826E-02   -0.68961E-02 19544   0.914E-01    0.103E+00
RMM:  15    -0.506631419975E+02   -0.23779E-02   -0.32553E-02 18687   0.804E-01    0.701E-01
RMM:  16    -0.506652576185E+02   -0.21156E-02   -0.20976E-02 16242   0.479E-01    0.517E-01
RMM:  17    -0.506665639668E+02   -0.13063E-02   -0.11177E-02 15701   0.408E-01    0.300E-01
RMM:  18    -0.506672376528E+02   -0.67369E-03   -0.84129E-03 15192   0.373E-01    0.161E-01
RMM:  19    -0.506679606133E+02   -0.72296E-03   -0.80299E-03 14237   0.296E-01    0.131E-01
RMM:  20    -0.506684043184E+02   -0.44371E-03   -0.48782E-03 13975   0.250E-01    0.118E-01
RMM:  21    -0.506688338657E+02   -0.42955E-03   -0.47216E-03 13470   0.212E-01    0.105E-01
RMM:  22    -0.506690968369E+02   -0.26297E-03   -0.31117E-03 13128   0.193E-01
   1 F= -.50669097E+02 E0= -.50669097E+02  d E =0.000000E+00  mag=     2.0483
 -----------------------------------------------------------------------------
|                                                                             |
|           W    W    AA    RRRRR   N    N  II  N    N   GGGG   !!!           |
|           W    W   A  A   R    R  NN   N  II  NN   N  G    G  !!!           |
|           W    W  A    A  R    R  N N  N  II  N N  N  G       !!!           |
|           W WW W  AAAAAA  RRRRR   N  N N  II  N  N N  G  GGG   !            |
|           WW  WW  A    A  R   R   N   NN  II  N   NN  G    G                |
|           W    W  A    A  R    R  N    N  II  N    N   GGGG   !!!           |
|                                                                             |
|     Tetrahedron method does not include variations of the Fermi             |
|     occupations, so forces and stress will be inaccurate. We suggest        |
|     using a different smearing scheme ISMEAR = 1 or 2 for metals in         |
|     relaxations.                                                            |
|                                                                             |
 -----------------------------------------------------------------------------

