   4   4   1   0
  0.1144600E+02  0.3577431E-09  0.3577431E-09  0.3577431E-09  0.5000000E-15
   1.0000000000000000E-004
  CAR 
 unknown system                          
     24.80013862    -66.89768033  301      7.28916457      1.00000000
    -66.898  0.0000E+00  0.0000E+00
    -66.592  0.0000E+00  0.0000E+00
    -66.286  0.0000E+00  0.0000E+00
    -65.981  0.0000E+00  0.0000E+00
    -65.675  0.0000E+00  0.0000E+00
    -65.369  0.0000E+00  0.0000E+00
    -65.064  0.0000E+00  0.0000E+00
    -64.758  0.0000E+00  0.0000E+00
    -64.452 -0.5656E-31 -0.1729E-31
    -64.147 -0.1640E-20 -0.5013E-21
    -63.841 -0.4325E-12 -0.1322E-12
    -63.535 -0.1074E-05 -0.3284E-06
    -63.230 -0.2354E-01 -0.7197E-02
    -62.924 -0.2440E+01 -0.7531E+00
    -62.618  0.5496E+02  0.1605E+02
    -62.313  0.2739E+02  0.2442E+02
    -62.007 -0.1363E+01  0.2400E+02
    -61.701 -0.2161E-02  0.2400E+02
    -61.396 -0.2203E-07  0.2400E+02
    -61.090 -0.5642E-15  0.2400E+02
    -60.784  0.0000E+00  0.2400E+02
    -60.479  0.0000E+00  0.2400E+02
    -60.173  0.0000E+00  0.2400E+02
    -59.868  0.0000E+00  0.2400E+02
    -59.562  0.0000E+00  0.2400E+02
    -59.256  0.0000E+00  0.2400E+02
    -58.951  0.0000E+00  0.2400E+02
    -58.645  0.0000E+00  0.2400E+02
    -58.339  0.0000E+00  0.2400E+02
    -58.034  0.0000E+00  0.2400E+02
    -57.728  0.0000E+00  0.2400E+02
    -57.422  0.0000E+00  0.2400E+02
    -57.117  0.0000E+00  0.2400E+02
    -56.811  0.0000E+00  0.2400E+02
    -56.505  0.0000E+00  0.2400E+02
    -56.200  0.0000E+00  0.2400E+02
    -55.894  0.0000E+00  0.2400E+02
    -55.588  0.0000E+00  0.2400E+02
    -55.283  0.0000E+00  0.2400E+02
    -54.977  0.0000E+00  0.2400E+02
    -54.671  0.0000E+00  0.2400E+02
    -54.366  0.0000E+00  0.2400E+02
    -54.060  0.0000E+00  0.2400E+02
    -53.754  0.0000E+00  0.2400E+02
    -53.449  0.0000E+00  0.2400E+02
    -53.143  0.0000E+00  0.2400E+02
    -52.837  0.0000E+00  0.2400E+02
    -52.532  0.0000E+00  0.2400E+02
    -52.226  0.0000E+00  0.2400E+02
    -51.920  0.0000E+00  0.2400E+02
    -51.615  0.0000E+00  0.2400E+02
    -51.309  0.0000E+00  0.2400E+02
    -51.003  0.0000E+00  0.2400E+02
    -50.698  0.0000E+00  0.2400E+02
    -50.392  0.0000E+00  0.2400E+02
    -50.086  0.0000E+00  0.2400E+02
    -49.781  0.0000E+00  0.2400E+02
    -49.475  0.0000E+00  0.2400E+02
    -49.169  0.0000E+00  0.2400E+02
    -48.864  0.0000E+00  0.2400E+02
    -48.558  0.0000E+00  0.2400E+02
    -48.252  0.0000E+00  0.2400E+02
    -47.947  0.0000E+00  0.2400E+02
    -47.641  0.0000E+00  0.2400E+02
    -47.335  0.0000E+00  0.2400E+02
    -47.030  0.0000E+00  0.2400E+02
    -46.724  0.0000E+00  0.2400E+02
    -46.419  0.0000E+00  0.2400E+02
    -46.113  0.0000E+00  0.2400E+02
    -45.807  0.0000E+00  0.2400E+02
    -45.502  0.0000E+00  0.2400E+02
    -45.196  0.0000E+00  0.2400E+02
    -44.890  0.0000E+00  0.2400E+02
    -44.585  0.0000E+00  0.2400E+02
    -44.279  0.0000E+00  0.2400E+02
    -43.973  0.0000E+00  0.2400E+02
    -43.668  0.0000E+00  0.2400E+02
    -43.362  0.0000E+00  0.2400E+02
    -43.056  0.0000E+00  0.2400E+02
    -42.751  0.0000E+00  0.2400E+02
    -42.445  0.0000E+00  0.2400E+02
    -42.139  0.0000E+00  0.2400E+02
    -41.834  0.0000E+00  0.2400E+02
    -41.528  0.0000E+00  0.2400E+02
    -41.222  0.0000E+00  0.2400E+02
    -40.917  0.0000E+00  0.2400E+02
    -40.611  0.0000E+00  0.2400E+02
    -40.305  0.0000E+00  0.2400E+02
    -40.000  0.0000E+00  0.2400E+02
    -39.694  0.0000E+00  0.2400E+02
    -39.388  0.0000E+00  0.2400E+02
    -39.083  0.0000E+00  0.2400E+02
    -38.777  0.0000E+00  0.2400E+02
    -38.471  0.0000E+00  0.2400E+02
    -38.166  0.0000E+00  0.2400E+02
    -37.860  0.0000E+00  0.2400E+02
    -37.554  0.0000E+00  0.2400E+02
    -37.249  0.0000E+00  0.2400E+02
    -36.943  0.0000E+00  0.2400E+02
    -36.637  0.0000E+00  0.2400E+02
    -36.332  0.0000E+00  0.2400E+02
    -36.026  0.0000E+00  0.2400E+02
    -35.720  0.0000E+00  0.2400E+02
    -35.415  0.0000E+00  0.2400E+02
    -35.109  0.0000E+00  0.2400E+02
    -34.803  0.0000E+00  0.2400E+02
    -34.498  0.0000E+00  0.2400E+02
    -34.192  0.0000E+00  0.2400E+02
    -33.886  0.0000E+00  0.2400E+02
    -33.581  0.0000E+00  0.2400E+02
    -33.275  0.0000E+00  0.2400E+02
    -32.969  0.0000E+00  0.2400E+02
    -32.664  0.0000E+00  0.2400E+02
    -32.358  0.0000E+00  0.2400E+02
    -32.053  0.0000E+00  0.2400E+02
    -31.747  0.0000E+00  0.2400E+02
    -31.441  0.0000E+00  0.2400E+02
    -31.136  0.0000E+00  0.2400E+02
    -30.830  0.0000E+00  0.2400E+02
    -30.524  0.0000E+00  0.2400E+02
    -30.219  0.0000E+00  0.2400E+02
    -29.913  0.0000E+00  0.2400E+02
    -29.607  0.0000E+00  0.2400E+02
    -29.302  0.0000E+00  0.2400E+02
    -28.996  0.0000E+00  0.2400E+02
    -28.690  0.0000E+00  0.2400E+02
    -28.385  0.0000E+00  0.2400E+02
    -28.079  0.0000E+00  0.2400E+02
    -27.773  0.0000E+00  0.2400E+02
    -27.468  0.0000E+00  0.2400E+02
    -27.162  0.0000E+00  0.2400E+02
    -26.856  0.0000E+00  0.2400E+02
    -26.551  0.0000E+00  0.2400E+02
    -26.245  0.0000E+00  0.2400E+02
    -25.939  0.0000E+00  0.2400E+02
    -25.634  0.0000E+00  0.2400E+02
    -25.328  0.0000E+00  0.2400E+02
    -25.022  0.0000E+00  0.2400E+02
    -24.717  0.0000E+00  0.2400E+02
    -24.411  0.0000E+00  0.2400E+02
    -24.105  0.0000E+00  0.2400E+02
    -23.800  0.0000E+00  0.2400E+02
    -23.494  0.0000E+00  0.2400E+02
    -23.188  0.0000E+00  0.2400E+02
    -22.883  0.0000E+00  0.2400E+02
    -22.577  0.0000E+00  0.2400E+02
    -22.271  0.0000E+00  0.2400E+02
    -21.966  0.0000E+00  0.2400E+02
    -21.660  0.0000E+00  0.2400E+02
    -21.354  0.0000E+00  0.2400E+02
    -21.049  0.0000E+00  0.2400E+02
    -20.743  0.0000E+00  0.2400E+02
    -20.437  0.0000E+00  0.2400E+02
    -20.132  0.0000E+00  0.2400E+02
    -19.826  0.0000E+00  0.2400E+02
    -19.520  0.0000E+00  0.2400E+02
    -19.215  0.0000E+00  0.2400E+02
    -18.909  0.0000E+00  0.2400E+02
    -18.603  0.0000E+00  0.2400E+02
    -18.298  0.0000E+00  0.2400E+02
    -17.992  0.0000E+00  0.2400E+02
    -17.687  0.0000E+00  0.2400E+02
    -17.381  0.0000E+00  0.2400E+02
    -17.075  0.0000E+00  0.2400E+02
    -16.770  0.0000E+00  0.2400E+02
    -16.464  0.0000E+00  0.2400E+02
    -16.158  0.0000E+00  0.2400E+02
    -15.853  0.0000E+00  0.2400E+02
    -15.547  0.0000E+00  0.2400E+02
    -15.241  0.0000E+00  0.2400E+02
    -14.936  0.0000E+00  0.2400E+02
    -14.630  0.0000E+00  0.2400E+02
    -14.324  0.0000E+00  0.2400E+02
    -14.019  0.0000E+00  0.2400E+02
    -13.713  0.0000E+00  0.2400E+02
    -13.407  0.0000E+00  0.2400E+02
    -13.102  0.0000E+00  0.2400E+02
    -12.796  0.0000E+00  0.2400E+02
    -12.490  0.0000E+00  0.2400E+02
    -12.185  0.0000E+00  0.2400E+02
    -11.879  0.0000E+00  0.2400E+02
    -11.573  0.0000E+00  0.2400E+02
    -11.268  0.0000E+00  0.2400E+02
    -10.962  0.0000E+00  0.2400E+02
    -10.656  0.0000E+00  0.2400E+02
    -10.351  0.0000E+00  0.2400E+02
    -10.045  0.0000E+00  0.2400E+02
     -9.739  0.0000E+00  0.2400E+02
     -9.434  0.0000E+00  0.2400E+02
     -9.128  0.0000E+00  0.2400E+02
     -8.822  0.0000E+00  0.2400E+02
     -8.517  0.0000E+00  0.2400E+02
     -8.211  0.0000E+00  0.2400E+02
     -7.905  0.0000E+00  0.2400E+02
     -7.600  0.0000E+00  0.2400E+02
     -7.294  0.0000E+00  0.2400E+02
     -6.988  0.0000E+00  0.2400E+02
     -6.683  0.0000E+00  0.2400E+02
     -6.377  0.0000E+00  0.2400E+02
     -6.071  0.0000E+00  0.2400E+02
     -5.766  0.0000E+00  0.2400E+02
     -5.460  0.0000E+00  0.2400E+02
     -5.154  0.0000E+00  0.2400E+02
     -4.849  0.0000E+00  0.2400E+02
     -4.543  0.0000E+00  0.2400E+02
     -4.238 -0.1380E-40  0.2400E+02
     -3.932 -0.4063E-29  0.2400E+02
     -3.626 -0.1089E-19  0.2400E+02
     -3.321 -0.2578E-12  0.2400E+02
     -3.015 -0.5987E-07  0.2400E+02
     -2.709 -0.1504E-03  0.2400E+02
     -2.404 -0.7365E-03  0.2400E+02
     -2.098  0.7584E-01  0.2402E+02
     -1.792  0.1926E+00  0.2408E+02
     -1.487  0.2457E+00  0.2416E+02
     -1.181  0.3129E+00  0.2425E+02
     -0.875  0.3354E+00  0.2436E+02
     -0.570  0.4614E+00  0.2450E+02
     -0.264  0.3900E+00  0.2462E+02
      0.042  0.6070E+00  0.2480E+02
      0.347  0.5183E+00  0.2496E+02
      0.653  0.6730E+00  0.2516E+02
      0.959  0.8117E+00  0.2541E+02
      1.264  0.8114E+00  0.2566E+02
      1.570  0.1191E+01  0.2603E+02
      1.876  0.1359E+01  0.2644E+02
      2.181  0.2799E+01  0.2730E+02
      2.487  0.4389E+01  0.2864E+02
      2.793  0.5569E+01  0.3034E+02
      3.098  0.8483E+01  0.3293E+02
      3.404  0.8156E+01  0.3543E+02
      3.710  0.8647E+01  0.3807E+02
      4.015  0.1183E+02  0.4169E+02
      4.321  0.1514E+02  0.4632E+02
      4.627  0.1234E+02  0.5009E+02
      4.932  0.1180E+02  0.5369E+02
      5.238  0.1299E+02  0.5766E+02
      5.544  0.1458E+02  0.6212E+02
      5.849  0.1284E+02  0.6605E+02
      6.155  0.1521E+01  0.6651E+02
      6.461  0.1366E+01  0.6693E+02
      6.766  0.1259E+01  0.6731E+02
      7.072  0.1509E+01  0.6777E+02
      7.378  0.9860E+00  0.6808E+02
      7.683  0.1167E+01  0.6843E+02
      7.989  0.1280E+01  0.6882E+02
      8.295  0.8616E+00  0.6909E+02
      8.600  0.1096E+01  0.6942E+02
      8.906  0.1049E+01  0.6974E+02
      9.212  0.1045E+01  0.7006E+02
      9.517  0.7915E+00  0.7030E+02
      9.823  0.1015E+01  0.7062E+02
     10.128  0.6674E+00  0.7082E+02
     10.434  0.8003E+00  0.7106E+02
     10.740  0.6560E+00  0.7126E+02
     11.045  0.5685E+00  0.7144E+02
     11.351  0.7053E+00  0.7165E+02
     11.657  0.1093E+01  0.7199E+02
     11.962  0.1220E+01  0.7236E+02
     12.268  0.1052E+01  0.7268E+02
     12.574  0.1252E+01  0.7306E+02
     12.879  0.1083E+01  0.7340E+02
     13.185  0.9829E+00  0.7370E+02
     13.491  0.9682E+00  0.7399E+02
     13.796  0.1113E+01  0.7433E+02
     14.102  0.8038E+00  0.7458E+02
     14.408  0.9960E+00  0.7488E+02
     14.713  0.8264E+00  0.7514E+02
     15.019  0.1192E+01  0.7550E+02
     15.325  0.1240E+01  0.7588E+02
     15.630  0.1539E+01  0.7635E+02
     15.936  0.1008E+01  0.7666E+02
     16.242  0.1511E+01  0.7712E+02
     16.547  0.1625E+01  0.7762E+02
     16.853  0.9230E+00  0.7790E+02
     17.159  0.1511E+01  0.7836E+02
     17.464  0.1068E+01  0.7869E+02
     17.770  0.1521E+01  0.7915E+02
     18.076  0.9812E+00  0.7945E+02
     18.381  0.6400E+00  0.7965E+02
     18.687  0.5385E+00  0.7981E+02
     18.993  0.3491E+00  0.7992E+02
     19.298  0.1867E+00  0.7997E+02
     19.604  0.2807E-01  0.7998E+02
     19.910 -0.2588E-02  0.7998E+02
     20.215  0.4821E-01  0.8000E+02
     20.521  0.6445E-02  0.8000E+02
     20.827  0.3149E-02  0.8000E+02
     21.132 -0.7923E-04  0.8000E+02
     21.438 -0.4368E-05  0.8000E+02
     21.744 -0.3603E-09  0.8000E+02
     22.049 -0.2220E-15  0.8000E+02
     22.355  0.0000E+00  0.8000E+02
     22.661  0.0000E+00  0.8000E+02
     22.966  0.0000E+00  0.8000E+02
     23.272  0.0000E+00  0.8000E+02
     23.578  0.0000E+00  0.8000E+02
     23.883  0.0000E+00  0.8000E+02
     24.189  0.0000E+00  0.8000E+02
     24.494  0.0000E+00  0.8000E+02
     24.800  0.0000E+00  0.8000E+02
     24.80013862    -66.89768033  301      7.28916457      1.00000000
    -66.898  0.0000E+00  0.0000E+00  0.0000E+00  0.0000E+00  0.0000E+00  0.0000E+00  0.0000E+00  0.0000E+00  0.0000E+00
    -66.592  0.0000E+00  0.0000E+00  0.0000E+00  0.0000E+00  0.0000E+00  0.0000E+00  0.0000E+00  0.0000E+00  0.0000E+00
    -66.286  0.0000E+00  0.0000E+00  0.0000E+00  0.0000E+00  0.0000E+00  0.0000E+00  0.0000E+00  0.0000E+00  0.0000E+00
    -65.981  0.0000E+00  0.0000E+00  0.0000E+00  0.0000E+00  0.0000E+00  0.0000E+00  0.0000E+00  0.0000E+00  0.0000E+00
    -65.675  0.0000E+00  0.0000E+00  0.0000E+00  0.0000E+00  0.0000E+00  0.0000E+00  0.0000E+00  0.0000E+00  0.0000E+00
    -65.369  0.0000E+00  0.0000E+00  0.0000E+00  0.0000E+00  0.0000E+00  0.0000E+00  0.0000E+00  0.0000E+00  0.0000E+00
    -65.064  0.0000E+00  0.0000E+00  0.0000E+00  0.0000E+00  0.0000E+00  0.0000E+00  0.0000E+00  0.0000E+00  0.0000E+00
    -64.758  0.0000E+00  0.0000E+00  0.0000E+00  0.0000E+00  0.0000E+00  0.0000E+00  0.0000E+00  0.0000E+00  0.0000E+00
    -64.452 -0.2389E-37 -0.4691E-32 -0.4691E-32 -0.4691E-32 -0.8241E-38 -0.8241E-38 -0.3616E-38 -0.8241E-38 -0.3616E-38
    -64.147 -0.7597E-27 -0.1361E-21 -0.1361E-21 -0.1361E-21 -0.2562E-27 -0.2562E-27 -0.1111E-27 -0.2562E-27 -0.1111E-27
    -63.841 -0.2170E-18 -0.3588E-13 -0.3588E-13 -0.3588E-13 -0.7273E-19 -0.7273E-19 -0.3138E-19 -0.7273E-19 -0.3138E-19
    -63.535 -0.5662E-12 -0.8916E-07 -0.8916E-07 -0.8916E-07 -0.1949E-12 -0.1949E-12 -0.8466E-13 -0.1949E-12 -0.8466E-13
    -63.230 -0.1208E-07 -0.1954E-02 -0.1954E-02 -0.1954E-02 -0.4537E-08 -0.4537E-08 -0.2056E-08 -0.4537E-08 -0.2056E-08
    -62.924 -0.9515E-06 -0.2027E+00 -0.2027E+00 -0.2027E+00 -0.4704E-06 -0.4704E-06 -0.2437E-06 -0.4704E-06 -0.2437E-06
    -62.618  0.2250E-04  0.4564E+01  0.4564E+01  0.4564E+01  0.1054E-04  0.1054E-04  0.5348E-05  0.1054E-04  0.5348E-05
    -62.313  0.7802E-05  0.2275E+01  0.2275E+01  0.2275E+01  0.4791E-05  0.4791E-05  0.2734E-05  0.4791E-05  0.2734E-05
    -62.007 -0.3879E-06 -0.1133E+00 -0.1133E+00 -0.1133E+00 -0.2378E-06 -0.2378E-06 -0.1358E-06 -0.2378E-06 -0.1358E-06
    -61.701 -0.4059E-09 -0.1796E-03 -0.1796E-03 -0.1796E-03 -0.3261E-09 -0.3261E-09 -0.2033E-09 -0.3261E-09 -0.2033E-09
    -61.396 -0.3046E-14 -0.1831E-08 -0.1831E-08 -0.1831E-08 -0.2948E-14 -0.2948E-14 -0.1911E-14 -0.2948E-14 -0.1911E-14
    -61.090 -0.1669E-22 -0.4691E-16 -0.4691E-16 -0.4691E-16 -0.3021E-22 -0.3021E-22 -0.1309E-22 -0.3021E-22 -0.1309E-22
    -60.784  0.0000E+00  0.0000E+00  0.0000E+00  0.0000E+00  0.0000E+00  0.0000E+00  0.0000E+00  0.0000E+00  0.0000E+00
    -60.479  0.0000E+00  0.0000E+00  0.0000E+00  0.0000E+00  0.0000E+00  0.0000E+00  0.0000E+00  0.0000E+00  0.0000E+00
    -60.173  0.0000E+00  0.0000E+00  0.0000E+00  0.0000E+00  0.0000E+00  0.0000E+00  0.0000E+00  0.0000E+00  0.0000E+00
    -59.868  0.0000E+00  0.0000E+00  0.0000E+00  0.0000E+00  0.0000E+00  0.0000E+00  0.0000E+00  0.0000E+00  0.0000E+00
    -59.562  0.0000E+00  0.0000E+00  0.0000E+00  0.0000E+00  0.0000E+00  0.0000E+00  0.0000E+00  0.0000E+00  0.0000E+00
    -59.256  0.0000E+00  0.0000E+00  0.0000E+00  0.0000E+00  0.0000E+00  0.0000E+00  0.0000E+00  0.0000E+00  0.0000E+00
    -58.951  0.0000E+00  0.0000E+00  0.0000E+00  0.0000E+00  0.0000E+00  0.0000E+00  0.0000E+00  0.0000E+00  0.0000E+00
    -58.645  0.0000E+00  0.0000E+00  0.0000E+00  0.0000E+00  0.0000E+00  0.0000E+00  0.0000E+00  0.0000E+00  0.0000E+00
    -58.339  0.0000E+00  0.0000E+00  0.0000E+00  0.0000E+00  0.0000E+00  0.0000E+00  0.0000E+00  0.0000E+00  0.0000E+00
    -58.034  0.0000E+00  0.0000E+00  0.0000E+00  0.0000E+00  0.0000E+00  0.0000E+00  0.0000E+00  0.0000E+00  0.0000E+00
    -57.728  0.0000E+00  0.0000E+00  0.0000E+00  0.0000E+00  0.0000E+00  0.0000E+00  0.0000E+00  0.0000E+00  0.0000E+00
    -57.422  0.0000E+00  0.0000E+00  0.0000E+00  0.0000E+00  0.0000E+00  0.0000E+00  0.0000E+00  0.0000E+00  0.0000E+00
    -57.117  0.0000E+00  0.0000E+00  0.0000E+00  0.0000E+00  0.0000E+00  0.0000E+00  0.0000E+00  0.0000E+00  0.0000E+00
    -56.811  0.0000E+00  0.0000E+00  0.0000E+00  0.0000E+00  0.0000E+00  0.0000E+00  0.0000E+00  0.0000E+00  0.0000E+00
    -56.505  0.0000E+00  0.0000E+00  0.0000E+00  0.0000E+00  0.0000E+00  0.0000E+00  0.0000E+00  0.0000E+00  0.0000E+00
    -56.200  0.0000E+00  0.0000E+00  0.0000E+00  0.0000E+00  0.0000E+00  0.0000E+00  0.0000E+00  0.0000E+00  0.0000E+00
    -55.894  0.0000E+00  0.0000E+00  0.0000E+00  0.0000E+00  0.0000E+00  0.0000E+00  0.0000E+00  0.0000E+00  0.0000E+00
    -55.588  0.0000E+00  0.0000E+00  0.0000E+00  0.0000E+00  0.0000E+00  0.0000E+00  0.0000E+00  0.0000E+00  0.0000E+00
    -55.283  0.0000E+00  0.0000E+00  0.0000E+00  0.0000E+00  0.0000E+00  0.0000E+00  0.0000E+00  0.0000E+00  0.0000E+00
    -54.977  0.0000E+00  0.0000E+00  0.0000E+00  0.0000E+00  0.0000E+00  0.0000E+00  0.0000E+00  0.0000E+00  0.0000E+00
    -54.671  0.0000E+00  0.0000E+00  0.0000E+00  0.0000E+00  0.0000E+00  0.0000E+00  0.0000E+00  0.0000E+00  0.0000E+00
    -54.366  0.0000E+00  0.0000E+00  0.0000E+00  0.0000E+00  0.0000E+00  0.0000E+00  0.0000E+00  0.0000E+00  0.0000E+00
    -54.060  0.0000E+00  0.0000E+00  0.0000E+00  0.0000E+00  0.0000E+00  0.0000E+00  0.0000E+00  0.0000E+00  0.0000E+00
    -53.754  0.0000E+00  0.0000E+00  0.0000E+00  0.0000E+00  0.0000E+00  0.0000E+00  0.0000E+00  0.0000E+00  0.0000E+00
    -53.449  0.0000E+00  0.0000E+00  0.0000E+00  0.0000E+00  0.0000E+00  0.0000E+00  0.0000E+00  0.0000E+00  0.0000E+00
    -53.143  0.0000E+00  0.0000E+00  0.0000E+00  0.0000E+00  0.0000E+00  0.0000E+00  0.0000E+00  0.0000E+00  0.0000E+00
    -52.837  0.0000E+00  0.0000E+00  0.0000E+00  0.0000E+00  0.0000E+00  0.0000E+00  0.0000E+00  0.0000E+00  0.0000E+00
    -52.532  0.0000E+00  0.0000E+00  0.0000E+00  0.0000E+00  0.0000E+00  0.0000E+00  0.0000E+00  0.0000E+00  0.0000E+00
    -52.226  0.0000E+00  0.0000E+00  0.0000E+00  0.0000E+00  0.0000E+00  0.0000E+00  0.0000E+00  0.0000E+00  0.0000E+00
    -51.920  0.0000E+00  0.0000E+00  0.0000E+00  0.0000E+00  0.0000E+00  0.0000E+00  0.0000E+00  0.0000E+00  0.0000E+00
    -51.615  0.0000E+00  0.0000E+00  0.0000E+00  0.0000E+00  0.0000E+00  0.0000E+00  0.0000E+00  0.0000E+00  0.0000E+00
    -51.309  0.0000E+00  0.0000E+00  0.0000E+00  0.0000E+00  0.0000E+00  0.0000E+00  0.0000E+00  0.0000E+00  0.0000E+00
    -51.003  0.0000E+00  0.0000E+00  0.0000E+00  0.0000E+00  0.0000E+00  0.0000E+00  0.0000E+00  0.0000E+00  0.0000E+00
    -50.698  0.0000E+00  0.0000E+00  0.0000E+00  0.0000E+00  0.0000E+00  0.0000E+00  0.0000E+00  0.0000E+00  0.0000E+00
    -50.392  0.0000E+00  0.0000E+00  0.0000E+00  0.0000E+00  0.0000E+00  0.0000E+00  0.0000E+00  0.0000E+00  0.0000E+00
    -50.086  0.0000E+00  0.0000E+00  0.0000E+00  0.0000E+00  0.0000E+00  0.0000E+00  0.0000E+00  0.0000E+00  0.0000E+00
    -49.781  0.0000E+00  0.0000E+00  0.0000E+00  0.0000E+00  0.0000E+00  0.0000E+00  0.0000E+00  0.0000E+00  0.0000E+00
    -49.475  0.0000E+00  0.0000E+00  0.0000E+00  0.0000E+00  0.0000E+00  0.0000E+00  0.0000E+00  0.0000E+00  0.0000E+00
    -49.169  0.0000E+00  0.0000E+00  0.0000E+00  0.0000E+00  0.0000E+00  0.0000E+00  0.0000E+00  0.0000E+00  0.0000E+00
    -48.864  0.0000E+00  0.0000E+00  0.0000E+00  0.0000E+00  0.0000E+00  0.0000E+00  0.0000E+00  0.0000E+00  0.0000E+00
    -48.558  0.0000E+00  0.0000E+00  0.0000E+00  0.0000E+00  0.0000E+00  0.0000E+00  0.0000E+00  0.0000E+00  0.0000E+00
    -48.252  0.0000E+00  0.0000E+00  0.0000E+00  0.0000E+00  0.0000E+00  0.0000E+00  0.0000E+00  0.0000E+00  0.0000E+00
    -47.947  0.0000E+00  0.0000E+00  0.0000E+00  0.0000E+00  0.0000E+00  0.0000E+00  0.0000E+00  0.0000E+00  0.0000E+00
    -47.641  0.0000E+00  0.0000E+00  0.0000E+00  0.0000E+00  0.0000E+00  0.0000E+00  0.0000E+00  0.0000E+00  0.0000E+00
    -47.335  0.0000E+00  0.0000E+00  0.0000E+00  0.0000E+00  0.0000E+00  0.0000E+00  0.0000E+00  0.0000E+00  0.0000E+00
    -47.030  0.0000E+00  0.0000E+00  0.0000E+00  0.0000E+00  0.0000E+00  0.0000E+00  0.0000E+00  0.0000E+00  0.0000E+00
    -46.724  0.0000E+00  0.0000E+00  0.0000E+00  0.0000E+00  0.0000E+00  0.0000E+00  0.0000E+00  0.0000E+00  0.0000E+00
    -46.419  0.0000E+00  0.0000E+00  0.0000E+00  0.0000E+00  0.0000E+00  0.0000E+00  0.0000E+00  0.0000E+00  0.0000E+00
    -46.113  0.0000E+00  0.0000E+00  0.0000E+00  0.0000E+00  0.0000E+00  0.0000E+00  0.0000E+00  0.0000E+00  0.0000E+00
    -45.807  0.0000E+00  0.0000E+00  0.0000E+00  0.0000E+00  0.0000E+00  0.0000E+00  0.0000E+00  0.0000E+00  0.0000E+00
    -45.502  0.0000E+00  0.0000E+00  0.0000E+00  0.0000E+00  0.0000E+00  0.0000E+00  0.0000E+00  0.0000E+00  0.0000E+00
    -45.196  0.0000E+00  0.0000E+00  0.0000E+00  0.0000E+00  0.0000E+00  0.0000E+00  0.0000E+00  0.0000E+00  0.0000E+00
    -44.890  0.0000E+00  0.0000E+00  0.0000E+00  0.0000E+00  0.0000E+00  0.0000E+00  0.0000E+00  0.0000E+00  0.0000E+00
    -44.585  0.0000E+00  0.0000E+00  0.0000E+00  0.0000E+00  0.0000E+00  0.0000E+00  0.0000E+00  0.0000E+00  0.0000E+00
    -44.279  0.0000E+00  0.0000E+00  0.0000E+00  0.0000E+00  0.0000E+00  0.0000E+00  0.0000E+00  0.0000E+00  0.0000E+00
    -43.973  0.0000E+00  0.0000E+00  0.0000E+00  0.0000E+00  0.0000E+00  0.0000E+00  0.0000E+00  0.0000E+00  0.0000E+00
    -43.668  0.0000E+00  0.0000E+00  0.0000E+00  0.0000E+00  0.0000E+00  0.0000E+00  0.0000E+00  0.0000E+00  0.0000E+00
    -43.362  0.0000E+00  0.0000E+00  0.0000E+00  0.0000E+00  0.0000E+00  0.0000E+00  0.0000E+00  0.0000E+00  0.0000E+00
    -43.056  0.0000E+00  0.0000E+00  0.0000E+00  0.0000E+00  0.0000E+00  0.0000E+00  0.0000E+00  0.0000E+00  0.0000E+00
    -42.751  0.0000E+00  0.0000E+00  0.0000E+00  0.0000E+00  0.0000E+00  0.0000E+00  0.0000E+00  0.0000E+00  0.0000E+00
    -42.445  0.0000E+00  0.0000E+00  0.0000E+00  0.0000E+00  0.0000E+00  0.0000E+00  0.0000E+00  0.0000E+00  0.0000E+00
    -42.139  0.0000E+00  0.0000E+00  0.0000E+00  0.0000E+00  0.0000E+00  0.0000E+00  0.0000E+00  0.0000E+00  0.0000E+00
    -41.834  0.0000E+00  0.0000E+00  0.0000E+00  0.0000E+00  0.0000E+00  0.0000E+00  0.0000E+00  0.0000E+00  0.0000E+00
    -41.528  0.0000E+00  0.0000E+00  0.0000E+00  0.0000E+00  0.0000E+00  0.0000E+00  0.0000E+00  0.0000E+00  0.0000E+00
    -41.222  0.0000E+00  0.0000E+00  0.0000E+00  0.0000E+00  0.0000E+00  0.0000E+00  0.0000E+00  0.0000E+00  0.0000E+00
    -40.917  0.0000E+00  0.0000E+00  0.0000E+00  0.0000E+00  0.0000E+00  0.0000E+00  0.0000E+00  0.0000E+00  0.0000E+00
    -40.611  0.0000E+00  0.0000E+00  0.0000E+00  0.0000E+00  0.0000E+00  0.0000E+00  0.0000E+00  0.0000E+00  0.0000E+00
    -40.305  0.0000E+00  0.0000E+00  0.0000E+00  0.0000E+00  0.0000E+00  0.0000E+00  0.0000E+00  0.0000E+00  0.0000E+00
    -40.000  0.0000E+00  0.0000E+00  0.0000E+00  0.0000E+00  0.0000E+00  0.0000E+00  0.0000E+00  0.0000E+00  0.0000E+00
    -39.694  0.0000E+00  0.0000E+00  0.0000E+00  0.0000E+00  0.0000E+00  0.0000E+00  0.0000E+00  0.0000E+00  0.0000E+00
    -39.388  0.0000E+00  0.0000E+00  0.0000E+00  0.0000E+00  0.0000E+00  0.0000E+00  0.0000E+00  0.0000E+00  0.0000E+00
    -39.083  0.0000E+00  0.0000E+00  0.0000E+00  0.0000E+00  0.0000E+00  0.0000E+00  0.0000E+00  0.0000E+00  0.0000E+00
    -38.777  0.0000E+00  0.0000E+00  0.0000E+00  0.0000E+00  0.0000E+00  0.0000E+00  0.0000E+00  0.0000E+00  0.0000E+00
    -38.471  0.0000E+00  0.0000E+00  0.0000E+00  0.0000E+00  0.0000E+00  0.0000E+00  0.0000E+00  0.0000E+00  0.0000E+00
    -38.166  0.0000E+00  0.0000E+00  0.0000E+00  0.0000E+00  0.0000E+00  0.0000E+00  0.0000E+00  0.0000E+00  0.0000E+00
    -37.860  0.0000E+00  0.0000E+00  0.0000E+00  0.0000E+00  0.0000E+00  0.0000E+00  0.0000E+00  0.0000E+00  0.0000E+00
    -37.554  0.0000E+00  0.0000E+00  0.0000E+00  0.0000E+00  0.0000E+00  0.0000E+00  0.0000E+00  0.0000E+00  0.0000E+00
    -37.249  0.0000E+00  0.0000E+00  0.0000E+00  0.0000E+00  0.0000E+00  0.0000E+00  0.0000E+00  0.0000E+00  0.0000E+00
    -36.943  0.0000E+00  0.0000E+00  0.0000E+00  0.0000E+00  0.0000E+00  0.0000E+00  0.0000E+00  0.0000E+00  0.0000E+00
    -36.637  0.0000E+00  0.0000E+00  0.0000E+00  0.0000E+00  0.0000E+00  0.0000E+00  0.0000E+00  0.0000E+00  0.0000E+00
    -36.332  0.0000E+00  0.0000E+00  0.0000E+00  0.0000E+00  0.0000E+00  0.0000E+00  0.0000E+00  0.0000E+00  0.0000E+00
    -36.026  0.0000E+00  0.0000E+00  0.0000E+00  0.0000E+00  0.0000E+00  0.0000E+00  0.0000E+00  0.0000E+00  0.0000E+00
    -35.720  0.0000E+00  0.0000E+00  0.0000E+00  0.0000E+00  0.0000E+00  0.0000E+00  0.0000E+00  0.0000E+00  0.0000E+00
    -35.415  0.0000E+00  0.0000E+00  0.0000E+00  0.0000E+00  0.0000E+00  0.0000E+00  0.0000E+00  0.0000E+00  0.0000E+00
    -35.109  0.0000E+00  0.0000E+00  0.0000E+00  0.0000E+00  0.0000E+00  0.0000E+00  0.0000E+00  0.0000E+00  0.0000E+00
    -34.803  0.0000E+00  0.0000E+00  0.0000E+00  0.0000E+00  0.0000E+00  0.0000E+00  0.0000E+00  0.0000E+00  0.0000E+00
    -34.498  0.0000E+00  0.0000E+00  0.0000E+00  0.0000E+00  0.0000E+00  0.0000E+00  0.0000E+00  0.0000E+00  0.0000E+00
    -34.192  0.0000E+00  0.0000E+00  0.0000E+00  0.0000E+00  0.0000E+00  0.0000E+00  0.0000E+00  0.0000E+00  0.0000E+00
    -33.886  0.0000E+00  0.0000E+00  0.0000E+00  0.0000E+00  0.0000E+00  0.0000E+00  0.0000E+00  0.0000E+00  0.0000E+00
    -33.581  0.0000E+00  0.0000E+00  0.0000E+00  0.0000E+00  0.0000E+00  0.0000E+00  0.0000E+00  0.0000E+00  0.0000E+00
    -33.275  0.0000E+00  0.0000E+00  0.0000E+00  0.0000E+00  0.0000E+00  0.0000E+00  0.0000E+00  0.0000E+00  0.0000E+00
    -32.969  0.0000E+00  0.0000E+00  0.0000E+00  0.0000E+00  0.0000E+00  0.0000E+00  0.0000E+00  0.0000E+00  0.0000E+00
    -32.664  0.0000E+00  0.0000E+00  0.0000E+00  0.0000E+00  0.0000E+00  0.0000E+00  0.0000E+00  0.0000E+00  0.0000E+00
    -32.358  0.0000E+00  0.0000E+00  0.0000E+00  0.0000E+00  0.0000E+00  0.0000E+00  0.0000E+00  0.0000E+00  0.0000E+00
    -32.053  0.0000E+00  0.0000E+00  0.0000E+00  0.0000E+00  0.0000E+00  0.0000E+00  0.0000E+00  0.0000E+00  0.0000E+00
    -31.747  0.0000E+00  0.0000E+00  0.0000E+00  0.0000E+00  0.0000E+00  0.0000E+00  0.0000E+00  0.0000E+00  0.0000E+00
    -31.441  0.0000E+00  0.0000E+00  0.0000E+00  0.0000E+00  0.0000E+00  0.0000E+00  0.0000E+00  0.0000E+00  0.0000E+00
    -31.136  0.0000E+00  0.0000E+00  0.0000E+00  0.0000E+00  0.0000E+00  0.0000E+00  0.0000E+00  0.0000E+00  0.0000E+00
    -30.830  0.0000E+00  0.0000E+00  0.0000E+00  0.0000E+00  0.0000E+00  0.0000E+00  0.0000E+00  0.0000E+00  0.0000E+00
    -30.524  0.0000E+00  0.0000E+00  0.0000E+00  0.0000E+00  0.0000E+00  0.0000E+00  0.0000E+00  0.0000E+00  0.0000E+00
    -30.219  0.0000E+00  0.0000E+00  0.0000E+00  0.0000E+00  0.0000E+00  0.0000E+00  0.0000E+00  0.0000E+00  0.0000E+00
    -29.913  0.0000E+00  0.0000E+00  0.0000E+00  0.0000E+00  0.0000E+00  0.0000E+00  0.0000E+00  0.0000E+00  0.0000E+00
    -29.607  0.0000E+00  0.0000E+00  0.0000E+00  0.0000E+00  0.0000E+00  0.0000E+00  0.0000E+00  0.0000E+00  0.0000E+00
    -29.302  0.0000E+00  0.0000E+00  0.0000E+00  0.0000E+00  0.0000E+00  0.0000E+00  0.0000E+00  0.0000E+00  0.0000E+00
    -28.996  0.0000E+00  0.0000E+00  0.0000E+00  0.0000E+00  0.0000E+00  0.0000E+00  0.0000E+00  0.0000E+00  0.0000E+00
    -28.690  0.0000E+00  0.0000E+00  0.0000E+00  0.0000E+00  0.0000E+00  0.0000E+00  0.0000E+00  0.0000E+00  0.0000E+00
    -28.385  0.0000E+00  0.0000E+00  0.0000E+00  0.0000E+00  0.0000E+00  0.0000E+00  0.0000E+00  0.0000E+00  0.0000E+00
    -28.079  0.0000E+00  0.0000E+00  0.0000E+00  0.0000E+00  0.0000E+00  0.0000E+00  0.0000E+00  0.0000E+00  0.0000E+00
    -27.773  0.0000E+00  0.0000E+00  0.0000E+00  0.0000E+00  0.0000E+00  0.0000E+00  0.0000E+00  0.0000E+00  0.0000E+00
    -27.468  0.0000E+00  0.0000E+00  0.0000E+00  0.0000E+00  0.0000E+00  0.0000E+00  0.0000E+00  0.0000E+00  0.0000E+00
    -27.162  0.0000E+00  0.0000E+00  0.0000E+00  0.0000E+00  0.0000E+00  0.0000E+00  0.0000E+00  0.0000E+00  0.0000E+00
    -26.856  0.0000E+00  0.0000E+00  0.0000E+00  0.0000E+00  0.0000E+00  0.0000E+00  0.0000E+00  0.0000E+00  0.0000E+00
    -26.551  0.0000E+00  0.0000E+00  0.0000E+00  0.0000E+00  0.0000E+00  0.0000E+00  0.0000E+00  0.0000E+00  0.0000E+00
    -26.245  0.0000E+00  0.0000E+00  0.0000E+00  0.0000E+00  0.0000E+00  0.0000E+00  0.0000E+00  0.0000E+00  0.0000E+00
    -25.939  0.0000E+00  0.0000E+00  0.0000E+00  0.0000E+00  0.0000E+00  0.0000E+00  0.0000E+00  0.0000E+00  0.0000E+00
    -25.634  0.0000E+00  0.0000E+00  0.0000E+00  0.0000E+00  0.0000E+00  0.0000E+00  0.0000E+00  0.0000E+00  0.0000E+00
    -25.328  0.0000E+00  0.0000E+00  0.0000E+00  0.0000E+00  0.0000E+00  0.0000E+00  0.0000E+00  0.0000E+00  0.0000E+00
    -25.022  0.0000E+00  0.0000E+00  0.0000E+00  0.0000E+00  0.0000E+00  0.0000E+00  0.0000E+00  0.0000E+00  0.0000E+00
    -24.717  0.0000E+00  0.0000E+00  0.0000E+00  0.0000E+00  0.0000E+00  0.0000E+00  0.0000E+00  0.0000E+00  0.0000E+00
    -24.411  0.0000E+00  0.0000E+00  0.0000E+00  0.0000E+00  0.0000E+00  0.0000E+00  0.0000E+00  0.0000E+00  0.0000E+00
    -24.105  0.0000E+00  0.0000E+00  0.0000E+00  0.0000E+00  0.0000E+00  0.0000E+00  0.0000E+00  0.0000E+00  0.0000E+00
    -23.800  0.0000E+00  0.0000E+00  0.0000E+00  0.0000E+00  0.0000E+00  0.0000E+00  0.0000E+00  0.0000E+00  0.0000E+00
    -23.494  0.0000E+00  0.0000E+00  0.0000E+00  0.0000E+00  0.0000E+00  0.0000E+00  0.0000E+00  0.0000E+00  0.0000E+00
    -23.188  0.0000E+00  0.0000E+00  0.0000E+00  0.0000E+00  0.0000E+00  0.0000E+00  0.0000E+00  0.0000E+00  0.0000E+00
    -22.883  0.0000E+00  0.0000E+00  0.0000E+00  0.0000E+00  0.0000E+00  0.0000E+00  0.0000E+00  0.0000E+00  0.0000E+00
    -22.577  0.0000E+00  0.0000E+00  0.0000E+00  0.0000E+00  0.0000E+00  0.0000E+00  0.0000E+00  0.0000E+00  0.0000E+00
    -22.271  0.0000E+00  0.0000E+00  0.0000E+00  0.0000E+00  0.0000E+00  0.0000E+00  0.0000E+00  0.0000E+00  0.0000E+00
    -21.966  0.0000E+00  0.0000E+00  0.0000E+00  0.0000E+00  0.0000E+00  0.0000E+00  0.0000E+00  0.0000E+00  0.0000E+00
    -21.660  0.0000E+00  0.0000E+00  0.0000E+00  0.0000E+00  0.0000E+00  0.0000E+00  0.0000E+00  0.0000E+00  0.0000E+00
    -21.354  0.0000E+00  0.0000E+00  0.0000E+00  0.0000E+00  0.0000E+00  0.0000E+00  0.0000E+00  0.0000E+00  0.0000E+00
    -21.049  0.0000E+00  0.0000E+00  0.0000E+00  0.0000E+00  0.0000E+00  0.0000E+00  0.0000E+00  0.0000E+00  0.0000E+00
    -20.743  0.0000E+00  0.0000E+00  0.0000E+00  0.0000E+00  0.0000E+00  0.0000E+00  0.0000E+00  0.0000E+00  0.0000E+00
    -20.437  0.0000E+00  0.0000E+00  0.0000E+00  0.0000E+00  0.0000E+00  0.0000E+00  0.0000E+00  0.0000E+00  0.0000E+00
    -20.132  0.0000E+00  0.0000E+00  0.0000E+00  0.0000E+00  0.0000E+00  0.0000E+00  0.0000E+00  0.0000E+00  0.0000E+00
    -19.826  0.0000E+00  0.0000E+00  0.0000E+00  0.0000E+00  0.0000E+00  0.0000E+00  0.0000E+00  0.0000E+00  0.0000E+00
    -19.520  0.0000E+00  0.0000E+00  0.0000E+00  0.0000E+00  0.0000E+00  0.0000E+00  0.0000E+00  0.0000E+00  0.0000E+00
    -19.215  0.0000E+00  0.0000E+00  0.0000E+00  0.0000E+00  0.0000E+00  0.0000E+00  0.0000E+00  0.0000E+00  0.0000E+00