 vasp.6.2.1 16May21 (build Aug 15 2022 14:47:30) complex                         
 executed on             LinuxGNU date 2025.12.24  15:19:28
 running on    4 total cores
 distrk:  each k-point on    4 cores,    1 groups
 distr:  one band on NCORE=   1 cores,    4 groups


--------------------------------------------------------------------------------------------------------


 INCAR:
   ALGO = Fast
   EDIFF = 1e-8
   ENCUT = 520.0
   ISMEAR = 1
   LASPH = True
   LCHARG = True
   LORBIT = 11
   LREAL = False
   LWAVE = False
   NELM = 100
   NSW = 0
   PREC = Accurate

 POTCAR:   PAW_PBE Cu_pv 06Sep2000                
 POTCAR:   PAW_PBE Cu_pv 06Sep2000                
   VRHFIN =Cu: d10 p1                                                                               
   LEXCH  = PE                                                                                      
   EATOM  =  4119.1903 eV,  302.7519 Ry                                                             
                                                                                                    
   TITEL  = PAW_PBE Cu_pv 06Sep2000                                                                 
   LULTRA =        F    use ultrasoft PP ?                                                          
   IUNSCR =        1    unscreen: 0-lin 1-nonlin 2-no                                               
   RPACOR =    1.500    partial core radius                                                         
   POMASS =   63.546; ZVAL   =   17.000    mass and valenz                                          
   RCORE  =    2.000    outmost cutoff radius                                                       
   RWIGS  =    2.000; RWIGS  =    1.058    wigner-seitz radius (au A)                               
   ENMAX  =  368.605; ENMIN  =  276.454 eV                                                          
   RCLOC  =    1.304    cutoff for local pot                                                        
   LCOR   =        T    correct aug charges                                                         
   LPAW   =        T    paw PP                                                                      
   EAUG   =  758.233                                                                                
   DEXC   =    -.002                                                                                
   RMAX   =    2.402    core radius for proj-oper                                                   
   RAUG   =    1.300    factor for augmentation sphere                                              
   RDEP   =    2.025    radius for radial grids                                                     
   QCUT   =   -5.205; QGAM   =   10.410    optimization parameters                                  
                                                                                                    
   Description                                                                                      
     l     E      TYP  RCUT    TYP  RCUT                                                            
     1   .000     23  1.700                                                                         
     1  -.100     23  1.700                                                                         
     2   .000     23  2.000                                                                         
     2   .000     23  2.000                                                                         
     0   .000     23  1.800                                                                         
     0   .000     23  1.800                                                                         
     3   .000      7   .000                                                                         
  local pseudopotential read in
  partial core-charges read in
  atomic valenz-charges read in
  non local Contribution for L=           1  read in
    real space projection operators read in
  non local Contribution for L=           1  read in
    real space projection operators read in
  non local Contribution for L=           2  read in
    real space projection operators read in
  non local Contribution for L=           2  read in
    real space projection operators read in
  non local Contribution for L=           0  read in
    real space projection operators read in
  non local Contribution for L=           0  read in
    real space projection operators read in
    PAW grid and wavefunctions read in

   number of l-projection  operators is LMAX  =           6
   number of lm-projection operators is LMMAX =          18

 PAW_PBE Cu_pv 06Sep2000                :
 energy of atom  1       EATOM=-4119.1903
 kinetic energy error for atom=    0.0541 (will be added to EATOM!!)


 POSCAR: # Generated by Masgent for elastic const
  positions in direct lattice
  No initial velocities read in
 exchange correlation table for  LEXCH =        8
   RHO(1)=    0.500       N(1)  =     2000
   RHO(2)=  100.500       N(2)  =     4000

 VTST: version 4.2, (08/11/21)

 CHAIN: initializing optimizer
 
 OPT: Using VASP Dynamics algorithm
 CHAIN: Read ICHAIN            0

 POSCAR: # Generated by Masgent for elastic const
  positions in direct lattice
  No initial velocities read in



--------------------------------------------------------------------------------------------------------


 ion  position               nearest neighbor table
   1  0.000  0.000  0.000-   2 2.53   3 2.53   2 2.53   3 2.53   2 2.53   4 2.53   2 2.53   3 2.53
                             4 2.53   3 2.53   4 2.53   4 2.53
   2  0.000  0.500  0.500-   1 2.53   4 2.53   1 2.53   4 2.53   1 2.53   3 2.53   1 2.53   3 2.53
                             4 2.53   4 2.53   3 2.53   3 2.53
   3  0.500  0.000  0.500-   1 2.53   4 2.53   1 2.53   4 2.53   2 2.53   4 2.53   4 2.53   1 2.53
                             2 2.53   1 2.53   2 2.53   2 2.53
   4  0.500  0.500  0.000-   2 2.53   3 2.53   2 2.53   3 2.53   1 2.53   3 2.53   3 2.53   1 2.53
                             2 2.53   2 2.53   1 2.53   1 2.53

  LATTYP: Found a simple cubic cell.
 ALAT       =     3.5774306716
  
  Lattice vectors:
  
 A1 = (   3.5774306716,   0.0000000000,   0.0000000000)
 A2 = (   0.0000000000,   3.5774306716,   0.0000000000)
 A3 = (   0.0000000000,   0.0000000000,   3.5774306716)


Analysis of symmetry for initial positions (statically):
=====================================================================
 Subroutine PRICEL returns following result:
 
  LATTYP: Found a face centered cubic cell.
 ALAT       =     3.5774306716
  
  Lattice vectors:
  
 A1 = (   1.7887153358,  -1.7887153358,   0.0000000000)
 A2 = (   1.7887153358,   0.0000000000,   1.7887153358)
 A3 = (   0.0000000000,  -1.7887153358,   1.7887153358)
 
   4 primitive cells build up your supercell.
 

 Routine SETGRP: Setting up the symmetry group for a 
 simple cubic supercell.


 Subroutine GETGRP returns: Found 48 space group operations
 (whereof 48 operations were pure point group operations)
 out of a pool of 48 trial point group operations.


The static configuration has the point symmetry O_h .


Analysis of symmetry for dynamics (positions and initial velocities):
=====================================================================
 Subroutine PRICEL returns following result:
 
  LATTYP: Found a face centered cubic cell.
 ALAT       =     3.5774306716
  
  Lattice vectors:
  
 A1 = (   1.7887153358,  -1.7887153358,   0.0000000000)
 A2 = (   1.7887153358,   0.0000000000,   1.7887153358)
 A3 = (   0.0000000000,  -1.7887153358,   1.7887153358)
 
   4 primitive cells build up your supercell.
 

 Routine SETGRP: Setting up the symmetry group for a 
 simple cubic supercell.


 Subroutine GETGRP returns: Found 48 space group operations
 (whereof 48 operations were pure point group operations)
 out of a pool of 48 trial point group operations.


The dynamic configuration has the point symmetry O_h .


 Subroutine INISYM returns: Found 48 space group operations
 (whereof 48 operations are pure point group operations),
 and found     4 'primitive' translations


----------------------------------------------------------------------------------------

                                     Primitive cell                                     

  volume of cell :      11.4460

  direct lattice vectors                    reciprocal lattice vectors
     1.788715336 -1.788715336  0.000000000     0.279530225 -0.279530225 -0.279530225
     1.788715336  0.000000000  1.788715336     0.279530225  0.279530225  0.279530225
     0.000000000 -1.788715336  1.788715336    -0.279530225 -0.279530225  0.279530225

  length of vectors
     2.529625487  2.529625487  2.529625487     0.484160552  0.484160552  0.484160552

  position of ions in fractional coordinates (direct lattice)
     0.000000000  0.000000000  0.000000000

  ion indices of the primitive-cell ions
   primitive index   ion index
                 1           1

----------------------------------------------------------------------------------------



 KPOINTS: # Generated by Masgent for elastic const

Automatic generation of k-mesh.
 Grid dimensions read from file:
 generate k-points for:   12   12   12

 Generating k-lattice:

  Cartesian coordinates                     Fractional coordinates (reciprocal lattice)
     0.023294185 -0.000000000  0.000000000     0.083333333  0.000000000  0.000000000
     0.000000000  0.023294185  0.000000000     0.000000000  0.083333333  0.000000000
    -0.000000000 -0.000000000  0.023294185     0.000000000  0.000000000  0.083333333

  Length of vectors
     0.023294185  0.023294185  0.023294185

  Shift w.r.t. Gamma in fractional coordinates (k-lattice)
     0.000000000  0.000000000  0.000000000

 
 Subroutine IBZKPT returns following result:
 ===========================================
 
 Found     84 irreducible k-points:
 
 Following reciprocal coordinates:
            Coordinates               Weight
  0.000000  0.000000  0.000000      1.000000
  0.083333  0.000000  0.000000      6.000000
  0.166667  0.000000  0.000000      6.000000
  0.250000  0.000000  0.000000      6.000000
  0.333333  0.000000  0.000000      6.000000
  0.416667  0.000000  0.000000      6.000000
  0.500000  0.000000  0.000000      3.000000
  0.083333  0.083333  0.000000     12.000000
  0.166667  0.083333  0.000000     24.000000
  0.250000  0.083333  0.000000     24.000000
  0.333333  0.083333  0.000000     24.000000
  0.416667  0.083333  0.000000     24.000000
  0.500000  0.083333  0.000000     12.000000
  0.166667  0.166667  0.000000     12.000000
  0.250000  0.166667  0.000000     24.000000
  0.333333  0.166667  0.000000     24.000000
  0.416667  0.166667  0.000000     24.000000
  0.500000  0.166667  0.000000     12.000000
  0.250000  0.250000  0.000000     12.000000
  0.333333  0.250000  0.000000     24.000000
  0.416667  0.250000  0.000000     24.000000
  0.500000  0.250000  0.000000     12.000000
  0.333333  0.333333  0.000000     12.000000
  0.416667  0.333333  0.000000     24.000000
  0.500000  0.333333  0.000000     12.000000
  0.416667  0.416667  0.000000     12.000000
  0.500000  0.416667  0.000000     12.000000
  0.500000  0.500000  0.000000      3.000000
  0.083333  0.083333  0.083333      8.000000
  0.166667  0.083333  0.083333     24.000000
  0.250000  0.083333  0.083333     24.000000
  0.333333  0.083333  0.083333     24.000000
  0.416667  0.083333  0.083333     24.000000
  0.500000  0.083333  0.083333     12.000000
  0.166667  0.166667  0.083333     24.000000
  0.250000  0.166667  0.083333     48.000000
  0.333333  0.166667  0.083333     48.000000
  0.416667  0.166667  0.083333     48.000000
  0.500000  0.166667  0.083333     24.000000
  0.250000  0.250000  0.083333     24.000000
  0.333333  0.250000  0.083333     48.000000
  0.416667  0.250000  0.083333     48.000000
  0.500000  0.250000  0.083333     24.000000
  0.333333  0.333333  0.083333     24.000000
  0.416667  0.333333  0.083333     48.000000
  0.500000  0.333333  0.083333     24.000000
  0.416667  0.416667  0.083333     24.000000
  0.500000  0.416667  0.083333     24.000000
  0.500000  0.500000  0.083333      6.000000
  0.166667  0.166667  0.166667      8.000000
  0.250000  0.166667  0.166667     24.000000
  0.333333  0.166667  0.166667     24.000000
  0.416667  0.166667  0.166667     24.000000
  0.500000  0.166667  0.166667     12.000000
  0.250000  0.250000  0.166667     24.000000
  0.333333  0.250000  0.166667     48.000000
  0.416667  0.250000  0.166667     48.000000
  0.500000  0.250000  0.166667     24.000000
  0.333333  0.333333  0.166667     24.000000
  0.416667  0.333333  0.166667     48.000000
  0.500000  0.333333  0.166667     24.000000
  0.416667  0.416667  0.166667     24.000000
  0.500000  0.416667  0.166667     24.000000
  0.500000  0.500000  0.166667      6.000000
  0.250000  0.250000  0.250000      8.000000
  0.333333  0.250000  0.250000     24.000000
  0.416667  0.250000  0.250000     24.000000
  0.500000  0.250000  0.250000     12.000000
  0.333333  0.333333  0.250000     24.000000
  0.416667  0.333333  0.250000     48.000000
  0.500000  0.333333  0.250000     24.000000
  0.416667  0.416667  0.250000     24.000000
  0.500000  0.416667  0.250000     24.000000
  0.500000  0.500000  0.250000      6.000000
  0.333333  0.333333  0.333333      8.000000
  0.416667  0.333333  0.333333     24.000000
  0.500000  0.333333  0.333333     12.000000
  0.416667  0.416667  0.333333     24.000000
  0.500000  0.416667  0.333333     24.000000
  0.500000  0.500000  0.333333      6.000000
  0.416667  0.416667  0.416667      8.000000
  0.500000  0.416667  0.416667     12.000000
  0.500000  0.500000  0.416667      6.000000
  0.500000  0.500000  0.500000      1.000000
 
 Following cartesian coordinates:
            Coordinates               Weight
  0.000000  0.000000  0.000000      1.000000
  0.023294  0.000000  0.000000      6.000000
  0.046588  0.000000  0.000000      6.000000
  0.069883  0.000000  0.000000      6.000000
  0.093177  0.000000  0.000000      6.000000
  0.116471  0.000000  0.000000      6.000000
  0.139765  0.000000  0.000000      3.000000
  0.023294  0.023294  0.000000     12.000000
  0.046588  0.023294  0.000000     24.000000
  0.069883  0.023294  0.000000     24.000000
  0.093177  0.023294  0.000000     24.000000
  0.116471  0.023294  0.000000     24.000000
  0.139765  0.023294  0.000000     12.000000
  0.046588  0.046588  0.000000     12.000000
  0.069883  0.046588  0.000000     24.000000
  0.093177  0.046588  0.000000     24.000000
  0.116471  0.046588  0.000000     24.000000
  0.139765  0.046588  0.000000     12.000000
  0.069883  0.069883  0.000000     12.000000
  0.093177  0.069883  0.000000     24.000000
  0.116471  0.069883  0.000000     24.000000
  0.139765  0.069883  0.000000     12.000000
  0.093177  0.093177  0.000000     12.000000
  0.116471  0.093177  0.000000     24.000000
  0.139765  0.093177  0.000000     12.000000
  0.116471  0.116471  0.000000     12.000000
  0.139765  0.116471  0.000000     12.000000
  0.139765  0.139765  0.000000      3.000000
  0.023294  0.023294  0.023294      8.000000
  0.046588  0.023294  0.023294     24.000000
  0.069883  0.023294  0.023294     24.000000
  0.093177  0.023294  0.023294     24.000000
  0.116471  0.023294  0.023294     24.000000
  0.139765  0.023294  0.023294     12.000000
  0.046588  0.046588  0.023294     24.000000
  0.069883  0.046588  0.023294     48.000000
  0.093177  0.046588  0.023294     48.000000
  0.116471  0.046588  0.023294     48.000000
  0.139765  0.046588  0.023294     24.000000
  0.069883  0.069883  0.023294     24.000000
  0.093177  0.069883  0.023294     48.000000
  0.116471  0.069883  0.023294     48.000000
  0.139765  0.069883  0.023294     24.000000
  0.093177  0.093177  0.023294     24.000000
  0.116471  0.093177  0.023294     48.000000
  0.139765  0.093177  0.023294     24.000000
  0.116471  0.116471  0.023294     24.000000
  0.139765  0.116471  0.023294     24.000000
  0.139765  0.139765  0.023294      6.000000
  0.046588  0.046588  0.046588      8.000000
  0.069883  0.046588  0.046588     24.000000
  0.093177  0.046588  0.046588     24.000000
  0.116471  0.046588  0.046588     24.000000
  0.139765  0.046588  0.046588     12.000000
  0.069883  0.069883  0.046588     24.000000
  0.093177  0.069883  0.046588     48.000000
  0.116471  0.069883  0.046588     48.000000
  0.139765  0.069883  0.046588     24.000000
  0.093177  0.093177  0.046588     24.000000
  0.116471  0.093177  0.046588     48.000000
  0.139765  0.093177  0.046588     24.000000
  0.116471  0.116471  0.046588     24.000000
  0.139765  0.116471  0.046588     24.000000
  0.139765  0.139765  0.046588      6.000000
  0.069883  0.069883  0.069883      8.000000
  0.093177  0.069883  0.069883     24.000000
  0.116471  0.069883  0.069883     24.000000
  0.139765  0.069883  0.069883     12.000000
  0.093177  0.093177  0.069883     24.000000
  0.116471  0.093177  0.069883     48.000000
  0.139765  0.093177  0.069883     24.000000
  0.116471  0.116471  0.069883     24.000000
  0.139765  0.116471  0.069883     24.000000
  0.139765  0.139765  0.069883      6.000000
  0.093177  0.093177  0.093177      8.000000
  0.116471  0.093177  0.093177     24.000000
  0.139765  0.093177  0.093177     12.000000
  0.116471  0.116471  0.093177     24.000000
  0.139765  0.116471  0.093177     24.000000
  0.139765  0.139765  0.093177      6.000000
  0.116471  0.116471  0.116471      8.000000
  0.139765  0.116471  0.116471     12.000000
  0.139765  0.139765  0.116471      6.000000
  0.139765  0.139765  0.139765      1.000000
 


--------------------------------------------------------------------------------------------------------




 Dimension of arrays:
   k-points           NKPTS =     84   k-points in BZ     NKDIM =     84   number of bands    NBANDS=     40
   number of dos      NEDOS =    301   number of ions     NIONS =      4
   non local maximal  LDIM  =      6   non local SUM 2l+1 LMDIM =     18
   total plane-waves  NPLWV =  21952
   max r-space proj   IRMAX =      1   max aug-charges    IRDMAX=   9658
   dimension x,y,z NGX =    28 NGY =   28 NGZ =   28
   dimension x,y,z NGXF=    56 NGYF=   56 NGZF=   56
   support grid    NGXF=    56 NGYF=   56 NGZF=   56
   ions per type =               4
   NGX,Y,Z   is equivalent  to a cutoff of  13.01, 13.01, 13.01 a.u.
   NGXF,Y,Z  is equivalent  to a cutoff of  26.02, 26.02, 26.02 a.u.

 SYSTEM =  unknown system                          
 POSCAR =  # Generated by Masgent for elastic const

 Startparameter for this run:
   NWRITE =      2    write-flag & timer
   PREC   = accura    normal or accurate (medium, high low for compatibility)
   ISTART =      0    job   : 0-new  1-cont  2-samecut
   ICHARG =      2    charge: 1-file 2-atom 10-const
   ISPIN  =      1    spin polarized calculation?
   LNONCOLLINEAR =      F non collinear calculations
   LSORBIT =      F    spin-orbit coupling
   INIWAV =      1    electr: 0-lowe 1-rand  2-diag
   LASPH  =      T    aspherical Exc in radial PAW
 Electronic Relaxation 1
   ENCUT  =  520.0 eV  38.22 Ry    6.18 a.u.   6.65  6.65  6.65*2*pi/ulx,y,z
   ENINI  =  520.0     initial cutoff
   ENAUG  =  758.2 eV  augmentation charge cutoff
   NELM   =    100;   NELMIN=  2; NELMDL= -5     # of ELM steps 
   EDIFF  = 0.1E-07   stopping-criterion for ELM
   LREAL  =      F    real-space projection
   NLSPLINE    = F    spline interpolate recip. space projectors
   LCOMPAT=      F    compatible to vasp.4.4
   GGA_COMPAT  = T    GGA compatible to vasp.4.4-vasp.4.6
   LMAXPAW     = -100 max onsite density
   LMAXMIX     =    2 max onsite mixed and CHGCAR
   VOSKOWN=      0    Vosko Wilk Nusair interpolation
   ROPT   =    0.00000
 Ionic relaxation
   EDIFFG = 0.1E-06   stopping-criterion for IOM
   NSW    =      0    number of steps for IOM
   NBLOCK =      1;   KBLOCK =      1    inner block; outer block 
   IBRION =     -1    ionic relax: 0-MD 1-quasi-New 2-CG
   NFREE  =      0    steps in history (QN), initial steepest desc. (CG)
   ISIF   =      2    stress and relaxation
   IWAVPR =     10    prediction:  0-non 1-charg 2-wave 3-comb
   ISYM   =      2    0-nonsym 1-usesym 2-fastsym
   LCORR  =      T    Harris-Foulkes like correction to forces

   POTIM  = 0.5000    time-step for ionic-motion
   TEIN   =    0.0    initial temperature
   TEBEG  =    0.0;   TEEND  =   0.0 temperature during run
   SMASS  =  -3.00    Nose mass-parameter (am)
   estimated Nose-frequenzy (Omega)   =  0.10E-29 period in steps = 0.13E+47 mass=  -0.292E-27a.u.
   SCALEE = 1.0000    scale energy and forces
   NPACO  =    256;   APACO  = 16.0  distance and # of slots for P.C.
   PSTRESS=    0.0 pullay stress

  Mass of Ions in am
   POMASS =  63.55
  Ionic Valenz
   ZVAL   =  17.00
  Atomic Wigner-Seitz radii
   RWIGS  =  -1.00
  virtual crystal weights 
   VCA    =   1.00
   NELECT =      68.0000    total number of electrons
   NUPDOWN=      -1.0000    fix difference up-down

 DOS related values:
   EMIN   =  10.00;   EMAX   =-10.00  energy-range for DOS
   EFERMI =   0.00
   ISMEAR =     1;   SIGMA  =   0.20  broadening in eV -4-tet -1-fermi 0-gaus

 Electronic relaxation 2 (details)
   IALGO  =     68    algorithm
   LDIAG  =      T    sub-space diagonalisation (order eigenvalues)
   LSUBROT=      F    optimize rotation matrix (better conditioning)
   TURBO    =      0    0=normal 1=particle mesh
   IRESTART =      0    0=no restart 2=restart with 2 vectors
   NREBOOT  =      0    no. of reboots
   NMIN     =      0    reboot dimension
   EREF     =   0.00    reference energy to select bands
   IMIX   =      4    mixing-type and parameters
     AMIX     =   0.40;   BMIX     =  1.00
     AMIX_MAG =   1.60;   BMIX_MAG =  1.00
     AMIN     =   0.10
     WC   =   100.;   INIMIX=   1;  MIXPRE=   1;  MAXMIX= -45

 Intra band minimization:
   WEIMIN = 0.0000     energy-eigenvalue tresh-hold
   EBREAK =  0.63E-10  absolut break condition
   DEPER  =   0.30     relativ break condition  

   TIME   =   0.40     timestep for ELM

  volume/ion in A,a.u.               =      11.45        77.24
  Fermi-wavevector in a.u.,A,eV,Ry     =   1.867841  3.529708 47.468415  3.488830
  Thomas-Fermi vector in A             =   2.914230

 Write flags
   LWAVE        =      F    write WAVECAR
   LDOWNSAMPLE  =      F    k-point downsampling of WAVECAR
   LCHARG       =      T    write CHGCAR
   LVTOT        =      F    write LOCPOT, total local potential
   LVHAR        =      F    write LOCPOT, Hartree potential only
   LELF         =      F    write electronic localiz. function (ELF)
   LORBIT       =     11    0 simple, 1 ext, 2 COOP (PROOUT), +10 PAW based schemes


 Dipole corrections
   LMONO  =      F    monopole corrections only (constant potential shift)
   LDIPOL =      F    correct potential (dipole corrections)
   IDIPOL =      0    1-x, 2-y, 3-z, 4-all directions 
   EPSILON=  1.0000000 bulk dielectric constant

 Exchange correlation treatment:
   GGA     =    --    GGA type
   LEXCH   =     8    internal setting for exchange type
   VOSKOWN=      0    Vosko Wilk Nusair interpolation
   LHFCALC =     F    Hartree Fock is set to
   LHFONE  =     F    Hartree Fock one center treatment
   AEXX    =    0.0000 exact exchange contribution

 Linear response parameters
   LEPSILON=     F    determine dielectric tensor
   LRPA    =     F    only Hartree local field effects (RPA)
   LNABLA  =     F    use nabla operator in PAW spheres
   LVEL    =     F    velocity operator in full k-point grid
   LINTERFAST=   F  fast interpolation
   KINTER  =     0    interpolate to denser k-point grid
   CSHIFT  =0.1000    complex shift for real part using Kramers Kronig
   OMEGAMAX=  -1.0    maximum frequency
   DEG_THRESHOLD= 0.2000000E-02 threshold for treating states as degnerate
   RTIME   =   -0.100 relaxation time in fs
  (WPLASMAI=    0.000 imaginary part of plasma frequency in eV, 0.658/RTIME)
   DFIELD  = 0.0000000 0.0000000 0.0000000 field for delta impulse in time

 Orbital magnetization related:
   ORBITALMAG=     F  switch on orbital magnetization
   LCHIMAG   =     F  perturbation theory with respect to B field
   DQ        =  0.001000  dq finite difference perturbation B field
   LLRAUG    =     F  two centre corrections for induced B field



--------------------------------------------------------------------------------------------------------


 Static calculation
 charge density and potential will be updated during run
 non-spin polarized calculation
 RMM-DIIS sequential band-by-band and
  variant of blocked Davidson during initial phase
 perform sub-space diagonalisation
    before iterative eigenvector-optimisation
 modified Broyden-mixing scheme, WC =      100.0
 initial mixing is a Kerker type mixing with AMIX =  0.4000 and BMIX =      1.0000
 Hartree-type preconditioning will be used
 using additional bands            6
 reciprocal scheme for non local part
 use partial core corrections
 calculate Harris-corrections to forces   (improved forces if not selfconsistent)
 use gradient corrections 
 use of overlap-Matrix (Vanderbilt PP)
 Methfessel and Paxton  Order N= 1 SIGMA  =   0.20


--------------------------------------------------------------------------------------------------------


  energy-cutoff  :      520.00
  volume of cell :       45.78
      direct lattice vectors                 reciprocal lattice vectors
     3.577430672  0.000000000  0.000000000     0.279530225 -0.000000000  0.000000000
     0.000000000  3.577430672  0.000000000     0.000000000  0.279530225  0.000000000
     0.000000000  0.000000000  3.577430672    -0.000000000 -0.000000000  0.279530225

  length of vectors
     3.577430672  3.577430672  3.577430672     0.279530225  0.279530225  0.279530225



 k-points in units of 2pi/SCALE and weight: # Generated by Masgent for elastic const
   0.00000000  0.00000000  0.00000000       0.001
   0.02329419  0.00000000  0.00000000       0.003
   0.04658837  0.00000000  0.00000000       0.003
   0.06988256  0.00000000  0.00000000       0.003
   0.09317674  0.00000000  0.00000000       0.003
   0.11647093  0.00000000  0.00000000       0.003
   0.13976511  0.00000000  0.00000000       0.002
   0.02329419  0.02329419  0.00000000       0.007
   0.04658837  0.02329419  0.00000000       0.014
   0.06988256  0.02329419  0.00000000       0.014
   0.09317674  0.02329419  0.00000000       0.014
   0.11647093  0.02329419  0.00000000       0.014
   0.13976511  0.02329419  0.00000000       0.007
   0.04658837  0.04658837  0.00000000       0.007
   0.06988256  0.04658837  0.00000000       0.014
   0.09317674  0.04658837  0.00000000       0.014
   0.11647093  0.04658837  0.00000000       0.014
   0.13976511  0.04658837  0.00000000       0.007
   0.06988256  0.06988256  0.00000000       0.007
   0.09317674  0.06988256  0.00000000       0.014
   0.11647093  0.06988256  0.00000000       0.014
   0.13976511  0.06988256  0.00000000       0.007
   0.09317674  0.09317674  0.00000000       0.007
   0.11647093  0.09317674  0.00000000       0.014
   0.13976511  0.09317674  0.00000000       0.007
   0.11647093  0.11647093  0.00000000       0.007
   0.13976511  0.11647093  0.00000000       0.007
   0.13976511  0.13976511  0.00000000       0.002
   0.02329419  0.02329419  0.02329419       0.005
   0.04658837  0.02329419  0.02329419       0.014
   0.06988256  0.02329419  0.02329419       0.014
   0.09317674  0.02329419  0.02329419       0.014
   0.11647093  0.02329419  0.02329419       0.014
   0.13976511  0.02329419  0.02329419       0.007
   0.04658837  0.04658837  0.02329419       0.014
   0.06988256  0.04658837  0.02329419       0.028
   0.09317674  0.04658837  0.02329419       0.028
   0.11647093  0.04658837  0.02329419       0.028
   0.13976511  0.04658837  0.02329419       0.014
   0.06988256  0.06988256  0.02329419       0.014
   0.09317674  0.06988256  0.02329419       0.028
   0.11647093  0.06988256  0.02329419       0.028
   0.13976511  0.06988256  0.02329419       0.014
   0.09317674  0.09317674  0.02329419       0.014
   0.11647093  0.09317674  0.02329419       0.028
   0.13976511  0.09317674  0.02329419       0.014
   0.11647093  0.11647093  0.02329419       0.014
   0.13976511  0.11647093  0.02329419       0.014
   0.13976511  0.13976511  0.02329419       0.003
   0.04658837  0.04658837  0.04658837       0.005
   0.06988256  0.04658837  0.04658837       0.014
   0.09317674  0.04658837  0.04658837       0.014
   0.11647093  0.04658837  0.04658837       0.014
   0.13976511  0.04658837  0.04658837       0.007
   0.06988256  0.06988256  0.04658837       0.014
   0.09317674  0.06988256  0.04658837       0.028
   0.11647093  0.06988256  0.04658837       0.028
   0.13976511  0.06988256  0.04658837       0.014
   0.09317674  0.09317674  0.04658837       0.014
   0.11647093  0.09317674  0.04658837       0.028
   0.13976511  0.09317674  0.04658837       0.014
   0.11647093  0.11647093  0.04658837       0.014
   0.13976511  0.11647093  0.04658837       0.014
   0.13976511  0.13976511  0.04658837       0.003
   0.06988256  0.06988256  0.06988256       0.005
   0.09317674  0.06988256  0.06988256       0.014
   0.11647093  0.06988256  0.06988256       0.014
   0.13976511  0.06988256  0.06988256       0.007
   0.09317674  0.09317674  0.06988256       0.014
   0.11647093  0.09317674  0.06988256       0.028
   0.13976511  0.09317674  0.06988256       0.014
   0.11647093  0.11647093  0.06988256       0.014
   0.13976511  0.11647093  0.06988256       0.014
   0.13976511  0.13976511  0.06988256       0.003
   0.09317674  0.09317674  0.09317674       0.005
   0.11647093  0.09317674  0.09317674       0.014
   0.13976511  0.09317674  0.09317674       0.007
   0.11647093  0.11647093  0.09317674       0.014
   0.13976511  0.11647093  0.09317674       0.014
   0.13976511  0.13976511  0.09317674       0.003
   0.11647093  0.11647093  0.11647093       0.005
   0.13976511  0.11647093  0.11647093       0.007
   0.13976511  0.13976511  0.11647093       0.003
   0.13976511  0.13976511  0.13976511       0.001

 k-points in reciprocal lattice and weights: # Generated by Masgent for elastic const
   0.00000000  0.00000000  0.00000000       0.001
   0.08333333  0.00000000  0.00000000       0.003
   0.16666667  0.00000000  0.00000000       0.003
   0.25000000  0.00000000  0.00000000       0.003
   0.33333333  0.00000000  0.00000000       0.003
   0.41666667  0.00000000  0.00000000       0.003
   0.50000000  0.00000000  0.00000000       0.002
   0.08333333  0.08333333  0.00000000       0.007
   0.16666667  0.08333333  0.00000000       0.014
   0.25000000  0.08333333  0.00000000       0.014
   0.33333333  0.08333333  0.00000000       0.014
   0.41666667  0.08333333  0.00000000       0.014
   0.50000000  0.08333333  0.00000000       0.007
   0.16666667  0.16666667  0.00000000       0.007
   0.25000000  0.16666667  0.00000000       0.014
   0.33333333  0.16666667  0.00000000       0.014
   0.41666667  0.16666667  0.00000000       0.014
   0.50000000  0.16666667  0.00000000       0.007
   0.25000000  0.25000000  0.00000000       0.007
   0.33333333  0.25000000  0.00000000       0.014
   0.41666667  0.25000000  0.00000000       0.014
   0.50000000  0.25000000  0.00000000       0.007
   0.33333333  0.33333333  0.00000000       0.007
   0.41666667  0.33333333  0.00000000       0.014
   0.50000000  0.33333333  0.00000000       0.007
   0.41666667  0.41666667  0.00000000       0.007
   0.50000000  0.41666667  0.00000000       0.007
   0.50000000  0.50000000  0.00000000       0.002
   0.08333333  0.08333333  0.08333333       0.005
   0.16666667  0.08333333  0.08333333       0.014
   0.25000000  0.08333333  0.08333333       0.014
   0.33333333  0.08333333  0.08333333       0.014
   0.41666667  0.08333333  0.08333333       0.014
   0.50000000  0.08333333  0.08333333       0.007
   0.16666667  0.16666667  0.08333333       0.014
   0.25000000  0.16666667  0.08333333       0.028
   0.33333333  0.16666667  0.08333333       0.028
   0.41666667  0.16666667  0.08333333       0.028
   0.50000000  0.16666667  0.08333333       0.014
   0.25000000  0.25000000  0.08333333       0.014
   0.33333333  0.25000000  0.08333333       0.028
   0.41666667  0.25000000  0.08333333       0.028
   0.50000000  0.25000000  0.08333333       0.014
   0.33333333  0.33333333  0.08333333       0.014
   0.41666667  0.33333333  0.08333333       0.028
   0.50000000  0.33333333  0.08333333       0.014
   0.41666667  0.41666667  0.08333333       0.014
   0.50000000  0.41666667  0.08333333       0.014
   0.50000000  0.50000000  0.08333333       0.003
   0.16666667  0.16666667  0.16666667       0.005
   0.25000000  0.16666667  0.16666667       0.014
   0.33333333  0.16666667  0.16666667       0.014
   0.41666667  0.16666667  0.16666667       0.014
   0.50000000  0.16666667  0.16666667       0.007
   0.25000000  0.25000000  0.16666667       0.014
   0.33333333  0.25000000  0.16666667       0.028
   0.41666667  0.25000000  0.16666667       0.028
   0.50000000  0.25000000  0.16666667       0.014
   0.33333333  0.33333333  0.16666667       0.014
   0.41666667  0.33333333  0.16666667       0.028
   0.50000000  0.33333333  0.16666667       0.014
   0.41666667  0.41666667  0.16666667       0.014
   0.50000000  0.41666667  0.16666667       0.014
   0.50000000  0.50000000  0.16666667       0.003
   0.25000000  0.25000000  0.25000000       0.005
   0.33333333  0.25000000  0.25000000       0.014
   0.41666667  0.25000000  0.25000000       0.014
   0.50000000  0.25000000  0.25000000       0.007
   0.33333333  0.33333333  0.25000000       0.014
   0.41666667  0.33333333  0.25000000       0.028
   0.50000000  0.33333333  0.25000000       0.014
   0.41666667  0.41666667  0.25000000       0.014
   0.50000000  0.41666667  0.25000000       0.014
   0.50000000  0.50000000  0.25000000       0.003
   0.33333333  0.33333333  0.33333333       0.005
   0.41666667  0.33333333  0.33333333       0.014
   0.50000000  0.33333333  0.33333333       0.007
   0.41666667  0.41666667  0.33333333       0.014
   0.50000000  0.41666667  0.33333333       0.014
   0.50000000  0.50000000  0.33333333       0.003
   0.41666667  0.41666667  0.41666667       0.005
   0.50000000  0.41666667  0.41666667       0.007
   0.50000000  0.50000000  0.41666667       0.003
   0.50000000  0.50000000  0.50000000       0.001

 position of ions in fractional coordinates (direct lattice) 
   0.00000000  0.00000000  0.00000000
   0.00000000  0.50000000  0.50000000
   0.50000000  0.00000000  0.50000000
   0.50000000  0.50000000  0.00000000

 position of ions in cartesian coordinates  (Angst):
   0.00000000  0.00000000  0.00000000
   0.00000000  1.78871534  1.78871534
   1.78871534  0.00000000  1.78871534
   1.78871534  1.78871534  0.00000000



--------------------------------------------------------------------------------------------------------


 k-point   1 :   0.0000 0.0000 0.0000  plane waves:    1237
 k-point   2 :   0.0833 0.0000 0.0000  plane waves:    1237
 k-point   3 :   0.1667 0.0000 0.0000  plane waves:    1253
 k-point   4 :   0.2500 0.0000 0.0000  plane waves:    1245
 k-point   5 :   0.3333 0.0000 0.0000  plane waves:    1233
 k-point   6 :   0.4167 0.0000 0.0000  plane waves:    1226
 k-point   7 :   0.5000 0.0000 0.0000  plane waves:    1222
 k-point   8 :   0.0833 0.0833 0.0000  plane waves:    1241
 k-point   9 :   0.1667 0.0833 0.0000  plane waves:    1252
 k-point  10 :   0.2500 0.0833 0.0000  plane waves:    1248
 k-point  11 :   0.3333 0.0833 0.0000  plane waves:    1224
 k-point  12 :   0.4167 0.0833 0.0000  plane waves:    1226
 k-point  13 :   0.5000 0.0833 0.0000  plane waves:    1226
 k-point  14 :   0.1667 0.1667 0.0000  plane waves:    1253
 k-point  15 :   0.2500 0.1667 0.0000  plane waves:    1238
 k-point  16 :   0.3333 0.1667 0.0000  plane waves:    1231
 k-point  17 :   0.4167 0.1667 0.0000  plane waves:    1226
 k-point  18 :   0.5000 0.1667 0.0000  plane waves:    1218
 k-point  19 :   0.2500 0.2500 0.0000  plane waves:    1243
 k-point  20 :   0.3333 0.2500 0.0000  plane waves:    1237
 k-point  21 :   0.4167 0.2500 0.0000  plane waves:    1233
 k-point  22 :   0.5000 0.2500 0.0000  plane waves:    1234
 k-point  23 :   0.3333 0.3333 0.0000  plane waves:    1242
 k-point  24 :   0.4167 0.3333 0.0000  plane waves:    1234
 k-point  25 :   0.5000 0.3333 0.0000  plane waves:    1232
 k-point  26 :   0.4167 0.4167 0.0000  plane waves:    1230
 k-point  27 :   0.5000 0.4167 0.0000  plane waves:    1230
 k-point  28 :   0.5000 0.5000 0.0000  plane waves:    1228
 k-point  29 :   0.0833 0.0833 0.0833  plane waves:    1240
 k-point  30 :   0.1667 0.0833 0.0833  plane waves:    1252
 k-point  31 :   0.2500 0.0833 0.0833  plane waves:    1251
 k-point  32 :   0.3333 0.0833 0.0833  plane waves:    1233
 k-point  33 :   0.4167 0.0833 0.0833  plane waves:    1224
 k-point  34 :   0.5000 0.0833 0.0833  plane waves:    1226
 k-point  35 :   0.1667 0.1667 0.0833  plane waves:    1250
 k-point  36 :   0.2500 0.1667 0.0833  plane waves:    1239
 k-point  37 :   0.3333 0.1667 0.0833  plane waves:    1230
 k-point  38 :   0.4167 0.1667 0.0833  plane waves:    1231
 k-point  39 :   0.5000 0.1667 0.0833  plane waves:    1226
 k-point  40 :   0.2500 0.2500 0.0833  plane waves:    1230
 k-point  41 :   0.3333 0.2500 0.0833  plane waves:    1227
 k-point  42 :   0.4167 0.2500 0.0833  plane waves:    1235
 k-point  43 :   0.5000 0.2500 0.0833  plane waves:    1230
 k-point  44 :   0.3333 0.3333 0.0833  plane waves:    1238
 k-point  45 :   0.4167 0.3333 0.0833  plane waves:    1234
 k-point  46 :   0.5000 0.3333 0.0833  plane waves:    1234
 k-point  47 :   0.4167 0.4167 0.0833  plane waves:    1234
 k-point  48 :   0.5000 0.4167 0.0833  plane waves:    1232
 k-point  49 :   0.5000 0.5000 0.0833  plane waves:    1232
 k-point  50 :   0.1667 0.1667 0.1667  plane waves:    1244
 k-point  51 :   0.2500 0.1667 0.1667  plane waves:    1232
 k-point  52 :   0.3333 0.1667 0.1667  plane waves:    1235
 k-point  53 :   0.4167 0.1667 0.1667  plane waves:    1236
 k-point  54 :   0.5000 0.1667 0.1667  plane waves:    1218
 k-point  55 :   0.2500 0.2500 0.1667  plane waves:    1232
 k-point  56 :   0.3333 0.2500 0.1667  plane waves:    1233
 k-point  57 :   0.4167 0.2500 0.1667  plane waves:    1227
 k-point  58 :   0.5000 0.2500 0.1667  plane waves:    1234
 k-point  59 :   0.3333 0.3333 0.1667  plane waves:    1231
 k-point  60 :   0.4167 0.3333 0.1667  plane waves:    1229
 k-point  61 :   0.5000 0.3333 0.1667  plane waves:    1230
 k-point  62 :   0.4167 0.4167 0.1667  plane waves:    1234
 k-point  63 :   0.5000 0.4167 0.1667  plane waves:    1226
 k-point  64 :   0.5000 0.5000 0.1667  plane waves:    1232
 k-point  65 :   0.2500 0.2500 0.2500  plane waves:    1244
 k-point  66 :   0.3333 0.2500 0.2500  plane waves:    1236
 k-point  67 :   0.4167 0.2500 0.2500  plane waves:    1231
 k-point  68 :   0.5000 0.2500 0.2500  plane waves:    1218
 k-point  69 :   0.3333 0.3333 0.2500  plane waves:    1226
 k-point  70 :   0.4167 0.3333 0.2500  plane waves:    1223
 k-point  71 :   0.5000 0.3333 0.2500  plane waves:    1222
 k-point  72 :   0.4167 0.4167 0.2500  plane waves:    1236
 k-point  73 :   0.5000 0.4167 0.2500  plane waves:    1230
 k-point  74 :   0.5000 0.5000 0.2500  plane waves:    1232
 k-point  75 :   0.3333 0.3333 0.3333  plane waves:    1229
 k-point  76 :   0.4167 0.3333 0.3333  plane waves:    1235
 k-point  77 :   0.5000 0.3333 0.3333  plane waves:    1232
 k-point  78 :   0.4167 0.4167 0.3333  plane waves:    1236
 k-point  79 :   0.5000 0.4167 0.3333  plane waves:    1234
 k-point  80 :   0.5000 0.5000 0.3333  plane waves:    1220
 k-point  81 :   0.4167 0.4167 0.4167  plane waves:    1247
 k-point  82 :   0.5000 0.4167 0.4167  plane waves:    1240
 k-point  83 :   0.5000 0.5000 0.4167  plane waves:    1244
 k-point  84 :   0.5000 0.5000 0.5000  plane waves:    1208

 maximum and minimum number of plane-waves per node :      1253     1208

 maximum number of plane-waves:      1253
 maximum index in each direction: 
   IXMAX=    6   IYMAX=    6   IZMAX=    6
   IXMIN=   -7   IYMIN=   -7   IZMIN=   -7


 serial   3D FFT for wavefunctions
 parallel 3D FFT for charge:
    minimum data exchange during FFTs selected (reduces bandwidth)


 total amount of memory used by VASP MPI-rank0    67849. kBytes
=======================================================================

   base      :      30000. kBytes
   nonl-proj :      15272. kBytes
   fftplans  :       1619. kBytes
   grid      :       3048. kBytes
   one-center:         62. kBytes
   wavefun   :      17848. kBytes

     INWAV:  cpu time    0.0000: real time    0.0003
 Broyden mixing: mesh for mixing (old mesh)
   NGX = 13   NGY = 13   NGZ = 13
  (NGX  = 56   NGY  = 56   NGZ  = 56)
  gives a total of   2197 points

 initial charge density was supplied:
 charge density of overlapping atoms calculated
 number of electron      68.0000000 magnetization 
 keeping initial charge density in first step


--------------------------------------------------------------------------------------------------------


 Maximum index for augmentation-charges         2283 (set IRDMAX)


--------------------------------------------------------------------------------------------------------


 First call to EWALD:  gamma=   0.495
 Maximum number of real-space cells 3x 3x 3
 Maximum number of reciprocal cells 3x 3x 3

    FEWALD:  cpu time    0.0006: real time    0.0006


--------------------------------------- Iteration      1(   1)  ---------------------------------------


    POTLOK:  cpu time    0.0306: real time    0.0306
    SETDIJ:  cpu time    0.0990: real time    0.0990
     EDDAV:  cpu time    4.3259: real time    4.3261
       DOS:  cpu time    0.0014: real time    0.0016
    --------------------------------------------
      LOOP:  cpu time    4.4568: real time    4.4573

 eigenvalue-minimisations  :  7728
 total energy-change (2. order) : 0.9127312E+03  (-0.4661900E+04)
 number of electron      68.0000000 magnetization 
 augmentation part       68.0000000 magnetization 

 Free energy of the ion-electron system (eV)
  ---------------------------------------------------
  alpha Z        PSCENC =       632.24335727
  Ewald energy   TEWEN  =    -10666.91821728
  -Hartree energ DENC   =     -5114.98979914
  -exchange      EXHF   =         0.00000000
  -V(xc)+E(xc)   XCENC  =       433.53703412
  PAW double counting   =     12922.79092432   -13518.70815821
  entropy T*S    EENTRO =         0.00066186
  eigenvalues    EBANDS =      -251.76937649
  atomic energy  EATOM  =     16476.54478555
  Solvation  Ediel_sol  =         0.00000000
  ---------------------------------------------------
  free energy    TOTEN  =       912.73121199 eV

  energy without entropy =      912.73055013  energy(sigma->0) =      912.73099137


--------------------------------------------------------------------------------------------------------




--------------------------------------- Iteration      1(   2)  ---------------------------------------


     EDDAV:  cpu time    3.9231: real time    3.9233
       DOS:  cpu time    0.0015: real time    0.0016
    --------------------------------------------
      LOOP:  cpu time    3.9246: real time    3.9249

 eigenvalue-minimisations  :  6864
 total energy-change (2. order) :-0.8737154E+03  (-0.8531915E+03)
 number of electron      68.0000000 magnetization 
 augmentation part       68.0000000 magnetization 

 Free energy of the ion-electron system (eV)
  ---------------------------------------------------
  alpha Z        PSCENC =       632.24335727
  Ewald energy   TEWEN  =    -10666.91821728
  -Hartree energ DENC   =     -5114.98979914
  -exchange      EXHF   =         0.00000000
  -V(xc)+E(xc)   XCENC  =       433.53703412
  PAW double counting   =     12922.79092432   -13518.70815821
  entropy T*S    EENTRO =         0.00028030
  eigenvalues    EBANDS =     -1125.48436948
  atomic energy  EATOM  =     16476.54478555
  Solvation  Ediel_sol  =         0.00000000
  ---------------------------------------------------
  free energy    TOTEN  =        39.01583743 eV

  energy without entropy =       39.01555714  energy(sigma->0) =       39.01574400


--------------------------------------------------------------------------------------------------------




--------------------------------------- Iteration      1(   3)  ---------------------------------------


     EDDAV:  cpu time    4.1344: real time    4.1345
       DOS:  cpu time    0.0015: real time    0.0016
    --------------------------------------------
      LOOP:  cpu time    4.1358: real time    4.1361

 eigenvalue-minimisations  :  7288
 total energy-change (2. order) :-0.5741197E+02  (-0.5550904E+02)
 number of electron      68.0000000 magnetization 
 augmentation part       68.0000000 magnetization 

 Free energy of the ion-electron system (eV)
  ---------------------------------------------------
  alpha Z        PSCENC =       632.24335727
  Ewald energy   TEWEN  =    -10666.91821728
  -Hartree energ DENC   =     -5114.98979914
  -exchange      EXHF   =         0.00000000
  -V(xc)+E(xc)   XCENC  =       433.53703412
  PAW double counting   =     12922.79092432   -13518.70815821
  entropy T*S    EENTRO =         0.00023131
  eigenvalues    EBANDS =     -1182.89629353
  atomic energy  EATOM  =     16476.54478555
  Solvation  Ediel_sol  =         0.00000000
  ---------------------------------------------------
  free energy    TOTEN  =       -18.39613560 eV

  energy without entropy =      -18.39636691  energy(sigma->0) =      -18.39621271


--------------------------------------------------------------------------------------------------------




--------------------------------------- Iteration      1(   4)  ---------------------------------------


     EDDAV:  cpu time    4.1102: real time    4.1104
       DOS:  cpu time    0.0015: real time    0.0015
    --------------------------------------------
      LOOP:  cpu time    4.1116: real time    4.1120

 eigenvalue-minimisations  :  7368
 total energy-change (2. order) :-0.1377815E+01  (-0.1375156E+01)
 number of electron      68.0000000 magnetization 
 augmentation part       68.0000000 magnetization 

 Free energy of the ion-electron system (eV)
  ---------------------------------------------------
  alpha Z        PSCENC =       632.24335727
  Ewald energy   TEWEN  =    -10666.91821728
  -Hartree energ DENC   =     -5114.98979914
  -exchange      EXHF   =         0.00000000
  -V(xc)+E(xc)   XCENC  =       433.53703412
  PAW double counting   =     12922.79092432   -13518.70815821
  entropy T*S    EENTRO =         0.00012708
  eigenvalues    EBANDS =     -1184.27400454
  atomic energy  EATOM  =     16476.54478555
  Solvation  Ediel_sol  =         0.00000000
  ---------------------------------------------------
  free energy    TOTEN  =       -19.77395084 eV

  energy without entropy =      -19.77407792  energy(sigma->0) =      -19.77399320


--------------------------------------------------------------------------------------------------------




--------------------------------------- Iteration      1(   5)  ---------------------------------------


     EDDAV:  cpu time    4.5386: real time    4.5387
       DOS:  cpu time    0.0015: real time    0.0016
    CHARGE:  cpu time    0.4026: real time    0.4026
    MIXING:  cpu time    0.0010: real time    0.0010
    --------------------------------------------
      LOOP:  cpu time    4.9436: real time    4.9439

 eigenvalue-minimisations  :  8304
 total energy-change (2. order) :-0.4225546E-01  (-0.4225463E-01)
 number of electron      68.0000041 magnetization 
 augmentation part       41.5118953 magnetization 

 Broyden mixing:
  rms(total) = 0.16123E+01    rms(broyden)= 0.16119E+01
  rms(prec ) = 0.37236E+01
  weight for this iteration     100.00

 Free energy of the ion-electron system (eV)
  ---------------------------------------------------
  alpha Z        PSCENC =       632.24335727
  Ewald energy   TEWEN  =    -10666.91821728
  -Hartree energ DENC   =     -5114.98979914
  -exchange      EXHF   =         0.00000000
  -V(xc)+E(xc)   XCENC  =       433.53703412
  PAW double counting   =     12922.79092432   -13518.70815821
  entropy T*S    EENTRO =         0.00013527
  eigenvalues    EBANDS =     -1184.31626819
  atomic energy  EATOM  =     16476.54478555
  Solvation  Ediel_sol  =         0.00000000
  ---------------------------------------------------
  free energy    TOTEN  =       -19.81620629 eV

  energy without entropy =      -19.81634157  energy(sigma->0) =      -19.81625138


--------------------------------------------------------------------------------------------------------




--------------------------------------- Iteration      1(   6)  ---------------------------------------


    POTLOK:  cpu time    0.0244: real time    0.0246
    SETDIJ:  cpu time    0.0960: real time    0.0960
    EDDIAG:  cpu time    1.0713: real time    1.0713
  RMM-DIIS:  cpu time    3.1871: real time    3.1871
    ORTHCH:  cpu time    0.0568: real time    0.0568
       DOS:  cpu time    0.0015: real time    0.0016
    CHARGE:  cpu time    0.3939: real time    0.3940
    MIXING:  cpu time    0.0011: real time    0.0012
    --------------------------------------------
      LOOP:  cpu time    4.8321: real time    4.8325

 eigenvalue-minimisations  :  6865
 total energy-change (2. order) : 0.1983496E+01  (-0.3633985E+01)
 number of electron      68.0000044 magnetization 
 augmentation part       44.5863667 magnetization 

 Broyden mixing:
  rms(total) = 0.10389E+01    rms(broyden)= 0.10385E+01
  rms(prec ) = 0.20603E+01
  weight for this iteration     100.00

 eigenvalues of (default mixing * dielectric matrix)
  average eigenvalue GAMMA=   0.6090
  0.6090

 Free energy of the ion-electron system (eV)
  ---------------------------------------------------
  alpha Z        PSCENC =       632.24335727
  Ewald energy   TEWEN  =    -10666.91821728
  -Hartree energ DENC   =     -4898.45547010
  -exchange      EXHF   =         0.00000000
  -V(xc)+E(xc)   XCENC  =       425.63946170
  PAW double counting   =     12599.93137631   -13180.66983911
  entropy T*S    EENTRO =         0.00468736
  eigenvalues    EBANDS =     -1406.15285211
  atomic energy  EATOM  =     16476.54478555
  Solvation  Ediel_sol  =         0.00000000
  ---------------------------------------------------
  free energy    TOTEN  =       -17.83271041 eV

  energy without entropy =      -17.83739778  energy(sigma->0) =      -17.83427287


--------------------------------------------------------------------------------------------------------




--------------------------------------- Iteration      1(   7)  ---------------------------------------


    POTLOK:  cpu time    0.0249: real time    0.0251
    SETDIJ:  cpu time    0.0966: real time    0.0966
    EDDIAG:  cpu time    1.0404: real time    1.0405
  RMM-DIIS:  cpu time    3.1411: real time    3.1416
    ORTHCH:  cpu time    0.0566: real time    0.0565
       DOS:  cpu time    0.0015: real time    0.0016
    CHARGE:  cpu time    0.3927: real time    0.3927
    MIXING:  cpu time    0.0011: real time    0.0011
    --------------------------------------------
      LOOP:  cpu time    4.7548: real time    4.7556

 eigenvalue-minimisations  :  6736
 total energy-change (2. order) : 0.1447683E+01  (-0.6622622E+00)
 number of electron      68.0000043 magnetization 
 augmentation part       43.3594624 magnetization 

 Broyden mixing:
  rms(total) = 0.11978E+00    rms(broyden)= 0.11951E+00
  rms(prec ) = 0.28130E+00
  weight for this iteration     100.00

 eigenvalues of (default mixing * dielectric matrix)
  average eigenvalue GAMMA=   1.3167
  2.0152  0.6183

 Free energy of the ion-electron system (eV)
  ---------------------------------------------------
  alpha Z        PSCENC =       632.24335727
  Ewald energy   TEWEN  =    -10666.91821728
  -Hartree energ DENC   =     -4971.01812110
  -exchange      EXHF   =         0.00000000
  -V(xc)+E(xc)   XCENC  =       428.41936683
  PAW double counting   =     12746.36276034   -13346.83942447
  entropy T*S    EENTRO =         0.00279427
  eigenvalues    EBANDS =     -1315.18232883
  atomic energy  EATOM  =     16476.54478555
  Solvation  Ediel_sol  =         0.00000000
  ---------------------------------------------------
  free energy    TOTEN  =       -16.38502744 eV

  energy without entropy =      -16.38782171  energy(sigma->0) =      -16.38595887


--------------------------------------------------------------------------------------------------------




--------------------------------------- Iteration      1(   8)  ---------------------------------------


    POTLOK:  cpu time    0.0221: real time    0.0222
    SETDIJ:  cpu time    0.0961: real time    0.0961
    EDDIAG:  cpu time    1.0379: real time    1.0379
  RMM-DIIS:  cpu time    3.0573: real time    3.0573
    ORTHCH:  cpu time    0.0562: real time    0.0562
       DOS:  cpu time    0.0014: real time    0.0015
    CHARGE:  cpu time    0.3917: real time    0.3917
    MIXING:  cpu time    0.0011: real time    0.0011
    --------------------------------------------
      LOOP:  cpu time    4.6637: real time    4.6641

 eigenvalue-minimisations  :  7056
 total energy-change (2. order) : 0.3603190E-01  (-0.6774760E-02)
 number of electron      68.0000043 magnetization 
 augmentation part       43.3664996 magnetization 

 Broyden mixing:
  rms(total) = 0.33691E-01    rms(broyden)= 0.33651E-01
  rms(prec ) = 0.82861E-01
  weight for this iteration     100.00

 eigenvalues of (default mixing * dielectric matrix)
  average eigenvalue GAMMA=   1.3705
  0.6250  1.1009  2.3857

 Free energy of the ion-electron system (eV)
  ---------------------------------------------------
  alpha Z        PSCENC =       632.24335727
  Ewald energy   TEWEN  =    -10666.91821728
  -Hartree energ DENC   =     -4954.07154273
  -exchange      EXHF   =         0.00000000
  -V(xc)+E(xc)   XCENC  =       427.93827226
  PAW double counting   =     12780.79575536   -13394.28376151
  entropy T*S    EENTRO =         0.00289454
  eigenvalues    EBANDS =     -1318.60053900
  atomic energy  EATOM  =     16476.54478555
  Solvation  Ediel_sol  =         0.00000000
  ---------------------------------------------------
  free energy    TOTEN  =       -16.34899554 eV

  energy without entropy =      -16.35189008  energy(sigma->0) =      -16.34996039


--------------------------------------------------------------------------------------------------------




--------------------------------------- Iteration      1(   9)  ---------------------------------------


    POTLOK:  cpu time    0.0246: real time    0.0248
    SETDIJ:  cpu time    0.0969: real time    0.0969
    EDDIAG:  cpu time    1.0510: real time    1.0510
  RMM-DIIS:  cpu time    3.2605: real time    3.2605
    ORTHCH:  cpu time    0.0568: real time    0.0568
       DOS:  cpu time    0.0014: real time    0.0015
    CHARGE:  cpu time    0.3917: real time    0.3917
    MIXING:  cpu time    0.0011: real time    0.0011
    --------------------------------------------
      LOOP:  cpu time    4.8841: real time    4.8844

 eigenvalue-minimisations  :  7210
 total energy-change (2. order) : 0.8078241E-03  (-0.1419885E-02)
 number of electron      68.0000043 magnetization 
 augmentation part       43.4154761 magnetization 

 Broyden mixing:
  rms(total) = 0.93616E-02    rms(broyden)= 0.93611E-02
  rms(prec ) = 0.20501E-01
  weight for this iteration     100.00

 eigenvalues of (default mixing * dielectric matrix)
  average eigenvalue GAMMA=   1.5938
  0.6274  1.0084  2.3696  2.3696

 Free energy of the ion-electron system (eV)
  ---------------------------------------------------
  alpha Z        PSCENC =       632.24335727
  Ewald energy   TEWEN  =    -10666.91821728
  -Hartree energ DENC   =     -4949.22263104
  -exchange      EXHF   =         0.00000000
  -V(xc)+E(xc)   XCENC  =       427.77925915
  PAW double counting   =     12789.81749606   -13404.44051824
  entropy T*S    EENTRO =         0.00307701
  eigenvalues    EBANDS =     -1322.15479618
  atomic energy  EATOM  =     16476.54478555
  Solvation  Ediel_sol  =         0.00000000
  ---------------------------------------------------
  free energy    TOTEN  =       -16.34818772 eV

  energy without entropy =      -16.35126472  energy(sigma->0) =      -16.34921339


--------------------------------------------------------------------------------------------------------




--------------------------------------- Iteration      1(  10)  ---------------------------------------


    POTLOK:  cpu time    0.0230: real time    0.0231
    SETDIJ:  cpu time    0.0972: real time    0.0972
    EDDIAG:  cpu time    1.0609: real time    1.0609
  RMM-DIIS:  cpu time    3.1254: real time    3.1254
    ORTHCH:  cpu time    0.0565: real time    0.0565
       DOS:  cpu time    0.0015: real time    0.0016
    CHARGE:  cpu time    0.3927: real time    0.3927
    MIXING:  cpu time    0.0011: real time    0.0011
    --------------------------------------------
      LOOP:  cpu time    4.7582: real time    4.7585

 eigenvalue-minimisations  :  7327
 total energy-change (2. order) :-0.2640237E-03  (-0.3025180E-03)
 number of electron      68.0000043 magnetization 
 augmentation part       43.3981600 magnetization 

 Broyden mixing:
  rms(total) = 0.65759E-02    rms(broyden)= 0.65714E-02
  rms(prec ) = 0.13652E-01
  weight for this iteration     100.00

 eigenvalues of (default mixing * dielectric matrix)
  average eigenvalue GAMMA=   1.5977
  2.6425  2.6425  0.6288  0.9452  1.1293

 Free energy of the ion-electron system (eV)
  ---------------------------------------------------
  alpha Z        PSCENC =       632.24335727
  Ewald energy   TEWEN  =    -10666.91821728
  -Hartree energ DENC   =     -4950.78132841
  -exchange      EXHF   =         0.00000000
  -V(xc)+E(xc)   XCENC  =       427.83377813
  PAW double counting   =     12801.62273956   -13415.85183819
  entropy T*S    EENTRO =         0.00301462
  eigenvalues    EBANDS =     -1321.04474298
  atomic energy  EATOM  =     16476.54478555
  Solvation  Ediel_sol  =         0.00000000
  ---------------------------------------------------
  free energy    TOTEN  =       -16.34845174 eV

  energy without entropy =      -16.35146636  energy(sigma->0) =      -16.34945661


--------------------------------------------------------------------------------------------------------




--------------------------------------- Iteration      1(  11)  ---------------------------------------


    POTLOK:  cpu time    0.0236: real time    0.0237
    SETDIJ:  cpu time    0.0971: real time    0.0971
    EDDIAG:  cpu time    1.0485: real time    1.0485
  RMM-DIIS:  cpu time    3.4487: real time    3.4487
    ORTHCH:  cpu time    0.0557: real time    0.0557
       DOS:  cpu time    0.0014: real time    0.0015
    CHARGE:  cpu time    0.3943: real time    0.3944
    MIXING:  cpu time    0.0012: real time    0.0012
    --------------------------------------------
      LOOP:  cpu time    5.0704: real time    5.0708

 eigenvalue-minimisations  :  7703
 total energy-change (2. order) :-0.1943864E-04  (-0.1007415E-03)
 number of electron      68.0000043 magnetization 
 augmentation part       43.4090803 magnetization 

 Broyden mixing:
  rms(total) = 0.20594E-02    rms(broyden)= 0.20590E-02
  rms(prec ) = 0.42443E-02
  weight for this iteration     100.00

 eigenvalues of (default mixing * dielectric matrix)
  average eigenvalue GAMMA=   1.7515
  2.9908  2.4598  2.4598  0.6290  1.0431  0.9263

 Free energy of the ion-electron system (eV)
  ---------------------------------------------------
  alpha Z        PSCENC =       632.24335727
  Ewald energy   TEWEN  =    -10666.91821728
  -Hartree energ DENC   =     -4950.42928849
  -exchange      EXHF   =         0.00000000
  -V(xc)+E(xc)   XCENC  =       427.81933848
  PAW double counting   =     12804.84061000   -13418.79859074
  entropy T*S    EENTRO =         0.00304776
  eigenvalues    EBANDS =     -1321.65351371
  atomic energy  EATOM  =     16476.54478555
  Solvation  Ediel_sol  =         0.00000000
  ---------------------------------------------------
  free energy    TOTEN  =       -16.34847118 eV

  energy without entropy =      -16.35151894  energy(sigma->0) =      -16.34948710


--------------------------------------------------------------------------------------------------------




--------------------------------------- Iteration      1(  12)  ---------------------------------------


    POTLOK:  cpu time    0.0228: real time    0.0230
    SETDIJ:  cpu time    0.0964: real time    0.0964
    EDDIAG:  cpu time    1.0553: real time    1.0553
  RMM-DIIS:  cpu time    3.6921: real time    3.6921
    ORTHCH:  cpu time    0.0610: real time    0.0610
       DOS:  cpu time    0.0016: real time    0.0017
    CHARGE:  cpu time    0.3946: real time    0.3946
    MIXING:  cpu time    0.0012: real time    0.0012
    --------------------------------------------
      LOOP:  cpu time    5.3250: real time    5.3254

 eigenvalue-minimisations  :  8495
 total energy-change (2. order) :-0.2008948E-04  (-0.2550872E-04)
 number of electron      68.0000043 magnetization 
 augmentation part       43.4056946 magnetization 

 Broyden mixing:
  rms(total) = 0.76332E-03    rms(broyden)= 0.76190E-03
  rms(prec ) = 0.14860E-02
  weight for this iteration     100.00

 eigenvalues of (default mixing * dielectric matrix)
  average eigenvalue GAMMA=   1.9664
  5.1915  2.5737  2.3288  0.6293  1.1118  1.0544  0.8750

 Free energy of the ion-electron system (eV)
  ---------------------------------------------------
  alpha Z        PSCENC =       632.24335727
  Ewald energy   TEWEN  =    -10666.91821728
  -Hartree energ DENC   =     -4950.56588064
  -exchange      EXHF   =         0.00000000
  -V(xc)+E(xc)   XCENC  =       427.82468910
  PAW double counting   =     12805.29766224   -13419.32928345
  entropy T*S    EENTRO =         0.00303643
  eigenvalues    EBANDS =     -1321.44864047
  atomic energy  EATOM  =     16476.54478555
  Solvation  Ediel_sol  =         0.00000000
  ---------------------------------------------------
  free energy    TOTEN  =       -16.34849127 eV

  energy without entropy =      -16.35152769  energy(sigma->0) =      -16.34950341


--------------------------------------------------------------------------------------------------------




--------------------------------------- Iteration      1(  13)  ---------------------------------------


    POTLOK:  cpu time    0.0236: real time    0.0238
    SETDIJ:  cpu time    0.0956: real time    0.0956
    EDDIAG:  cpu time    1.0279: real time    1.0279
  RMM-DIIS:  cpu time    3.9078: real time    3.9083
    ORTHCH:  cpu time    0.0573: real time    0.0573
       DOS:  cpu time    0.0014: real time    0.0015
    CHARGE:  cpu time    0.3942: real time    0.3943
    MIXING:  cpu time    0.0012: real time    0.0012
    --------------------------------------------
      LOOP:  cpu time    5.5091: real time    5.5099

 eigenvalue-minimisations  :  8988
 total energy-change (2. order) :-0.7919491E-05  (-0.6610601E-05)
 number of electron      68.0000043 magnetization 
 augmentation part       43.4068810 magnetization 

 Broyden mixing:
  rms(total) = 0.27429E-03    rms(broyden)= 0.27419E-03
  rms(prec ) = 0.45756E-03
  weight for this iteration     100.00

 eigenvalues of (default mixing * dielectric matrix)
  average eigenvalue GAMMA=   1.5954
  3.0253  2.4900  2.4900  0.6294  1.3291  1.0377  0.9670  0.7945

 Free energy of the ion-electron system (eV)
  ---------------------------------------------------
  alpha Z        PSCENC =       632.24335727
  Ewald energy   TEWEN  =    -10666.91821728
  -Hartree energ DENC   =     -4950.54441154
  -exchange      EXHF   =         0.00000000
  -V(xc)+E(xc)   XCENC  =       427.82350031
  PAW double counting   =     12805.82564451   -13419.83839872
  entropy T*S    EENTRO =         0.00303877
  eigenvalues    EBANDS =     -1321.48779805
  atomic energy  EATOM  =     16476.54478555
  Solvation  Ediel_sol  =         0.00000000
  ---------------------------------------------------
  free energy    TOTEN  =       -16.34849919 eV

  energy without entropy =      -16.35153795  energy(sigma->0) =      -16.34951211


--------------------------------------------------------------------------------------------------------




--------------------------------------- Iteration      1(  14)  ---------------------------------------


    POTLOK:  cpu time    0.0258: real time    0.0259
    SETDIJ:  cpu time    0.1109: real time    0.1109
    EDDIAG:  cpu time    1.0409: real time    1.0409
  RMM-DIIS:  cpu time    4.0715: real time    4.0716
    ORTHCH:  cpu time    0.0573: real time    0.0573
       DOS:  cpu time    0.0015: real time    0.0016
    CHARGE:  cpu time    0.3943: real time    0.3943
    MIXING:  cpu time    0.0013: real time    0.0013
    --------------------------------------------
      LOOP:  cpu time    5.7034: real time    5.7038

 eigenvalue-minimisations  :  9407
 total energy-change (2. order) :-0.1670938E-05  (-0.1003982E-05)
 number of electron      68.0000043 magnetization 
 augmentation part       43.4064831 magnetization 

 Broyden mixing:
  rms(total) = 0.85294E-04    rms(broyden)= 0.85004E-04
  rms(prec ) = 0.15627E-03
  weight for this iteration     100.00

 eigenvalues of (default mixing * dielectric matrix)
  average eigenvalue GAMMA=   1.5167
  2.8421  2.5415  2.5415  1.6954  1.0365  0.9844  0.6294  0.8178  0.5613

 Free energy of the ion-electron system (eV)
  ---------------------------------------------------
  alpha Z        PSCENC =       632.24335727
  Ewald energy   TEWEN  =    -10666.91821728
  -Hartree energ DENC   =     -4950.53345399
  -exchange      EXHF   =         0.00000000
  -V(xc)+E(xc)   XCENC  =       427.82334189
  PAW double counting   =     12805.69172608   -13419.73021005
  entropy T*S    EENTRO =         0.00303788
  eigenvalues    EBANDS =     -1321.47286820
  atomic energy  EATOM  =     16476.54478555
  Solvation  Ediel_sol  =         0.00000000
  ---------------------------------------------------
  free energy    TOTEN  =       -16.34850086 eV

  energy without entropy =      -16.35153874  energy(sigma->0) =      -16.34951348


--------------------------------------------------------------------------------------------------------




--------------------------------------- Iteration      1(  15)  ---------------------------------------


    POTLOK:  cpu time    0.0243: real time    0.0244
    SETDIJ:  cpu time    0.0958: real time    0.0958
    EDDIAG:  cpu time    1.0541: real time    1.0542
  RMM-DIIS:  cpu time    4.2288: real time    4.2288
    ORTHCH:  cpu time    0.0564: real time    0.0564
       DOS:  cpu time    0.0014: real time    0.0016
    CHARGE:  cpu time    0.3957: real time    0.3957
    MIXING:  cpu time    0.0013: real time    0.0013
    --------------------------------------------
      LOOP:  cpu time    5.8578: real time    5.8582

 eigenvalue-minimisations  :  9588
 total energy-change (2. order) :-0.1518238E-06  (-0.1401235E-06)
 number of electron      68.0000043 magnetization 
 augmentation part       43.4065963 magnetization 

 Broyden mixing:
  rms(total) = 0.12170E-04    rms(broyden)= 0.12103E-04
  rms(prec ) = 0.19993E-04
  weight for this iteration     100.00

 eigenvalues of (default mixing * dielectric matrix)
  average eigenvalue GAMMA=   1.6392
  3.3789  2.7021  2.5877  2.2779  0.6294  1.0334  1.0334  1.0164  0.7898  0.9427

 Free energy of the ion-electron system (eV)
  ---------------------------------------------------
  alpha Z        PSCENC =       632.24335727
  Ewald energy   TEWEN  =    -10666.91821728
  -Hartree energ DENC   =     -4950.53226014
  -exchange      EXHF   =         0.00000000
  -V(xc)+E(xc)   XCENC  =       427.82327986
  PAW double counting   =     12805.72998717   -13419.76581117
  entropy T*S    EENTRO =         0.00303809
  eigenvalues    EBANDS =     -1321.47666035
  atomic energy  EATOM  =     16476.54478555
  Solvation  Ediel_sol  =         0.00000000
  ---------------------------------------------------
  free energy    TOTEN  =       -16.34850101 eV

  energy without entropy =      -16.35153910  energy(sigma->0) =      -16.34951371


--------------------------------------------------------------------------------------------------------




--------------------------------------- Iteration      1(  16)  ---------------------------------------


    POTLOK:  cpu time    0.0239: real time    0.0240
    SETDIJ:  cpu time    0.0970: real time    0.0970
    EDDIAG:  cpu time    1.0602: real time    1.0603
  RMM-DIIS:  cpu time    3.2554: real time    3.2554
    ORTHCH:  cpu time    0.0561: real time    0.0561
       DOS:  cpu time    0.0014: real time    0.0015
    CHARGE:  cpu time    0.3957: real time    0.3957
    MIXING:  cpu time    0.0014: real time    0.0014
    --------------------------------------------
      LOOP:  cpu time    4.8910: real time    4.8914

 eigenvalue-minimisations  :  7169
 total energy-change (2. order) :-0.6143091E-07  (-0.1551815E-07)
 number of electron      68.0000043 magnetization 
 augmentation part       43.4065475 magnetization 

 Broyden mixing:
  rms(total) = 0.38353E-04    rms(broyden)= 0.38345E-04
  rms(prec ) = 0.81235E-04
  weight for this iteration     100.00

 eigenvalues of (default mixing * dielectric matrix)
  average eigenvalue GAMMA=   1.5633
  3.2444  2.6755  2.4844  2.4844  1.0921  1.0921  1.0485  0.6294  0.9278  0.7591
  0.7591

 Free energy of the ion-electron system (eV)
  ---------------------------------------------------
  alpha Z        PSCENC =       632.24335727
  Ewald energy   TEWEN  =    -10666.91821728
  -Hartree energ DENC   =     -4950.53615389
  -exchange      EXHF   =         0.00000000
  -V(xc)+E(xc)   XCENC  =       427.82342351
  PAW double counting   =     12805.79237228   -13419.82725695
  entropy T*S    EENTRO =         0.00303793
  eigenvalues    EBANDS =     -1321.47384948
  atomic energy  EATOM  =     16476.54478555
  Solvation  Ediel_sol  =         0.00000000
  ---------------------------------------------------
  free energy    TOTEN  =       -16.34850107 eV

  energy without entropy =      -16.35153901  energy(sigma->0) =      -16.34951372


--------------------------------------------------------------------------------------------------------




--------------------------------------- Iteration      1(  17)  ---------------------------------------


    POTLOK:  cpu time    0.0246: real time    0.0248
    SETDIJ:  cpu time    0.0958: real time    0.0958
    EDDIAG:  cpu time    1.0517: real time    1.0517
  RMM-DIIS:  cpu time    2.1789: real time    2.1790
    ORTHCH:  cpu time    0.0569: real time    0.0569
       DOS:  cpu time    0.0014: real time    0.0015
    CHARGE:  cpu time    0.3960: real time    0.3960
    MIXING:  cpu time    0.0013: real time    0.0013
    --------------------------------------------
      LOOP:  cpu time    3.8066: real time    3.8069

 eigenvalue-minimisations  :  4160
 total energy-change (2. order) : 0.5517722E-07  (-0.2465571E-08)
 number of electron      68.0000043 magnetization 
 augmentation part       43.4065958 magnetization 

 Broyden mixing:
  rms(total) = 0.17864E-05    rms(broyden)= 0.17532E-05
  rms(prec ) = 0.29055E-05
  weight for this iteration     100.00

 eigenvalues of (default mixing * dielectric matrix)
  average eigenvalue GAMMA=   1.5777
  3.2877  2.9281  2.5093  2.4164  1.5141  0.6294  1.0565  1.0565  1.0232  0.8169
  0.8473  0.8473

 Free energy of the ion-electron system (eV)
  ---------------------------------------------------
  alpha Z        PSCENC =       632.24335727
  Ewald energy   TEWEN  =    -10666.91821728
  -Hartree energ DENC   =     -4950.53398547
  -exchange      EXHF   =         0.00000000
  -V(xc)+E(xc)   XCENC  =       427.82334257
  PAW double counting   =     12805.78049927   -13419.81451999
  entropy T*S    EENTRO =         0.00303810
  eigenvalues    EBANDS =     -1321.47680102
  atomic energy  EATOM  =     16476.54478555
  Solvation  Ediel_sol  =         0.00000000
  ---------------------------------------------------
  free energy    TOTEN  =       -16.34850102 eV

  energy without entropy =      -16.35153911  energy(sigma->0) =      -16.34951372


--------------------------------------------------------------------------------------------------------




--------------------------------------- Iteration      1(  18)  ---------------------------------------


    POTLOK:  cpu time    0.0235: real time    0.0236
    SETDIJ:  cpu time    0.0961: real time    0.0961
    EDDIAG:  cpu time    1.0464: real time    1.0464
  RMM-DIIS:  cpu time    1.9886: real time    1.9887
    ORTHCH:  cpu time    0.0566: real time    0.0566
       DOS:  cpu time    0.0015: real time    0.0016
    --------------------------------------------
      LOOP:  cpu time    3.2126: real time    3.2129

 eigenvalue-minimisations  :  3705
 total energy-change (2. order) :-0.4074536E-08  (-0.6726724E-09)
 number of electron      68.0000043 magnetization 
 augmentation part       43.4065958 magnetization 

 Free energy of the ion-electron system (eV)
  ---------------------------------------------------
  alpha Z        PSCENC =       632.24335727
  Ewald energy   TEWEN  =    -10666.91821728
  -Hartree energ DENC   =     -4950.53437466
  -exchange      EXHF   =         0.00000000
  -V(xc)+E(xc)   XCENC  =       427.82335576
  PAW double counting   =     12805.78464445   -13419.81858715
  entropy T*S    EENTRO =         0.00303808
  eigenvalues    EBANDS =     -1321.47650304
  atomic energy  EATOM  =     16476.54478555
  Solvation  Ediel_sol  =         0.00000000
  ---------------------------------------------------
  free energy    TOTEN  =       -16.34850102 eV

  energy without entropy =      -16.35153910  energy(sigma->0) =      -16.34951371


--------------------------------------------------------------------------------------------------------




 average (electrostatic) potential at core
  the test charge radii are     0.8297
  (the norm of the test charge is              1.0000)
       1 -79.3216       2 -79.3216       3 -79.3216       4 -79.3216



 E-fermi :   7.2892     XC(G=0): -13.3327     alpha+bet :-13.0903

 Fermi energy:         7.2891645747

 k-point     1 :       0.0000    0.0000    0.0000
  band No.  band energies     occupation 
      1     -62.7232      2.00000
      2     -62.7232      2.00000
      3     -62.7232      2.00000
      4     -62.6552      2.00000
      5     -62.6552      2.00000
      6     -62.6552      2.00000
      7     -62.6552      2.00000
      8     -62.6552      2.00000
      9     -62.6552      2.00000
     10     -62.6101      2.00000
     11     -62.6101      2.00000
     12     -62.6101      2.00000
     13      -2.3455      2.00000
     14       2.1939      2.00000
     15       2.1939      2.00000
     16       2.1939      2.00000
     17       2.6788      2.00000
     18       2.6788      2.00000
     19       2.6788      2.00000
     20       4.1542      2.00000
     21       4.1542      2.00000
     22       4.1542      2.00000
     23       5.0247      2.00000
     24       5.0247      2.00000
     25       5.6072      2.00000
     26       5.6072      2.00000
     27       5.6072      2.00000
     28       5.7786      2.00000
     29       5.7786      2.00000
     30       5.7786      2.00000
     31       5.7786      2.00000
     32       5.7786      2.00000
     33       5.7786      2.00000
     34       8.7182     -0.00000
     35       8.7182     -0.00000
     36       8.7182     -0.00000
     37      14.6164      0.00000
     38      14.6164      0.00000
     39      14.6164      0.00000
     40      20.6321      0.00000

 k-point     2 :       0.0833    0.0000    0.0000
  band No.  band energies     occupation 
      1     -62.7221      2.00000
      2     -62.7221      2.00000
      3     -62.7220      2.00000
      4     -62.6564      2.00000
      5     -62.6564      2.00000
      6     -62.6555      2.00000
      7     -62.6555      2.00000
      8     -62.6547      2.00000
      9     -62.6547      2.00000
     10     -62.6114      2.00000
     11     -62.6102      2.00000
     12     -62.6102      2.00000
     13      -2.2590      2.00000
     14       2.1933      2.00000
     15       2.2352      2.00000
     16       2.2352      2.00000
     17       2.7024      2.00000
     18       2.7038      2.00000
     19       2.7038      2.00000
     20       4.1279      2.00000
     21       4.1757      2.00000
     22       4.1757      2.00000
     23       5.0009      2.00000
     24       5.0348      2.00000
     25       5.5758      2.00000
     26       5.5758      2.00000
     27       5.5970      2.00000
     28       5.6160      2.00000
     29       5.6160      2.00000
     30       5.7413      2.00000
     31       5.7413      2.00000
     32       5.7787      2.00000
     33       5.7787      2.00000
     34       8.2052     -0.00000
     35       8.9573     -0.00000
     36       8.9573     -0.00000
     37      14.6461      0.00000
     38      14.6461      0.00000
     39      15.2986      0.00000
     40      20.0771      0.00000

 k-point     3 :       0.1667    0.0000    0.0000
  band No.  band energies     occupation 
      1     -62.7190      2.00000
      2     -62.7190      2.00000
      3     -62.7174      2.00000
      4     -62.6599      2.00000
      5     -62.6599      2.00000
      6     -62.6558      2.00000
      7     -62.6558      2.00000
      8     -62.6527      2.00000
      9     -62.6527      2.00000
     10     -62.6170      2.00000
     11     -62.6124      2.00000
     12     -62.6124      2.00000
     13      -2.0015      2.00000
     14       2.1743      2.00000
     15       2.3530      2.00000
     16       2.3530      2.00000
     17       2.7721      2.00000
     18       2.7791      2.00000
     19       2.7791      2.00000
     20       4.0500      2.00000
     21       4.2387      2.00000
     22       4.2387      2.00000
     23       4.9313      2.00000
     24       5.0632      2.00000
     25       5.2368      2.00000
     26       5.2368      2.00000
     27       5.4848      2.00000
     28       5.4848      2.00000
     29       5.5670      2.00000
     30       5.6351      2.00000
     31       5.6351      2.00000
     32       5.7787      2.00000
     33       5.7787      2.00000
     34       7.1150      2.01204
     35       9.5653     -0.00000
     36       9.5653     -0.00000
     37      14.7382      0.00000
     38      14.7382      0.00000
     39      16.9097      0.00000
     40      18.8480      0.00000

 k-point     4 :       0.2500    0.0000    0.0000
  band No.  band energies     occupation 
      1     -62.7137      2.00000
      2     -62.7137      2.00000
      3     -62.7085      2.00000
      4     -62.6655      2.00000
      5     -62.6655      2.00000
      6     -62.6556      2.00000
      7     -62.6556      2.00000
      8     -62.6491      2.00000
      9     -62.6491      2.00000
     10     -62.6260      2.00000
     11     -62.6156      2.00000
     12     -62.6156      2.00000
     13      -1.5793      2.00000
     14       2.0775      2.00000
     15       2.5292      2.00000
     16       2.5292      2.00000
     17       2.8839      2.00000
     18       2.9060      2.00000
     19       2.9060      2.00000
     20       3.9274      2.00000
     21       4.3421      2.00000
     22       4.3421      2.00000
     23       4.7920      2.00000
     24       4.7920      2.00000
     25       4.8249      2.00000
     26       5.1087      2.00000
     27       5.3452      2.00000
     28       5.3452      2.00000
     29       5.4747      2.00000
     30       5.4747      2.00000
[...]
     25       4.5541      2.00000
     26       4.5541      2.00000
     27       4.5937      2.00000
     28       4.6168      2.00000
     29       5.4350      2.00000
     30       5.6003      2.00000
     31       5.6074      2.00000
     32       5.6074      2.00000
     33       5.6966      2.00000
     34       6.9794      2.05088
     35       6.9794      2.05088
     36       7.7402     -0.00644
     37      11.3363     -0.00000
     38      12.1846     -0.00000
     39      12.1846     -0.00000
     40      13.8513      0.00000

 k-point    79 :       0.5000    0.4167    0.3333
  band No.  band energies     occupation 
      1     -62.7246      2.00000
      2     -62.7246      2.00000
      3     -62.7204      2.00000
      4     -62.7204      2.00000
      5     -62.6368      2.00000
      6     -62.6368      2.00000
      7     -62.6305      2.00000
      8     -62.6305      2.00000
      9     -62.6293      2.00000
     10     -62.6293      2.00000
     11     -62.6265      2.00000
     12     -62.6265      2.00000
     13       1.9488      2.00000
     14       1.9488      2.00000
     15       2.2302      2.00000
     16       2.2302      2.00000
     17       3.9622      2.00000
     18       3.9622      2.00000
     19       4.0873      2.00000
     20       4.0873      2.00000
     21       4.2144      2.00000
     22       4.2144      2.00000
     23       4.2621      2.00000
     24       4.2621      2.00000
     25       4.6801      2.00000
     26       4.6801      2.00000
     27       4.6814      2.00000
     28       4.6814      2.00000
     29       5.5354      2.00000
     30       5.5354      2.00000
     31       5.5783      2.00000
     32       5.5783      2.00000
     33       6.1666      2.00000
     34       6.1666      2.00000
     35       7.3554      0.47208
     36       7.3554      0.47208
     37      11.5506     -0.00000
     38      11.5506     -0.00000
     39      12.9241      0.00000
     40      12.9241      0.00000

 k-point    80 :       0.5000    0.5000    0.3333
  band No.  band energies     occupation 
      1     -62.7237      2.00000
      2     -62.7237      2.00000
      3     -62.7237      2.00000
      4     -62.7237      2.00000
      5     -62.6329      2.00000
      6     -62.6329      2.00000
      7     -62.6329      2.00000
      8     -62.6329      2.00000
      9     -62.6269      2.00000
     10     -62.6269      2.00000
     11     -62.6269      2.00000
     12     -62.6269      2.00000
     13       2.0813      2.00000
     14       2.0813      2.00000
     15       2.0813      2.00000
     16       2.0813      2.00000
     17       4.0517      2.00000
     18       4.0517      2.00000
     19       4.0517      2.00000
     20       4.0517      2.00000
     21       4.2088      2.00000
     22       4.2088      2.00000
     23       4.2088      2.00000
     24       4.2088      2.00000
     25       4.8100      2.00000
     26       4.8100      2.00000
     27       4.8100      2.00000
     28       4.8100      2.00000
     29       5.5260      2.00000
     30       5.5260      2.00000
     31       5.5260      2.00000
     32       5.5260      2.00000
     33       6.6570      2.00007
     34       6.6570      2.00007
     35       6.6570      2.00007
     36       6.6570      2.00007
     37      12.1041     -0.00000
     38      12.1041     -0.00000
     39      12.1041     -0.00000
     40      12.1041     -0.00000

 k-point    81 :       0.4167    0.4167    0.4167
  band No.  band energies     occupation 
      1     -62.7267      2.00000
      2     -62.7267      2.00000
      3     -62.7267      2.00000
      4     -62.7224      2.00000
      5     -62.6319      2.00000
      6     -62.6319      2.00000
      7     -62.6319      2.00000
      8     -62.6293      2.00000
      9     -62.6293      2.00000
     10     -62.6293      2.00000
     11     -62.6260      2.00000
     12     -62.6260      2.00000
     13       1.8340      2.00000
     14       2.1283      2.00000
     15       2.1283      2.00000
     16       2.1283      2.00000
     17       4.0250      2.00000
     18       4.0250      2.00000
     19       4.0250      2.00000
     20       4.1526      2.00000
     21       4.1526      2.00000
     22       4.2077      2.00000
     23       4.2077      2.00000
     24       4.2077      2.00000
     25       4.8836      2.00000
     26       4.8836      2.00000
     27       4.8836      2.00000
     28       5.1855      2.00000
     29       5.5461      2.00000
     30       5.5461      2.00000
     31       5.6318      2.00000
     32       5.6318      2.00000
     33       5.6318      2.00000
     34       6.9386      2.03260
     35       6.9386      2.03260
     36       6.9386      2.03260
     37      11.4883     -0.00000
     38      11.4883     -0.00000
     39      11.4883     -0.00000
     40      12.8241      0.00000

 k-point    82 :       0.5000    0.4167    0.4167
  band No.  band energies     occupation 
      1     -62.7280      2.00000
      2     -62.7280      2.00000
      3     -62.7260      2.00000
      4     -62.7260      2.00000
      5     -62.6316      2.00000
      6     -62.6316      2.00000
      7     -62.6282      2.00000
      8     -62.6282      2.00000
      9     -62.6275      2.00000
     10     -62.6275      2.00000
     11     -62.6273      2.00000
     12     -62.6273      2.00000
     13       1.9719      2.00000
     14       1.9719      2.00000
     15       2.1096      2.00000
     16       2.1096      2.00000
     17       4.0476      2.00000
     18       4.0476      2.00000
     19       4.1081      2.00000
     20       4.1081      2.00000
     21       4.1578      2.00000
     22       4.1578      2.00000
     23       4.1805      2.00000
     24       4.1805      2.00000
     25       5.0383      2.00000
     26       5.0383      2.00000
     27       5.1574      2.00000
     28       5.1574      2.00000
     29       5.6136      2.00000
     30       5.6136      2.00000
     31       5.6175      2.00000
     32       5.6175      2.00000
     33       6.0922      2.00000
     34       6.0922      2.00000
     35       6.9178      2.02470
     36       6.9178      2.02470
     37      11.2425     -0.00000
     38      11.2425     -0.00000
     39      12.0214     -0.00000
     40      12.0214     -0.00000

 k-point    83 :       0.5000    0.5000    0.4167
  band No.  band energies     occupation 
      1     -62.7286      2.00000
      2     -62.7286      2.00000
      3     -62.7286      2.00000
      4     -62.7286      2.00000
      5     -62.6288      2.00000
      6     -62.6288      2.00000
      7     -62.6288      2.00000
      8     -62.6288      2.00000
      9     -62.6271      2.00000
     10     -62.6271      2.00000
     11     -62.6271      2.00000
     12     -62.6271      2.00000
     13       2.0237      2.00000
     14       2.0237      2.00000
     15       2.0237      2.00000
     16       2.0237      2.00000
     17       4.1008      2.00000
     18       4.1008      2.00000
     19       4.1008      2.00000
     20       4.1008      2.00000
     21       4.1415      2.00000
     22       4.1415      2.00000
     23       4.1415      2.00000
     24       4.1415      2.00000
     25       5.3057      2.00000
     26       5.3057      2.00000
     27       5.3057      2.00000
     28       5.3057      2.00000
     29       5.6007      2.00000
     30       5.6007      2.00000
     31       5.6007      2.00000
     32       5.6007      2.00000
     33       6.3830      2.00000
     34       6.3830      2.00000
     35       6.3830      2.00000
     36       6.3830      2.00000
     37      11.4329     -0.00000
     38      11.4329     -0.00000
     39      11.4329     -0.00000
     40      11.4329     -0.00000

 k-point    84 :       0.5000    0.5000    0.5000
  band No.  band energies     occupation 
      1     -62.7296      2.00000
      2     -62.7296      2.00000
      3     -62.7296      2.00000
      4     -62.7296      2.00000
      5     -62.6268      2.00000
      6     -62.6268      2.00000
      7     -62.6268      2.00000
      8     -62.6268      2.00000
      9     -62.6268      2.00000
     10     -62.6268      2.00000
     11     -62.6268      2.00000
     12     -62.6268      2.00000
     13       2.0040      2.00000
     14       2.0040      2.00000
     15       2.0040      2.00000
     16       2.0040      2.00000
     17       4.1187      2.00000
     18       4.1187      2.00000
     19       4.1187      2.00000
     20       4.1187      2.00000
     21       4.1187      2.00000
     22       4.1187      2.00000
     23       4.1187      2.00000
     24       4.1187      2.00000
     25       5.6268      2.00000
     26       5.6268      2.00000
     27       5.6268      2.00000
     28       5.6268      2.00000
     29       5.6268      2.00000
     30       5.6268      2.00000
     31       5.6268      2.00000
     32       5.6268      2.00000
     33       6.1459      2.00000
     34       6.1459      2.00000
     35       6.1459      2.00000
     36       6.1459      2.00000
     37      11.1995     -0.00000
     38      11.1995     -0.00000
     39      11.1995     -0.00000
     40      11.1995     -0.00000


--------------------------------------------------------------------------------------------------------


 soft charge-density along one line, spin component           1
         0         1         2         3         4         5         6         7         8         9
 total charge-density along one line

 pseudopotential strength for first ion, spin component:           1
-67.124  -0.000   0.000  31.504   0.000  -0.000  -0.000  -0.000
 -0.000 -67.124  -0.000   0.000  31.504   0.000   0.000  -0.000
  0.000  -0.000 -67.124  -0.000   0.000  31.504  -0.000   0.000
 31.504   0.000  -0.000  -8.875  -0.000   0.000   0.000   0.000
  0.000  31.504   0.000  -0.000  -8.875  -0.000  -0.000   0.000
 -0.000   0.000  31.504   0.000  -0.000  -8.875   0.000  -0.000
 -0.000   0.000  -0.000   0.000  -0.000   0.000  -6.396  -0.000
 -0.000  -0.000   0.000   0.000   0.000  -0.000  -0.000  -6.396
  0.000  -0.000   0.000  -0.000   0.000  -0.000  -0.000  -0.000
  0.000  -0.000  -0.000  -0.000   0.000   0.000  -0.000   0.000
  0.000  -0.000  -0.000  -0.000   0.000   0.000  -0.000   0.000
  0.000  -0.000   0.000  -0.000   0.000  -0.000  -0.770   0.000
  0.000   0.000  -0.000  -0.000  -0.000   0.000   0.000  -0.770
 -0.000   0.000  -0.000   0.000  -0.000   0.000   0.000   0.000
 -0.000   0.000   0.000   0.000  -0.000  -0.000   0.000  -0.000
 -0.000   0.000   0.000   0.000  -0.000  -0.000   0.000  -0.000
  0.000   0.000   0.000  -0.000  -0.000  -0.000  -0.000  -0.000
 -0.000  -0.000  -0.000   0.000   0.000   0.000   0.000  -0.000
 total augmentation occupancy for first ion, spin component:           1
  2.000   0.000   0.000   0.030   0.000   0.000   0.000  -0.000   0.000   0.000   0.000  -0.000   0.000   0.000   0.000   0.000
  0.000   2.000   0.000   0.000   0.030   0.000   0.000   0.000  -0.000  -0.000   0.000   0.000   0.000   0.000   0.000  -0.000
  0.000   0.000   2.000   0.000   0.000   0.030  -0.000  -0.000  -0.000   0.000   0.000  -0.000   0.000   0.000   0.000  -0.000
  0.030   0.000   0.000   0.141   0.000   0.000  -0.000  -0.000   0.000   0.000  -0.000   0.000  -0.000   0.000  -0.000  -0.000
  0.000   0.030   0.000   0.000   0.141   0.000  -0.000   0.000  -0.000  -0.000  -0.000   0.000  -0.000   0.000  -0.000  -0.000
  0.000   0.000   0.030   0.000   0.000   0.141   0.000  -0.000  -0.000   0.000   0.000  -0.000  -0.000  -0.000   0.000  -0.000
  0.000   0.000  -0.000  -0.000  -0.000   0.000   1.898   0.000  -0.000   0.000  -0.000  -0.054  -0.000   0.000  -0.000   0.000
 -0.000   0.000  -0.000  -0.000   0.000  -0.000   0.000   1.898   0.000   0.000  -0.000  -0.000  -0.054  -0.000  -0.000   0.000
 -0.000   0.000  -0.000   0.000   0.000   0.000  -0.000   0.000   1.921   0.000   0.000   0.000  -0.000  -0.100  -0.000  -0.000
  0.000  -0.000   0.000   0.000  -0.000   0.000   0.000   0.000   0.000   1.898   0.000  -0.000  -0.000  -0.000  -0.054  -0.000
 -0.000   0.000  -0.000   0.000  -0.000   0.000  -0.000  -0.000   0.000   0.000   1.921   0.000   0.000   0.000  -0.000  -0.100
 -0.000   0.000  -0.000   0.000   0.000  -0.000  -0.054  -0.000   0.000  -0.000   0.000   0.096   0.000  -0.000   0.000   0.000
  0.000   0.000   0.000  -0.000  -0.000  -0.000  -0.000  -0.054  -0.000  -0.000   0.000   0.000   0.096   0.000   0.000  -0.000
 -0.000   0.000  -0.000   0.000  -0.000   0.000   0.000  -0.000  -0.100  -0.000   0.000  -0.000   0.000   0.092   0.000   0.000
  0.000   0.000   0.000  -0.000  -0.000   0.000  -0.000  -0.000  -0.000  -0.054  -0.000   0.000   0.000   0.000   0.096   0.000
  0.000   0.000  -0.000  -0.000   0.000   0.000   0.000   0.000  -0.000  -0.000  -0.100   0.000  -0.000  -0.000   0.000   0.092
 -0.000   0.000   0.000  -0.000   0.000  -0.000   0.000   0.000   0.000   0.000   0.000   0.000   0.000  -0.000  -0.000   0.000
 -0.000   0.000  -0.000   0.000   0.000  -0.000  -0.000   0.000   0.000   0.000  -0.000   0.000   0.000   0.000   0.000   0.000


------------------------ aborting loop because EDIFF is reached ----------------------------------------





 total charge

# of ion       s       p       d       tot
------------------------------------------
    1        0.300   6.201   8.877  15.377
    2        0.300   6.201   8.877  15.377
    3        0.300   6.201   8.877  15.377
    4        0.300   6.201   8.877  15.377
--------------------------------------------------
tot          1.199  24.803  35.506  61.508

    CHARGE:  cpu time    0.3969: real time    0.3970
    FORLOC:  cpu time    0.0012: real time    0.0012
    FORNL :  cpu time    0.8440: real time    0.8440
    STRESS:  cpu time    1.0904: real time    1.0904
    FORCOR:  cpu time    0.0240: real time    0.0240
    FORHAR:  cpu time    0.0062: real time    0.0063
    MIXING:  cpu time    0.0012: real time    0.0012
    OFIELD:  cpu time    0.0000: real time    0.0000

  FORCE on cell =-STRESS in cart. coord.  units (eV):
  Direction    XX          YY          ZZ          XY          YZ          ZX
  --------------------------------------------------------------------------------------
  Alpha Z   632.24336   632.24336   632.24336
  Ewald   -3555.64097 -3555.64097 -3555.64097    -0.00000     0.00000     0.00000
  Hartree  1650.17713  1650.17713  1650.17713    -0.00000    -0.00000    -0.00000
  E(xc)    -535.29903  -535.29903  -535.29903     0.00000    -0.00000    -0.00000
  Local     567.55569   567.55569   567.55569     0.00000    -0.00000    -0.00000
  n-local  -347.60268  -353.96188  -355.90367     0.32429     1.97305     0.74249
  augment   751.77612   751.77612   751.77612     0.00000     0.00000     0.00000
  Kinetic   852.05204   841.12913   836.13842    -2.57993     0.30874    -1.19161
  Fock        0.00000     0.00000     0.00000     0.00000     0.00000     0.00000
  -------------------------------------------------------------------------------------
  Total       1.42942     1.42942     1.42942     0.00000     0.00000     0.00000
  in kB      50.02154    50.02154    50.02154     0.00000     0.00000     0.00000
  external pressure =       50.02 kB  Pullay stress =        0.00 kB


 VOLUME and BASIS-vectors are now :
 -----------------------------------------------------------------------------
  energy-cutoff  :      520.00
  volume of cell :       45.78
      direct lattice vectors                 reciprocal lattice vectors
     3.577430672  0.000000000  0.000000000     0.279530225 -0.000000000  0.000000000
     0.000000000  3.577430672  0.000000000     0.000000000  0.279530225  0.000000000
     0.000000000  0.000000000  3.577430672    -0.000000000 -0.000000000  0.279530225

  length of vectors
     3.577430672  3.577430672  3.577430672     0.279530225  0.279530225  0.279530225


 FORCES acting on ions
    electron-ion (+dipol)            ewald-force                    non-local-force                 convergence-correction
 -----------------------------------------------------------------------------------------------
   -.159E-12 -.127E-12 -.202E-12   -.425E-13 -.947E-14 -.141E-14   -.535E-23 -.153E-22 -.414E-23   -.212E-12 -.259E-12 -.758E-13
   -.188E-12 0.223E-11 0.213E-11   -.411E-13 0.300E-13 0.141E-13   0.364E-23 0.000E+00 0.149E-22   -.229E-12 -.224E-12 -.814E-13
   0.210E-11 -.166E-12 0.309E-10   0.423E-13 -.271E-13 0.137E-13   0.397E-23 0.000E+00 -.165E-22   -.377E-13 -.159E-12 -.646E-13
   0.212E-11 0.150E-10 0.897E-11   0.437E-13 0.124E-13 -.258E-13   -.137E-22 -.455E-23 0.128E-22   0.215E-13 -.134E-12 -.858E-13
 -----------------------------------------------------------------------------------------------
   0.387E-11 0.169E-10 0.418E-10   0.240E-14 0.588E-14 0.597E-15   -.115E-22 -.199E-22 0.703E-23   -.456E-12 -.777E-12 -.308E-12


 POSITION                                       TOTAL-FORCE (eV/Angst)
 -----------------------------------------------------------------------------------
      0.00000      0.00000      0.00000        -0.000000      0.000000      0.000000
      0.00000      1.78872      1.78872         0.000000      0.000000     -0.000000
      1.78872      0.00000      1.78872         0.000000      0.000000      0.000000
      1.78872      1.78872      0.00000        -0.000000     -0.000000     -0.000000
 -----------------------------------------------------------------------------------
    total drift:                                0.000000      0.000000      0.000000


--------------------------------------------------------------------------------------------------------



  FREE ENERGIE OF THE ION-ELECTRON SYSTEM (eV)
  ---------------------------------------------------
  free  energy   TOTEN  =       -16.34850102 eV

  energy  without entropy=      -16.35153910  energy(sigma->0) =      -16.34951371



--------------------------------------------------------------------------------------------------------


    POTLOK:  cpu time    0.1184: real time    0.1184


--------------------------------------------------------------------------------------------------------


 stress matrix after NEB project (eV)
      1.42942      0.00000      0.00000
      0.00000      1.42942      0.00000
      0.00000      0.00000      1.42942
  FORCES: max atom, RMS     0.000000    0.000000
  FORCE total and by dimension    0.000000    0.000000
  Stress total and by dimension    2.475830    1.429421
     LOOP+:  cpu time   87.5451: real time   87.6103
    4ORBIT:  cpu time    0.0000: real time    0.0000



 total charge

# of ion       s       p       d       tot
------------------------------------------
    1        0.300   6.201   8.877  15.377
    2        0.300   6.201   8.877  15.377
    3        0.300   6.201   8.877  15.377
    4        0.300   6.201   8.877  15.377
--------------------------------------------------
tot          1.199  24.803  35.506  61.508


 total amount of memory used by VASP MPI-rank0    67849. kBytes
=======================================================================

   base      :      30000. kBytes
   nonl-proj :      15272. kBytes
   fftplans  :       1619. kBytes
   grid      :       3048. kBytes
   one-center:         62. kBytes
   wavefun   :      17848. kBytes

  
  
 General timing and accounting informations for this job:
 ========================================================
  
                  Total CPU time used (sec):       88.807
                            User time (sec):       88.366
                          System time (sec):        0.440
                         Elapsed time (sec):       88.889
  
                   Maximum memory used (kb):       68652.
                   Average memory used (kb):          N/A
  
                          Minor page faults:        86612
                          Major page faults:          873
                 Voluntary context switches:         1060
