 running on   40 total cores
 each image running on   40 cores
 distrk:  each k-point on   10 cores,    4 groups
 distr:  one band on    1 cores,   10 groups
 vasp.6.2.1 16May21 (build Aug 15 2022 14:47:30) complex                         
 POSCAR found type information on POSCAR LaNiO 
 01/POSCAR found :  3 types and      57 ions
 scaLAPACK will be used
 -----------------------------------------------------------------------------
|                                                                             |
|           W    W    AA    RRRRR   N    N  II  N    N   GGGG   !!!           |
|           W    W   A  A   R    R  NN   N  II  NN   N  G    G  !!!           |
|           W    W  A    A  R    R  N N  N  II  N N  N  G       !!!           |
|           W WW W  AAAAAA  RRRRR   N  N N  II  N  N N  G  GGG   !            |
|           WW  WW  A    A  R   R   N   NN  II  N   NN  G    G                |
|           W    W  A    A  R    R  N    N  II  N    N   GGGG   !!!           |
|                                                                             |
|     For optimal performance we recommend to set                             |
|       NCORE = 2 up to number-of-cores-per-socket                            |
|     NCORE specifies how many cores store one orbital (NPAR=cpu/NCORE).      |
|     This setting can greatly improve the performance of VASP for DFT.       |
|     The default, NCORE=1 might be grossly inefficient on modern             |
|     multi-core architectures or massively parallel machines. Do your        |
|     own testing! More info at https://www.vasp.at/wiki/index.php/NCORE      |
|     Unfortunately you need to use the default for GW and RPA                |
|     calculations (for HF NCORE is supported but not extensively tested      |
|     yet).                                                                   |
|                                                                             |
 -----------------------------------------------------------------------------

 LDA part: xc-table for Pade appr. of Perdew
 POSCAR found type information on POSCAR LaNiO 
 00/POSCAR found :  3 types and      57 ions
 POSCAR found type information on POSCAR LaNiO 
 02/POSCAR found :  3 types and      57 ions
 Jacobian:    17.958320772344397     
 POSCAR found type information on POSCAR LaNiO 
 00/POSCAR found :  3 types and      57 ions
 POSCAR found type information on POSCAR LaNiO 
 02/POSCAR found :  3 types and      57 ions
 -----------------------------------------------------------------------------
|                                                                             |
|           W    W    AA    RRRRR   N    N  II  N    N   GGGG   !!!           |
|           W    W   A  A   R    R  NN   N  II  NN   N  G    G  !!!           |
|           W    W  A    A  R    R  N N  N  II  N N  N  G       !!!           |
|           W WW W  AAAAAA  RRRRR   N  N N  II  N  N N  G  GGG   !            |
|           WW  WW  A    A  R   R   N   NN  II  N   NN  G    G                |
|           W    W  A    A  R    R  N    N  II  N    N   GGGG   !!!           |
|                                                                             |
|     The distance between some ions is very small. Please check the          |
|     nearest-neighbor list in the OUTCAR file.                               |
|     I HOPE YOU KNOW WHAT YOU ARE DOING!                                     |
|                                                                             |
 -----------------------------------------------------------------------------

 POSCAR, INCAR and KPOINTS ok, starting setup
 FFT: planning ...
 WAVECAR not read
 entering main loop
       N       E                     dE             d eps       ncg     rms          rms(c)
DAV:   1     0.657288885312E+04    0.65729E+04   -0.12653E+05 26660   0.192E+03
DAV:   2     0.243910345684E+04   -0.41338E+04   -0.36494E+04 29410   0.483E+02
DAV:   3     0.571929469954E+03   -0.18672E+04   -0.16399E+04 28870   0.280E+02
DAV:   4    -0.263058394872E+03   -0.83499E+03   -0.77869E+03 40570   0.163E+02
DAV:   5    -0.423670221098E+03   -0.16061E+03   -0.15681E+03 51290   0.937E+01    0.885E+01
DAV:   6    -0.504666888194E+03   -0.80997E+02   -0.21895E+03 40500   0.248E+02    0.126E+02
DAV:   7    -0.413125544684E+03    0.91541E+02   -0.77237E+02 43630   0.134E+02    0.584E+01
DAV:   8    -0.374213127698E+03    0.38912E+02   -0.14390E+02 40190   0.685E+01    0.234E+01
DAV:   9    -0.382808917283E+03   -0.85958E+01   -0.94358E+01 49260   0.261E+01    0.171E+01
DAV:  10    -0.386053859704E+03   -0.32449E+01   -0.24499E+01 47780   0.240E+01    0.127E+01
DAV:  11    -0.390153423983E+03   -0.40996E+01   -0.16615E+01 46230   0.193E+01    0.787E+00
DAV:  12    -0.391691199096E+03   -0.15378E+01   -0.83156E+00 48560   0.105E+01    0.576E+00
DAV:  13    -0.391814529475E+03   -0.12333E+00   -0.38922E+00 46240   0.802E+00    0.288E+00
DAV:  14    -0.392067880729E+03   -0.25335E+00   -0.21460E+00 47620   0.641E+00    0.193E+00
DAV:  15    -0.392082407848E+03   -0.14527E-01   -0.60525E-01 45520   0.348E+00    0.145E+00
DAV:  16    -0.392131980971E+03   -0.49573E-01   -0.78153E-01 49040   0.226E+00    0.129E+00
DAV:  17    -0.392127468854E+03    0.45121E-02   -0.14048E-01 41710   0.177E+00    0.926E-01
DAV:  18    -0.392129113009E+03   -0.16442E-02   -0.15562E-01 47980   0.115E+00    0.499E-01
DAV:  19    -0.392132565257E+03   -0.34522E-02   -0.36143E-02 45680   0.801E-01    0.404E-01
DAV:  20    -0.392132080993E+03    0.48426E-03   -0.11301E-02 48010   0.480E-01    0.292E-01
DAV:  21    -0.392131845458E+03    0.23553E-03   -0.13623E-02 50390   0.340E-01    0.103E-01
DAV:  22    -0.392132529414E+03   -0.68396E-03   -0.41660E-03 46490   0.230E-01    0.932E-02
DAV:  23    -0.392132595517E+03   -0.66103E-04   -0.97055E-04 41680   0.172E-01    0.659E-02
DAV:  24    -0.392132763164E+03   -0.16765E-03   -0.10506E-03 47280   0.994E-02    0.371E-02
DAV:  25    -0.392132827428E+03   -0.64265E-04   -0.37290E-04 49630   0.606E-02    0.303E-02
DAV:  26    -0.392132868673E+03   -0.41244E-04   -0.21567E-04 48940   0.474E-02    0.301E-02
DAV:  27    -0.392132864652E+03    0.40209E-05   -0.13010E-04 49880   0.385E-02    0.149E-02
DAV:  28    -0.392132870250E+03   -0.55987E-05   -0.88175E-05 49560   0.243E-02    0.152E-02
DAV:  29    -0.392132870523E+03   -0.27286E-06   -0.31205E-05 50270   0.197E-02    0.113E-02
DAV:  30    -0.392132869975E+03    0.54798E-06   -0.13174E-05 49910   0.129E-02    0.838E-03
DAV:  31    -0.392132869730E+03    0.24508E-06   -0.99974E-06 48700   0.897E-03    0.347E-03
DAV:  32    -0.392132870023E+03   -0.29277E-06   -0.26211E-06 45290   0.624E-03    0.225E-03
DAV:  33    -0.392132870322E+03   -0.29884E-06   -0.13773E-06 40900   0.377E-03    0.198E-03
DAV:  34    -0.392132870473E+03   -0.15133E-06   -0.59021E-07 32720   0.300E-03    0.154E-03
DAV:  35    -0.392132870604E+03   -0.13098E-06   -0.33332E-07 25080   0.252E-03    0.133E-03
DAV:  36    -0.392132870720E+03   -0.11610E-06   -0.34821E-07 26960   0.226E-03    0.100E-03
DAV:  37    -0.392132870837E+03   -0.11707E-06   -0.33987E-07 25410   0.218E-03    0.919E-04
DAV:  38    -0.392132870901E+03   -0.63330E-07   -0.22411E-07 23220   0.180E-03
   1 F= -.39213287E+03 E0= -.39209574E+03  d E =-.392133E+03  mag=    15.5190
quench:  g(F)=  0.000E+00 g(S)=  0.000E+00 dE (1.order)= 0.000E+00
 bond charge predicted
       N       E                     dE             d eps       ncg     rms          rms(c)
DAV:   1    -0.392644426071E+03   -0.51156E+00   -0.11225E-01 36810   0.688E-01    0.120E-01
DAV:   2    -0.392645595908E+03   -0.11698E-02   -0.15299E-02 49330   0.276E-01    0.113E-01
DAV:   3    -0.392645587832E+03    0.80755E-05   -0.11289E-03 49480   0.936E-02    0.865E-02
DAV:   4    -0.392645526099E+03    0.61733E-04   -0.74546E-04 47470   0.115E-01    0.354E-02
DAV:   5    -0.392645540013E+03   -0.13914E-04   -0.29106E-04 43500   0.848E-02    0.259E-02
DAV:   6    -0.392645528820E+03    0.11193E-04   -0.64844E-05 47160   0.287E-02    0.181E-02
DAV:   7    -0.392645524582E+03    0.42381E-05   -0.72205E-05 48040   0.217E-02    0.678E-03
DAV:   8    -0.392645525543E+03   -0.96158E-06   -0.17976E-05 47900   0.153E-02    0.649E-03
DAV:   9    -0.392645525063E+03    0.48022E-06   -0.61334E-06 45770   0.888E-03    0.276E-03
DAV:  10    -0.392645525155E+03   -0.92085E-07   -0.22882E-06 40700   0.580E-03    0.155E-03
DAV:  11    -0.392645525151E+03    0.42928E-08   -0.56035E-07 33690   0.277E-03
   2 F= -.39264553E+03 E0= -.39260843E+03  d E =-.512654E+00  mag=    15.5226
quench:  g(F)=  0.000E+00 g(S)=  0.000E+00 dE (1.order)= 0.000E+00
 bond charge predicted
       N       E                     dE             d eps       ncg     rms          rms(c)
DAV:   1    -0.400644027264E+03   -0.79985E+01   -0.43690E+01 35340   0.129E+01    0.237E+00
DAV:   2    -0.401104085937E+03   -0.46006E+00   -0.59973E+00 48010   0.552E+00    0.228E+00
DAV:   3    -0.401100486636E+03    0.35993E-02   -0.45016E-01 49100   0.188E+00    0.171E+00
DAV:   4    -0.401080282290E+03    0.20204E-01   -0.30565E-01 46160   0.223E+00    0.714E-01
DAV:   5    -0.401084114405E+03   -0.38321E-02   -0.10580E-01 44020   0.162E+00    0.500E-01
DAV:   6    -0.401080297496E+03    0.38169E-02   -0.24795E-02 46800   0.563E-01    0.358E-01
DAV:   7    -0.401078973770E+03    0.13237E-02   -0.28569E-02 47590   0.396E-01    0.116E-01
DAV:   8    -0.401079303269E+03   -0.32950E-03   -0.55937E-03 48540   0.261E-01    0.113E-01
DAV:   9    -0.401079101883E+03    0.20139E-03   -0.21223E-03 45450   0.169E-01    0.449E-02
DAV:  10    -0.401079164576E+03   -0.62694E-04   -0.10182E-03 50390   0.952E-02    0.381E-02
DAV:  11    -0.401079156029E+03    0.85478E-05   -0.19116E-04 45840   0.508E-02    0.226E-02
DAV:  12    -0.401079170425E+03   -0.14397E-04   -0.23597E-04 51460   0.434E-02    0.218E-02
DAV:  13    -0.401079169461E+03    0.96478E-06   -0.49716E-05 47720   0.269E-02    0.167E-02
DAV:  14    -0.401079167615E+03    0.18458E-05   -0.62500E-05 50770   0.206E-02    0.902E-03
DAV:  15    -0.401079169346E+03   -0.17314E-05   -0.20267E-05 49090   0.111E-02    0.935E-03
DAV:  16    -0.401079168926E+03    0.41988E-06   -0.68139E-06 49710   0.862E-03    0.536E-03
DAV:  17    -0.401079168917E+03    0.96261E-08   -0.75956E-06 51470   0.834E-03    0.275E-03
DAV:  18    -0.401079169111E+03   -0.19462E-06   -0.17287E-06 41820   0.457E-03    0.268E-03
DAV:  19    -0.401079169049E+03    0.62028E-07   -0.71270E-07 37270   0.310E-03
   3 F= -.40107917E+03 E0= -.40104409E+03  d E =-.843364E+01  mag=    15.6206
quench:  g(F)=  0.000E+00 g(S)=  0.000E+00 dE (1.order)= 0.000E+00
 bond charge predicted
       N       E                     dE             d eps       ncg     rms          rms(c)
DAV:   1    -0.409705569321E+03   -0.86264E+01   -0.14517E+02 34630   0.226E+01    0.420E+00
DAV:   2    -0.410752921759E+03   -0.10474E+01   -0.14101E+01 49100   0.808E+00    0.346E+00
DAV:   3    -0.410683446540E+03    0.69475E-01   -0.93940E-01 48040   0.285E+00    0.251E+00
DAV:   4    -0.410642047953E+03    0.41399E-01   -0.10050E+00 47280   0.343E+00    0.112E+00
DAV:   5    -0.410651449061E+03   -0.94011E-02   -0.24833E-01 42470   0.241E+00    0.948E-01
DAV:   6    -0.410635643753E+03    0.15805E-01   -0.74127E-02 48020   0.861E-01    0.548E-01
DAV:   7    -0.410634790690E+03    0.85306E-03   -0.91158E-02 47440   0.692E-01    0.252E-01
DAV:   8    -0.410635361579E+03   -0.57089E-03   -0.13181E-02 46520   0.411E-01    0.245E-01
DAV:   9    -0.410634428896E+03    0.93268E-03   -0.72094E-03 49280   0.265E-01    0.804E-02
DAV:  10    -0.410634547654E+03   -0.11876E-03   -0.26025E-03 50620   0.150E-01    0.575E-02
DAV:  11    -0.410634538348E+03    0.93054E-05   -0.42500E-04 47730   0.747E-02    0.356E-02
DAV:  12    -0.410634534542E+03    0.38065E-05   -0.28180E-04 50900   0.558E-02    0.156E-02
DAV:  13    -0.410634536745E+03   -0.22035E-05   -0.63007E-05 48130   0.329E-02    0.123E-02
DAV:  14    -0.410634537176E+03   -0.43077E-06   -0.39443E-05 50700   0.174E-02    0.818E-03
DAV:  15    -0.410634537242E+03   -0.66393E-07   -0.10060E-05 47880   0.104E-02    0.696E-03
DAV:  16    -0.410634537100E+03    0.14229E-06   -0.96773E-06 48480   0.966E-03    0.357E-03
DAV:  17    -0.410634537286E+03   -0.18559E-06   -0.26160E-06 41410   0.695E-03    0.318E-03
DAV:  18    -0.410634537221E+03    0.64822E-07   -0.13827E-06 40920   0.380E-03    0.192E-03
DAV:  19    -0.410634537246E+03   -0.24644E-07   -0.73040E-07 36990   0.283E-03
   4 F= -.41063454E+03 E0= -.41061027E+03  d E =-.955537E+01  mag=    15.8131
quench:  g(F)=  0.000E+00 g(S)=  0.000E+00 dE (1.order)= 0.000E+00
 bond charge predicted
       N       E                     dE             d eps       ncg     rms          rms(c)
DAV:   1    -0.412975213016E+03   -0.23407E+01   -0.31292E+01 34840   0.112E+01    0.166E+00
DAV:   2    -0.413188765167E+03   -0.21355E+00   -0.26855E+00 48580   0.373E+00    0.140E+00
DAV:   3    -0.413180747208E+03    0.80180E-02   -0.17758E-01 47850   0.120E+00    0.102E+00
DAV:   4    -0.413173788844E+03    0.69584E-02   -0.16649E-01 47630   0.138E+00    0.463E-01
DAV:   5    -0.413175983914E+03   -0.21951E-02   -0.44153E-02 43010   0.954E-01    0.398E-01
DAV:   6    -0.413173485312E+03    0.24986E-02   -0.14447E-02 48670   0.365E-01    0.234E-01
DAV:   7    -0.413173395740E+03    0.89571E-04   -0.17548E-02 47950   0.315E-01    0.124E-01
DAV:   8    -0.413173421782E+03   -0.26042E-04   -0.26330E-03 44900   0.218E-01    0.106E-01
DAV:   9    -0.413173311329E+03    0.11045E-03   -0.21368E-03 47800   0.131E-01    0.342E-02
DAV:  10    -0.413173347421E+03   -0.36092E-04   -0.50623E-04 48350   0.721E-02    0.353E-02
DAV:  11    -0.413173340586E+03    0.68346E-05   -0.98942E-05 49330   0.369E-02    0.244E-02
DAV:  12    -0.413173336889E+03    0.36971E-05   -0.11106E-04 50070   0.310E-02    0.873E-03
DAV:  13    -0.413173338754E+03   -0.18650E-05   -0.29079E-05 49040   0.190E-02    0.952E-03
DAV:  14    -0.413173337841E+03    0.91267E-06   -0.98197E-06 48950   0.125E-02    0.562E-03
DAV:  15    -0.413173337770E+03    0.71435E-07   -0.67173E-06 49680   0.750E-03    0.297E-03
DAV:  16    -0.413173337803E+03   -0.32647E-07   -0.21888E-06 45100   0.464E-03    0.207E-03
DAV:  17    -0.413173337806E+03   -0.30777E-08   -0.75678E-07 37610   0.321E-03
   5 F= -.41317334E+03 E0= -.41315653E+03  d E =-.253880E+01  mag=    15.8863
quench:  g(F)=  0.000E+00 g(S)=  0.000E+00 dE (1.order)= 0.000E+00
 bond charge predicted
       N       E                     dE             d eps       ncg     rms          rms(c)
DAV:   1    -0.415083313724E+03   -0.19100E+01   -0.13709E+02 33620   0.230E+01    0.349E+00
DAV:   2    -0.416111565314E+03   -0.10283E+01   -0.12672E+01 48330   0.848E+00    0.281E+00
DAV:   3    -0.416068165939E+03    0.43399E-01   -0.76538E-01 47440   0.279E+00    0.212E+00
DAV:   4    -0.416026519783E+03    0.41646E-01   -0.72318E-01 47240   0.270E+00    0.101E+00
DAV:   5    -0.416051601377E+03   -0.25082E-01   -0.27233E-01 45420   0.190E+00    0.104E+00
DAV:   6    -0.416037076633E+03    0.14525E-01   -0.61690E-02 48370   0.823E-01    0.772E-01
DAV:   7    -0.416029724596E+03    0.73520E-02   -0.11866E-01 48830   0.885E-01    0.223E-01
DAV:   8    -0.416031542579E+03   -0.18180E-02   -0.24401E-02 45910   0.544E-01    0.250E-01
DAV:   9    -0.416030800047E+03    0.74253E-03   -0.76110E-03 48850   0.270E-01    0.103E-01
DAV:  10    -0.416030922580E+03   -0.12253E-03   -0.30929E-03 50020   0.151E-01    0.605E-02
DAV:  11    -0.416030942322E+03   -0.19742E-04   -0.49347E-04 48170   0.862E-02    0.420E-02
DAV:  12    -0.416030934983E+03    0.73393E-05   -0.34760E-04 50170   0.614E-02    0.209E-02
DAV:  13    -0.416030942080E+03   -0.70975E-05   -0.13765E-04 50440   0.357E-02    0.210E-02
DAV:  14    -0.416030940192E+03    0.18881E-05   -0.74496E-05 51520   0.256E-02    0.145E-02
DAV:  15    -0.416030938160E+03    0.20323E-05   -0.25704E-05 49230   0.195E-02    0.954E-03
DAV:  16    -0.416030937924E+03    0.23605E-06   -0.21366E-05 48790   0.121E-02    0.605E-03
DAV:  17    -0.416030937933E+03   -0.95388E-08   -0.59176E-06 47590   0.898E-03    0.406E-03
DAV:  18    -0.416030937898E+03    0.35085E-07   -0.25658E-06 43770   0.515E-03    0.239E-03
DAV:  19    -0.416030937897E+03    0.13606E-08   -0.10324E-06 39160   0.342E-03    0.898E-04
DAV:  20    -0.416030937974E+03   -0.76907E-07   -0.37891E-07 27190   0.252E-03
   6 F= -.41603094E+03 E0= -.41602470E+03  d E =-.285760E+01  mag=    15.9680
quench:  g(F)=  0.000E+00 g(S)=  0.000E+00 dE (1.order)= 0.000E+00
 bond charge predicted
       N       E                     dE             d eps       ncg     rms          rms(c)
DAV:   1    -0.416385294329E+03   -0.35436E+00   -0.11914E+01 33280   0.677E+00    0.121E+00
DAV:   2    -0.416459299398E+03   -0.74005E-01   -0.78267E-01 48830   0.266E+00    0.734E-01
DAV:   3    -0.416461505146E+03   -0.22057E-02   -0.52267E-02 49170   0.744E-01    0.476E-01
DAV:   4    -0.416459946813E+03    0.15583E-02   -0.21848E-02 49150   0.416E-01    0.255E-01
DAV:   5    -0.416460535562E+03   -0.58875E-03   -0.96265E-03 47100   0.336E-01    0.151E-01
DAV:   6    -0.416460451095E+03    0.84467E-04   -0.33168E-03 41670   0.319E-01    0.123E-01
DAV:   7    -0.416460399160E+03    0.51935E-04   -0.33628E-03 49480   0.176E-01    0.600E-02
DAV:   8    -0.416460429985E+03   -0.30825E-04   -0.88026E-04 48190   0.826E-02    0.514E-02
DAV:   9    -0.416460400577E+03    0.29408E-04   -0.28860E-04 50310   0.602E-02    0.236E-02
DAV:  10    -0.416460405703E+03   -0.51251E-05   -0.13360E-04 50610   0.405E-02    0.156E-02
DAV:  11    -0.416460409881E+03   -0.41788E-05   -0.37100E-05 48470   0.268E-02    0.119E-02
DAV:  12    -0.416460408374E+03    0.15076E-05   -0.22954E-05 45790   0.237E-02    0.714E-03
DAV:  13    -0.416460408839E+03   -0.46499E-06   -0.15478E-05 51200   0.103E-02    0.567E-03
DAV:  14    -0.416460408538E+03    0.30068E-06   -0.35437E-06 49260   0.575E-03    0.292E-03
DAV:  15    -0.416460408615E+03   -0.76914E-07   -0.27389E-06 47770   0.460E-03    0.194E-03
DAV:  16    -0.416460408597E+03    0.17732E-07   -0.40254E-07 31530   0.337E-03
   7 F= -.41646041E+03 E0= -.41645616E+03  d E =-.429471E+00  mag=    15.9799
quench:  g(F)=  0.000E+00 g(S)=  0.000E+00 dE (1.order)= 0.000E+00
 bond charge predicted
       N       E                     dE             d eps       ncg     rms          rms(c)
DAV:   1    -0.416086573598E+03    0.37384E+00   -0.15357E+02 32130   0.241E+01    0.463E+00
DAV:   2    -0.417223448972E+03   -0.11369E+01   -0.99032E+00 47980   0.107E+01    0.266E+00
DAV:   3    -0.417274748534E+03   -0.51300E-01   -0.77939E-01 44480   0.385E+00    0.153E+00
DAV:   4    -0.417266252790E+03    0.84957E-02   -0.27677E-01 48920   0.171E+00    0.957E-01
DAV:   5    -0.417271300253E+03   -0.50475E-02   -0.15846E-01 49200   0.106E+00    0.494E-01
DAV:   6    -0.417270861893E+03    0.43836E-03   -0.34102E-02 44910   0.810E-01    0.370E-01
DAV:   7    -0.417271449495E+03   -0.58760E-03   -0.39057E-02 49590   0.606E-01    0.212E-01
DAV:   8    -0.417271696552E+03   -0.24706E-03   -0.95744E-03 47860   0.361E-01    0.202E-01
DAV:   9    -0.417271214516E+03    0.48204E-03   -0.45190E-03 50200   0.215E-01    0.994E-02
DAV:  10    -0.417271253657E+03   -0.39140E-04   -0.23195E-03 50320   0.135E-01    0.520E-02
DAV:  11    -0.417271359396E+03   -0.10574E-03   -0.85123E-04 50620   0.940E-02    0.610E-02
DAV:  12    -0.417271304710E+03    0.54686E-04   -0.22591E-04 47540   0.641E-02    0.418E-02
DAV:  13    -0.417271295186E+03    0.95244E-05   -0.39747E-04 50290   0.430E-02    0.169E-02
DAV:  14    -0.417271295962E+03   -0.77568E-06   -0.59173E-05 46730   0.275E-02    0.120E-02
DAV:  15    -0.417271297403E+03   -0.14411E-05   -0.52770E-05 48910   0.196E-02    0.904E-03
DAV:  16    -0.417271297046E+03    0.35651E-06   -0.10678E-05 47420   0.125E-02    0.676E-03
DAV:  17    -0.417271297779E+03   -0.73292E-06   -0.15154E-05 49070   0.867E-03    0.657E-03
DAV:  18    -0.417271297836E+03   -0.56578E-07   -0.25468E-06 42210   0.506E-03    0.627E-03
DAV:  19    -0.417271297719E+03    0.11674E-06   -0.15026E-06 40580   0.397E-03    0.402E-03
DAV:  20    -0.417271297655E+03    0.63803E-07   -0.21311E-06 43770   0.394E-03    0.155E-03
DAV:  21    -0.417271298010E+03   -0.35499E-06   -0.21548E-06 45750   0.391E-03    0.319E-03
DAV:  22    -0.417271298057E+03   -0.46595E-07   -0.34831E-07 27270   0.276E-03
   8 F= -.41727130E+03 E0= -.41727011E+03  d E =-.810889E+00  mag=    15.9957
quench:  g(F)=  0.000E+00 g(S)=  0.000E+00 dE (1.order)= 0.000E+00
 bond charge predicted
       N       E                     dE             d eps       ncg     rms          rms(c)
DAV:   1    -0.417303007869E+03   -0.31710E-01   -0.21734E+01 29480   0.868E+00    0.177E+00
DAV:   2    -0.417446881279E+03   -0.14387E+00   -0.12378E+00 45690   0.402E+00    0.927E-01
DAV:   3    -0.417459481673E+03   -0.12600E-01   -0.10237E-01 47360   0.114E+00    0.469E-01
DAV:   4    -0.417457835129E+03    0.16465E-02   -0.17755E-02 45310   0.652E-01    0.310E-01
DAV:   5    -0.417457989685E+03   -0.15456E-03   -0.21754E-02 45850   0.516E-01    0.153E-01
DAV:   6    -0.417458286278E+03   -0.29659E-03   -0.62575E-03 41510   0.389E-01    0.117E-01
DAV:   7    -0.417458293067E+03   -0.67885E-05   -0.42976E-03 50840   0.167E-01    0.485E-02
DAV:   8    -0.417458361792E+03   -0.68726E-04   -0.10598E-03 45310   0.113E-01    0.429E-02
DAV:   9    -0.417458345538E+03    0.16255E-04   -0.23455E-04 47940   0.653E-02    0.270E-02
DAV:  10    -0.417458355283E+03   -0.97452E-05   -0.25619E-04 51210   0.479E-02    0.206E-02
DAV:  11    -0.417458360039E+03   -0.47558E-05   -0.54056E-05 49620   0.240E-02    0.210E-02
DAV:  12    -0.417458352898E+03    0.71404E-05   -0.47472E-05 48740   0.199E-02    0.774E-03
DAV:  13    -0.417458354564E+03   -0.16659E-05   -0.28269E-05 48580   0.128E-02    0.723E-03
DAV:  14    -0.417458354127E+03    0.43695E-06   -0.34277E-06 42050   0.967E-03    0.593E-03
DAV:  15    -0.417458353704E+03    0.42319E-06   -0.66800E-06 47130   0.684E-03    0.215E-03
DAV:  16    -0.417458353827E+03   -0.12265E-06   -0.15390E-06 40140   0.358E-03    0.179E-03
DAV:  17    -0.417458353862E+03   -0.34976E-07   -0.47402E-07 32110   0.337E-03
   9 F= -.41745835E+03 E0= -.41745744E+03  d E =-.187056E+00  mag=    15.9969
quench:  g(F)=  0.000E+00 g(S)=  0.000E+00 dE (1.order)= 0.000E+00
 bond charge predicted
       N       E                     dE             d eps       ncg     rms          rms(c)
DAV:   1    -0.416903198770E+03    0.55516E+00   -0.11356E+02 28190   0.196E+01    0.376E+00
DAV:   2    -0.417620546878E+03   -0.71735E+00   -0.58239E+00 45150   0.911E+00    0.199E+00
DAV:   3    -0.417666109362E+03   -0.45562E-01   -0.43351E-01 43590   0.319E+00    0.922E-01
DAV:   4    -0.417667171078E+03   -0.10617E-02   -0.13670E-01 49530   0.123E+00    0.621E-01
DAV:   5    -0.417665473338E+03    0.16977E-02   -0.66656E-02 46930   0.838E-01    0.267E-01
DAV:   6    -0.417667523450E+03   -0.20501E-02   -0.26747E-02 45470   0.537E-01    0.255E-01
DAV:   7    -0.417667150351E+03    0.37310E-03   -0.91139E-03 51280   0.315E-01    0.127E-01
DAV:   8    -0.417667168623E+03   -0.18272E-04   -0.35530E-03 50860   0.210E-01    0.657E-02
DAV:   9    -0.417667210649E+03   -0.42026E-04   -0.82748E-04 44020   0.144E-01    0.477E-02
DAV:  10    -0.417667217335E+03   -0.66860E-05   -0.38935E-04 46390   0.860E-02    0.377E-02
DAV:  11    -0.417667220467E+03   -0.31321E-05   -0.40377E-04 50130   0.545E-02    0.307E-02
DAV:  12    -0.417667219626E+03    0.84112E-06   -0.13037E-04 48310   0.311E-02    0.265E-02
DAV:  13    -0.417667214353E+03    0.52728E-05   -0.10073E-04 50440   0.250E-02    0.130E-02
DAV:  14    -0.417667213443E+03    0.90952E-06   -0.19665E-05 45750   0.182E-02    0.878E-03
DAV:  15    -0.417667213688E+03   -0.24449E-06   -0.19406E-05 49780   0.118E-02    0.397E-03
DAV:  16    -0.417667213961E+03   -0.27363E-06   -0.41134E-06 45800   0.730E-03    0.370E-03
DAV:  17    -0.417667213967E+03   -0.59663E-08   -0.15541E-06 40890   0.519E-03    0.228E-03
DAV:  18    -0.417667214046E+03   -0.78231E-07   -0.12917E-06 43590   0.385E-03    0.109E-03
DAV:  19    -0.417667214121E+03   -0.75059E-07   -0.36698E-07 28940   0.229E-03
  10 F= -.41766721E+03 E0= -.41766664E+03  d E =-.208860E+00  mag=    15.9982
quench:  g(F)=  0.000E+00 g(S)=  0.000E+00 dE (1.order)= 0.000E+00
 bond charge predicted
       N       E                     dE             d eps       ncg     rms          rms(c)
DAV:   1    -0.417505435312E+03    0.16178E+00   -0.38269E+01 27600   0.116E+01    0.175E+00
DAV:   2    -0.417716541890E+03   -0.21111E+00   -0.20560E+00 46430   0.484E+00    0.930E-01
DAV:   3    -0.417728354122E+03   -0.11812E-01   -0.13952E-01 48520   0.138E+00    0.542E-01
DAV:   4    -0.417725798084E+03    0.25560E-02   -0.25149E-02 49200   0.608E-01    0.361E-01
DAV:   5    -0.417724347046E+03    0.14510E-02   -0.22224E-02 46800   0.543E-01    0.144E-01
DAV:   6    -0.417725110674E+03   -0.76363E-03   -0.10788E-02 45350   0.353E-01    0.151E-01
DAV:   7    -0.417725020401E+03    0.90274E-04   -0.28045E-03 46970   0.218E-01    0.922E-02
DAV:   8    -0.417724989670E+03    0.30731E-04   -0.16309E-03 48500   0.158E-01    0.460E-02
DAV:   9    -0.417725005171E+03   -0.15501E-04   -0.48243E-04 42850   0.105E-01    0.260E-02
DAV:  10    -0.417725021944E+03   -0.16773E-04   -0.23394E-04 50220   0.493E-02    0.160E-02
DAV:  11    -0.417725030540E+03   -0.85967E-05   -0.93168E-05 50110   0.283E-02    0.154E-02
DAV:  12    -0.417725029359E+03    0.11813E-05   -0.21799E-05 49790   0.179E-02    0.985E-03
DAV:  13    -0.417725029483E+03   -0.12426E-06   -0.24901E-05 49870   0.127E-02    0.635E-03
DAV:  14    -0.417725029797E+03   -0.31383E-06   -0.67971E-06 47010   0.854E-03    0.651E-03
DAV:  15    -0.417725029364E+03    0.43342E-06   -0.48478E-06 44600   0.703E-03    0.389E-03
DAV:  16    -0.417725029377E+03   -0.13672E-07   -0.27688E-06 44900   0.439E-03    0.254E-03
DAV:  17    -0.417725029411E+03   -0.33244E-07   -0.86068E-07 39310   0.333E-03
  11 F= -.41772503E+03 E0= -.41772452E+03  d E =-.578153E-01  mag=    15.9984
quench:  g(F)=  0.000E+00 g(S)=  0.000E+00 dE (1.order)= 0.000E+00
 bond charge predicted
       N       E                     dE             d eps       ncg     rms          rms(c)
DAV:   1    -0.416704342668E+03    0.10207E+01   -0.16661E+02 27030   0.239E+01    0.354E+00
DAV:   2    -0.417654483865E+03   -0.95014E+00   -0.94432E+00 45810   0.105E+01    0.198E+00
DAV:   3    -0.417705055704E+03   -0.50572E-01   -0.77126E-01 40990   0.444E+00    0.106E+00
DAV:   4    -0.417718126761E+03   -0.13071E-01   -0.28099E-01 49410   0.160E+00    0.754E-01
DAV:   5    -0.417713166176E+03    0.49606E-02   -0.76721E-02 48610   0.892E-01    0.374E-01
DAV:   6    -0.417715911898E+03   -0.27457E-02   -0.36147E-02 47530   0.628E-01    0.292E-01
DAV:   7    -0.417715412667E+03    0.49923E-03   -0.12835E-02 46880   0.445E-01    0.191E-01
DAV:   8    -0.417715610424E+03   -0.19776E-03   -0.11368E-02 50290   0.361E-01    0.113E-01
DAV:   9    -0.417715585695E+03    0.24728E-04   -0.19768E-03 44440   0.201E-01    0.885E-02
DAV:  10    -0.417715562676E+03    0.23019E-04   -0.17356E-03 49740   0.118E-01    0.434E-02
DAV:  11    -0.417715608596E+03   -0.45920E-04   -0.47437E-04 47650   0.626E-02    0.435E-02
DAV:  12    -0.417715596855E+03    0.11741E-04   -0.11386E-04 47660   0.448E-02    0.255E-02
DAV:  13    -0.417715593739E+03    0.31160E-05   -0.16077E-04 50950   0.347E-02    0.114E-02
DAV:  14    -0.417715597510E+03   -0.37713E-05   -0.36979E-05 46460   0.184E-02    0.140E-02
DAV:  15    -0.417715595348E+03    0.21617E-05   -0.12310E-05 47650   0.139E-02    0.816E-03
DAV:  16    -0.417715595483E+03   -0.13418E-06   -0.11359E-05 48900   0.854E-03    0.343E-03
DAV:  17    -0.417715596348E+03   -0.86531E-06   -0.37360E-06 47490   0.598E-03    0.325E-03
DAV:  18    -0.417715596830E+03   -0.48236E-06   -0.67400E-07 34860   0.437E-03    0.272E-03
DAV:  19    -0.417715597133E+03   -0.30301E-06   -0.92748E-07 34920   0.341E-03    0.184E-03
DAV:  20    -0.417715597634E+03   -0.50056E-06   -0.16017E-06 41570   0.409E-03    0.220E-03
DAV:  21    -0.417715597923E+03   -0.28958E-06   -0.68324E-07 28900   0.402E-03    0.187E-03
DAV:  22    -0.417715598132E+03   -0.20878E-06   -0.12852E-06 34300   0.323E-03    0.152E-03
DAV:  23    -0.417715598208E+03   -0.75393E-07   -0.51618E-07 24040   0.221E-03
  12 F= -.41771560E+03 E0= -.41771518E+03  d E =0.943120E-02  mag=    15.9988
quench:  g(F)=  0.000E+00 g(S)=  0.000E+00 dE (1.order)= 0.000E+00
 bond charge predicted
       N       E                     dE             d eps       ncg     rms          rms(c)
DAV:   1    -0.417650946662E+03    0.64651E-01   -0.23761E+01 27640   0.897E+00    0.117E+00
DAV:   2    -0.417787935633E+03   -0.13699E+00   -0.13913E+00 45520   0.406E+00    0.659E-01
DAV:   3    -0.417793609075E+03   -0.56734E-02   -0.94674E-02 45410   0.129E+00    0.426E-01
DAV:   4    -0.417792086985E+03    0.15221E-02   -0.17526E-02 44970   0.662E-01    0.294E-01
DAV:   5    -0.417791627271E+03    0.45971E-03   -0.21384E-02 45680   0.422E-01    0.137E-01
DAV:   6    -0.417792044447E+03   -0.41718E-03   -0.65403E-03 46290   0.292E-01    0.130E-01
DAV:   7    -0.417791972589E+03    0.71858E-04   -0.19732E-03 50850   0.138E-01    0.790E-02
DAV:   8    -0.417791938744E+03    0.33846E-04   -0.10560E-03 51080   0.104E-01    0.367E-02
DAV:   9    -0.417791950564E+03   -0.11821E-04   -0.27883E-04 44070   0.836E-02    0.238E-02
DAV:  10    -0.417791967425E+03   -0.16861E-04   -0.19254E-04 49140   0.429E-02    0.300E-02
DAV:  11    -0.417791954678E+03    0.12747E-04   -0.99994E-05 47980   0.337E-02    0.173E-02
DAV:  12    -0.417791956036E+03   -0.13580E-05   -0.69330E-05 48720   0.205E-02    0.127E-02
DAV:  13    -0.417791954730E+03    0.13060E-05   -0.14831E-05 49010   0.142E-02    0.665E-03
DAV:  14    -0.417791954972E+03   -0.24177E-06   -0.64248E-06 48130   0.816E-03    0.439E-03
DAV:  15    -0.417791954975E+03   -0.30195E-08   -0.15913E-06 43390   0.453E-03    0.318E-03
DAV:  16    -0.417791954890E+03    0.85180E-07   -0.16645E-06 41310   0.371E-03    0.996E-04
DAV:  17    -0.417791954927E+03   -0.37355E-07   -0.28591E-07 26770   0.236E-03
  13 F= -.41779195E+03 E0= -.41779148E+03  d E =-.763567E-01  mag=    15.9986
quench:  g(F)=  0.000E+00 g(S)=  0.000E+00 dE (1.order)= 0.000E+00
 bond charge predicted
       N       E                     dE             d eps       ncg     rms          rms(c)
DAV:   1    -0.417780846049E+03    0.11109E-01   -0.37036E+00 27660   0.355E+00    0.548E-01
DAV:   2    -0.417800694404E+03   -0.19848E-01   -0.18411E-01 45070   0.144E+00    0.283E-01
DAV:   3    -0.417801971361E+03   -0.12770E-02   -0.12400E-02 47590   0.396E-01    0.153E-01
DAV:   4    -0.417801725539E+03    0.24582E-03   -0.16799E-03 45310   0.207E-01    0.103E-01
DAV:   5    -0.417801662762E+03    0.62777E-04   -0.26342E-03 44490   0.153E-01    0.480E-02
DAV:   6    -0.417801695174E+03   -0.32413E-04   -0.74133E-04 44120   0.120E-01    0.371E-02
DAV:   7    -0.417801693571E+03    0.16030E-05   -0.36219E-04 51180   0.520E-02    0.180E-02
DAV:   8    -0.417801697454E+03   -0.38829E-05   -0.66479E-05 47980   0.275E-02    0.108E-02
DAV:   9    -0.417801698065E+03   -0.61076E-06   -0.16193E-05 46100   0.180E-02    0.707E-03
DAV:  10    -0.417801698736E+03   -0.67112E-06   -0.93264E-06 47200   0.142E-02    0.315E-03
DAV:  11    -0.417801699093E+03   -0.35664E-06   -0.42724E-06 45070   0.774E-03    0.270E-03
DAV:  12    -0.417801699155E+03   -0.62122E-07   -0.20159E-06 45250   0.424E-03    0.162E-03
DAV:  13    -0.417801699242E+03   -0.87421E-07   -0.68070E-07 37220   0.260E-03
  14 F= -.41780170E+03 E0= -.41780121E+03  d E =-.974432E-02  mag=    15.9985
quench:  g(F)=  0.000E+00 g(S)=  0.000E+00 dE (1.order)= 0.000E+00
 bond charge predicted
       N       E                     dE             d eps       ncg     rms          rms(c)
DAV:   1    -0.417769174917E+03    0.32524E-01   -0.80864E+00 28490   0.509E+00    0.860E-01
DAV:   2    -0.417807999841E+03   -0.38825E-01   -0.33863E-01 44620   0.187E+00    0.436E-01
DAV:   3    -0.417811187050E+03   -0.31872E-02   -0.23212E-02 46870   0.511E-01    0.208E-01
DAV:   4    -0.417810874161E+03    0.31289E-03   -0.32124E-03 44240   0.293E-01    0.133E-01
DAV:   5    -0.417810876716E+03   -0.25559E-05   -0.35547E-03 41530   0.209E-01    0.579E-02
DAV:   6    -0.417810951662E+03   -0.74946E-04   -0.12344E-03 42740   0.167E-01    0.432E-02
DAV:   7    -0.417810970437E+03   -0.18775E-04   -0.63600E-04 51590   0.689E-02    0.281E-02
DAV:   8    -0.417810974304E+03   -0.38670E-05   -0.11237E-04 49630   0.312E-02    0.176E-02
DAV:   9    -0.417810973783E+03    0.52157E-06   -0.23495E-05 49510   0.183E-02    0.121E-02
DAV:  10    -0.417810973921E+03   -0.13831E-06   -0.15891E-05 46370   0.157E-02    0.384E-03
DAV:  11    -0.417810974790E+03   -0.86901E-06   -0.79024E-06 44950   0.101E-02    0.295E-03
DAV:  12    -0.417810975000E+03   -0.20996E-06   -0.22661E-06 41230   0.598E-03    0.213E-03
DAV:  13    -0.417810975179E+03   -0.17879E-06   -0.95221E-07 35780   0.356E-03    0.167E-03
DAV:  14    -0.417810975316E+03   -0.13731E-06   -0.37857E-07 28760   0.287E-03    0.130E-03
DAV:  15    -0.417810975453E+03   -0.13682E-06   -0.46369E-07 28680   0.252E-03    0.100E-03
DAV:  16    -0.417810975570E+03   -0.11706E-06   -0.36636E-07 24150   0.242E-03    0.100E-03
DAV:  17    -0.417810975655E+03   -0.84809E-07   -0.29458E-07 24920   0.224E-03
  15 F= -.41781098E+03 E0= -.41781049E+03  d E =-.927641E-02  mag=    15.9985
quench:  g(F)=  0.000E+00 g(S)=  0.000E+00 dE (1.order)= 0.000E+00
 bond charge predicted
       N       E                     dE             d eps       ncg     rms          rms(c)
DAV:   1    -0.417636048387E+03    0.17493E+00   -0.35336E+01 28330   0.109E+01    0.166E+00
DAV:   2    -0.417811335782E+03   -0.17529E+00   -0.16248E+00 44610   0.410E+00    0.858E-01
DAV:   3    -0.417823815319E+03   -0.12480E-01   -0.11714E-01 46470   0.129E+00    0.439E-01
DAV:   4    -0.417823063396E+03    0.75192E-03   -0.21783E-02 47820   0.570E-01    0.281E-01
DAV:   5    -0.417822632401E+03    0.43099E-03   -0.13487E-02 45100   0.433E-01    0.101E-01
DAV:   6    -0.417823116669E+03   -0.48427E-03   -0.59837E-03 44240   0.275E-01    0.970E-02
DAV:   7    -0.417823116695E+03   -0.26470E-07   -0.13418E-03 47960   0.134E-01    0.670E-02
DAV:   8    -0.417823106765E+03    0.99301E-05   -0.53004E-04 46320   0.933E-02    0.408E-02
DAV:   9    -0.417823116944E+03   -0.10178E-04   -0.24746E-04 47690   0.609E-02    0.225E-02
DAV:  10    -0.417823125656E+03   -0.87120E-05   -0.99615E-05 49280   0.329E-02    0.129E-02
DAV:  11    -0.417823129725E+03   -0.40696E-05   -0.45284E-05 48320   0.246E-02    0.982E-03
DAV:  12    -0.417823131588E+03   -0.18628E-05   -0.19807E-05 48400   0.136E-02    0.903E-03
DAV:  13    -0.417823131650E+03   -0.61817E-07   -0.82995E-06 48420   0.917E-03    0.532E-03
DAV:  14    -0.417823133045E+03   -0.13955E-05   -0.78144E-06 47070   0.824E-03    0.468E-03
DAV:  15    -0.417823133854E+03   -0.80898E-06   -0.20487E-06 39360   0.609E-03    0.354E-03
DAV:  16    -0.417823134744E+03   -0.88995E-06   -0.37356E-06 43330   0.572E-03    0.276E-03
DAV:  17    -0.417823135393E+03   -0.64862E-06   -0.19345E-06 37390   0.484E-03    0.190E-03
DAV:  18    -0.417823135924E+03   -0.53134E-06   -0.23916E-06 35870   0.423E-03    0.203E-03
DAV:  19    -0.417823136093E+03   -0.16855E-06   -0.84570E-07 25050   0.304E-03    0.153E-03
DAV:  20    -0.417823136281E+03   -0.18798E-06   -0.15069E-06 34200   0.342E-03    0.197E-03
DAV:  21    -0.417823136275E+03    0.52023E-08   -0.32858E-07 23830   0.269E-03
  16 F= -.41782314E+03 E0= -.41782268E+03  d E =-.121606E-01  mag=    15.9987
quench:  g(F)=  0.000E+00 g(S)=  0.000E+00 dE (1.order)= 0.000E+00
 bond charge predicted
       N       E                     dE             d eps       ncg     rms          rms(c)
DAV:   1    -0.417515866375E+03    0.30727E+00   -0.43403E+01 28430   0.124E+01    0.216E+00
DAV:   2    -0.417776822140E+03   -0.26096E+00   -0.23776E+00 45440   0.556E+00    0.114E+00
DAV:   3    -0.417799067744E+03   -0.22246E-01   -0.20109E-01 41970   0.190E+00    0.548E-01
DAV:   4    -0.417801189639E+03   -0.21219E-02   -0.62019E-02 46820   0.102E+00    0.384E-01
DAV:   5    -0.417801217309E+03   -0.27670E-04   -0.22431E-02 47230   0.557E-01    0.177E-01
DAV:   6    -0.417801992361E+03   -0.77505E-03   -0.82616E-03 43970   0.409E-01    0.106E-01
DAV:   7    -0.417802184753E+03   -0.19239E-03   -0.35666E-03 46700   0.234E-01    0.807E-02
DAV:   8    -0.417802266670E+03   -0.81917E-04   -0.24122E-03 51670   0.132E-01    0.519E-02
DAV:   9    -0.417802259510E+03    0.71594E-05   -0.33961E-04 46610   0.750E-02    0.406E-02
DAV:  10    -0.417802268523E+03   -0.90133E-05   -0.41777E-04 49550   0.612E-02    0.244E-02
DAV:  11    -0.417802284094E+03   -0.15571E-04   -0.11008E-04 46150   0.338E-02    0.263E-02
DAV:  12    -0.417802278024E+03    0.60696E-05   -0.48905E-05 50130   0.204E-02    0.151E-02
DAV:  13    -0.417802277272E+03    0.75276E-06   -0.37047E-05 50270   0.140E-02    0.683E-03
DAV:  14    -0.417802278624E+03   -0.13523E-05   -0.77811E-06 46980   0.108E-02    0.548E-03
DAV:  15    -0.417802279786E+03   -0.11622E-05   -0.30303E-06 41600   0.805E-03    0.429E-03
DAV:  16    -0.417802280646E+03   -0.85975E-06   -0.38202E-06 44480   0.505E-03    0.280E-03
DAV:  17    -0.417802281802E+03   -0.11564E-05   -0.19629E-06 38440   0.554E-03    0.220E-03
DAV:  18    -0.417802282593E+03   -0.79050E-06   -0.19109E-06 30830   0.451E-03    0.195E-03
DAV:  19    -0.417802283023E+03   -0.43031E-06   -0.12967E-06 27110   0.354E-03    0.143E-03
DAV:  20    -0.417802283357E+03   -0.33367E-06   -0.14751E-06 33730   0.424E-03    0.146E-03
DAV:  21    -0.417802283473E+03   -0.11570E-06   -0.77115E-07 24540   0.261E-03    0.118E-03
DAV:  22    -0.417802283491E+03   -0.18568E-07   -0.30882E-07 25660   0.205E-03
  17 F= -.41780228E+03 E0= -.41780176E+03  d E =0.208528E-01  mag=    15.9984
quench:  g(F)=  0.000E+00 g(S)=  0.000E+00 dE (1.order)= 0.000E+00
 bond charge predicted
       N       E                     dE             d eps       ncg     rms          rms(c)
DAV:   1    -0.417711601713E+03    0.90682E-01   -0.16718E+01 29020   0.770E+00    0.134E+00
DAV:   2    -0.417817463940E+03   -0.10586E+00   -0.98073E-01 45460   0.367E+00    0.696E-01
DAV:   3    -0.417827149630E+03   -0.96857E-02   -0.89684E-02 45890   0.109E+00    0.366E-01
DAV:   4    -0.417826417972E+03    0.73166E-03   -0.13126E-02 43580   0.626E-01    0.255E-01
DAV:   5    -0.417826299722E+03    0.11825E-03   -0.11614E-02 42690   0.392E-01    0.115E-01
DAV:   6    -0.417826742958E+03   -0.44324E-03   -0.50266E-03 42190   0.319E-01    0.823E-02
DAV:   7    -0.417826823817E+03   -0.80859E-04   -0.23159E-03 49540   0.153E-01    0.632E-02
DAV:   8    -0.417826849029E+03   -0.25212E-04   -0.13234E-03 50090   0.920E-02    0.369E-02
DAV:   9    -0.417826841650E+03    0.73784E-05   -0.18610E-04 46390   0.641E-02    0.259E-02
DAV:  10    -0.417826861677E+03   -0.20026E-04   -0.30328E-04 49100   0.456E-02    0.298E-02
DAV:  11    -0.417826861893E+03   -0.21634E-06   -0.56295E-05 45140   0.244E-02    0.290E-02
DAV:  12    -0.417826850236E+03    0.11657E-04   -0.59672E-05 49260   0.203E-02    0.127E-02
DAV:  13    -0.417826850352E+03   -0.11607E-06   -0.18903E-05 46770   0.110E-02    0.630E-03
DAV:  14    -0.417826851409E+03   -0.10565E-05   -0.16185E-05 46230   0.125E-02    0.571E-03
DAV:  15    -0.417826851119E+03    0.28978E-06   -0.40405E-06 44430   0.841E-03    0.311E-03
DAV:  16    -0.417826851558E+03   -0.43853E-06   -0.37650E-06 45330   0.488E-03    0.206E-03
DAV:  17    -0.417826851831E+03   -0.27358E-06   -0.71648E-07 34040   0.355E-03    0.136E-03
DAV:  18    -0.417826852057E+03   -0.22619E-06   -0.63398E-07 29100   0.297E-03    0.113E-03
DAV:  19    -0.417826852193E+03   -0.13556E-06   -0.36348E-07 23930   0.248E-03    0.914E-04
DAV:  20    -0.417826852317E+03   -0.12438E-06   -0.48486E-07 24170   0.251E-03    0.781E-04
DAV:  21    -0.417826852386E+03   -0.68270E-07   -0.39919E-07 24210   0.190E-03
  18 F= -.41782685E+03 E0= -.41782641E+03  d E =-.245689E-01  mag=    15.9987
quench:  g(F)=  0.000E+00 g(S)=  0.000E+00 dE (1.order)= 0.000E+00
 reached required accuracy - stopping structural energy minimisation
 writing wavefunctions
