   8   8   0   0
  0.2016476E+02  0.5443702E-09  0.5443702E-09  0.5443702E-09  0.5000000E-15
   1.0000000000000000E-004
  CAR 
 unknown system                          
     12.19543594     -8.15421524  301      5.85533075      1.00000000
     -8.154  0.0000E+00  0.0000E+00
     -8.086  0.0000E+00  0.0000E+00
     -8.019  0.0000E+00  0.0000E+00
     -7.951  0.0000E+00  0.0000E+00
     -7.883  0.0000E+00  0.0000E+00
     -7.815 -0.6217E-30 -0.4217E-31
     -7.747 -0.1479E-27 -0.1008E-28
     -7.679 -0.2800E-25 -0.1909E-26
     -7.612 -0.4201E-23 -0.2869E-24
     -7.544 -0.4995E-21 -0.3417E-22
     -7.476 -0.4705E-19 -0.3226E-20
     -7.408 -0.3510E-17 -0.2413E-18
     -7.340 -0.2073E-15 -0.1430E-16
     -7.272 -0.9369E-14 -0.6498E-15
     -7.205 -0.3449E-12 -0.2404E-13
     -7.137 -0.1001E-10 -0.7031E-12
     -7.069 -0.2291E-09 -0.1624E-10
     -7.001 -0.4127E-08 -0.2962E-09
     -6.933 -0.5838E-07 -0.4257E-08
     -6.865 -0.6473E-06 -0.4816E-07
     -6.798 -0.5605E-05 -0.4284E-06
     -6.730 -0.3776E-04 -0.2990E-05
     -6.662 -0.1969E-03 -0.1635E-04
     -6.594 -0.7897E-03 -0.6991E-04
     -6.526 -0.2415E-02 -0.2337E-03
     -6.458 -0.5558E-02 -0.6108E-03
     -6.391 -0.9298E-02 -0.1241E-02
     -6.323 -0.9683E-02 -0.1898E-02
     -6.255  0.1701E-02 -0.1783E-02
     -6.187  0.3957E-01  0.9013E-03
     -6.119  0.1237E+00  0.9291E-02
     -6.051  0.2679E+00  0.2746E-01
     -5.984  0.4672E+00  0.5915E-01
     -5.916  0.6952E+00  0.1063E+00
     -5.848  0.9002E+00  0.1674E+00
     -5.780  0.1010E+01  0.2359E+00
     -5.712  0.9771E+00  0.3022E+00
     -5.644  0.8285E+00  0.3584E+00
     -5.577  0.6588E+00  0.4030E+00
     -5.509  0.6035E+00  0.4440E+00
     -5.441  0.7971E+00  0.4980E+00
     -5.373  0.1274E+01  0.5844E+00
     -5.305  0.1879E+01  0.7119E+00
     -5.237  0.2333E+01  0.8701E+00
     -5.170  0.2393E+01  0.1032E+01
     -5.102  0.1984E+01  0.1167E+01
     -5.034  0.1270E+01  0.1253E+01
     -4.966  0.6409E+00  0.1297E+01
     -4.898  0.4744E+00  0.1329E+01
     -4.830  0.8520E+00  0.1387E+01
     -4.763  0.1520E+01  0.1490E+01
     -4.695  0.2097E+01  0.1632E+01
     -4.627  0.2354E+01  0.1792E+01
     -4.559  0.2380E+01  0.1953E+01
     -4.491  0.2459E+01  0.2120E+01
     -4.423  0.2680E+01  0.2302E+01
     -4.356  0.2776E+01  0.2490E+01
     -4.288  0.2434E+01  0.2655E+01
     -4.220  0.1793E+01  0.2777E+01
     -4.152  0.1526E+01  0.2880E+01
     -4.084  0.2203E+01  0.3030E+01
     -4.016  0.3555E+01  0.3271E+01
     -3.949  0.4596E+01  0.3582E+01
     -3.881  0.4574E+01  0.3893E+01
     -3.813  0.3579E+01  0.4136E+01
     -3.745  0.2218E+01  0.4286E+01
     -3.677  0.1077E+01  0.4359E+01
     -3.609  0.6124E+00  0.4401E+01
     -3.542  0.1110E+01  0.4476E+01
     -3.474  0.2396E+01  0.4638E+01
     -3.406  0.3785E+01  0.4895E+01
     -3.338  0.4587E+01  0.5206E+01
     -3.270  0.4727E+01  0.5527E+01
     -3.202  0.4707E+01  0.5846E+01
     -3.135  0.4864E+01  0.6176E+01
     -3.067  0.4831E+01  0.6504E+01
     -2.999  0.4009E+01  0.6776E+01
     -2.931  0.2454E+01  0.6942E+01
     -2.863  0.9438E+00  0.7006E+01
     -2.795  0.2217E+00  0.7021E+01
     -2.728  0.4152E+00  0.7049E+01
     -2.660  0.1055E+01  0.7121E+01
     -2.592  0.1474E+01  0.7221E+01
     -2.524  0.1324E+01  0.7311E+01
     -2.456  0.8245E+00  0.7367E+01
     -2.388  0.4578E+00  0.7398E+01
     -2.321  0.4278E+00  0.7427E+01
     -2.253  0.5632E+00  0.7465E+01
     -2.185  0.7232E+00  0.7514E+01
     -2.117  0.1081E+01  0.7587E+01
     -2.049  0.1832E+01  0.7712E+01
     -1.981  0.2721E+01  0.7896E+01
     -1.914  0.3135E+01  0.8109E+01
     -1.846  0.2757E+01  0.8296E+01
     -1.778  0.1921E+01  0.8426E+01
     -1.710  0.1195E+01  0.8507E+01
     -1.642  0.7860E+00  0.8561E+01
     -1.574  0.5100E+00  0.8595E+01
     -1.507  0.2323E+00  0.8611E+01
     -1.439  0.8544E-01  0.8617E+01
     -1.371  0.2639E+00  0.8635E+01
     -1.303  0.7363E+00  0.8685E+01
     -1.235  0.1280E+01  0.8771E+01
     -1.168  0.1871E+01  0.8898E+01
     -1.100  0.2858E+01  0.9092E+01
     -1.032  0.4391E+01  0.9390E+01
     -0.964  0.5816E+01  0.9785E+01
     -0.896  0.6154E+01  0.1020E+02
     -0.828  0.5228E+01  0.1056E+02
     -0.761  0.3862E+01  0.1082E+02
     -0.693  0.2994E+01  0.1102E+02
     -0.625  0.2988E+01  0.1122E+02
     -0.557  0.3697E+01  0.1148E+02
     -0.489  0.4699E+01  0.1179E+02
     -0.421  0.5360E+01  0.1216E+02
     -0.354  0.5065E+01  0.1250E+02
     -0.286  0.3713E+01  0.1275E+02
     -0.218  0.1913E+01  0.1288E+02
     -0.150  0.4840E+00  0.1292E+02
     -0.082 -0.2085E+00  0.1290E+02
     -0.014 -0.3194E+00  0.1288E+02
      0.053 -0.9168E-01  0.1287E+02
      0.121  0.3760E+00  0.1290E+02
      0.189  0.9843E+00  0.1297E+02
      0.257  0.1565E+01  0.1307E+02
      0.325  0.2096E+01  0.1321E+02
      0.393  0.2699E+01  0.1340E+02
      0.460  0.3210E+01  0.1361E+02
      0.528  0.3113E+01  0.1383E+02
      0.596  0.2195E+01  0.1398E+02
      0.664  0.9527E+00  0.1404E+02
      0.732  0.9027E-01  0.1405E+02
      0.800 -0.7553E-01  0.1404E+02
      0.867  0.3512E+00  0.1406E+02
      0.935  0.1022E+01  0.1413E+02
      1.003  0.1466E+01  0.1423E+02
      1.071  0.1385E+01  0.1433E+02
      1.139  0.9661E+00  0.1439E+02
      1.207  0.7176E+00  0.1444E+02
      1.274  0.9825E+00  0.1451E+02
      1.342  0.1733E+01  0.1463E+02
      1.410  0.2711E+01  0.1481E+02
      1.478  0.3518E+01  0.1505E+02
      1.546  0.3730E+01  0.1530E+02
      1.614  0.3264E+01  0.1552E+02
      1.681  0.2599E+01  0.1570E+02
      1.749  0.2412E+01  0.1586E+02
      1.817  0.3041E+01  0.1607E+02
      1.885  0.4340E+01  0.1636E+02
      1.953  0.5781E+01  0.1676E+02
      2.021  0.6592E+01  0.1720E+02
      2.088  0.6180E+01  0.1762E+02
      2.156  0.4721E+01  0.1794E+02
      2.224  0.3215E+01  0.1816E+02
      2.292  0.2654E+01  0.1834E+02
      2.360  0.3123E+01  0.1855E+02
      2.428  0.3868E+01  0.1881E+02
      2.495  0.4127E+01  0.1909E+02
      2.563  0.3727E+01  0.1935E+02
      2.631  0.3188E+01  0.1956E+02
      2.699  0.3424E+01  0.1980E+02
      2.767  0.4908E+01  0.2013E+02
      2.835  0.6951E+01  0.2060E+02
      2.902  0.8216E+01  0.2116E+02
      2.970  0.8067E+01  0.2170E+02
      3.038  0.7078E+01  0.2218E+02
      3.106  0.6210E+01  0.2261E+02
      3.174  0.5914E+01  0.2301E+02
      3.242  0.5983E+01  0.2341E+02
      3.309  0.5792E+01  0.2381E+02
      3.377  0.4779E+01  0.2413E+02
      3.445  0.3167E+01  0.2434E+02
      3.513  0.2127E+01  0.2449E+02
      3.581  0.2806E+01  0.2468E+02
      3.649  0.5083E+01  0.2502E+02
      3.716  0.7375E+01  0.2552E+02
      3.784  0.8021E+01  0.2607E+02
      3.852  0.7014E+01  0.2654E+02
      3.920  0.5925E+01  0.2695E+02
      3.988  0.5866E+01  0.2734E+02
      4.056  0.6187E+01  0.2776E+02
      4.123  0.5670E+01  0.2815E+02
      4.191  0.4328E+01  0.2844E+02
      4.259  0.3280E+01  0.2866E+02
      4.327  0.3223E+01  0.2888E+02
      4.395  0.3779E+01  0.2914E+02
      4.463  0.4171E+01  0.2942E+02
      4.530  0.4026E+01  0.2970E+02
      4.598  0.3551E+01  0.2994E+02
      4.666  0.3259E+01  0.3016E+02
      4.734  0.3481E+01  0.3039E+02
      4.802  0.3961E+01  0.3066E+02
      4.870  0.3998E+01  0.3093E+02
      4.937  0.3213E+01  0.3115E+02
      5.005  0.2077E+01  0.3129E+02
      5.073  0.1418E+01  0.3139E+02
      5.141  0.1464E+01  0.3149E+02
      5.209  0.1659E+01  0.3160E+02
      5.277  0.1424E+01  0.3170E+02
      5.344  0.8202E+00  0.3175E+02
      5.412  0.3478E+00  0.3178E+02
      5.480  0.3156E+00  0.3180E+02
      5.548  0.5804E+00  0.3184E+02
      5.616  0.7915E+00  0.3189E+02
      5.684  0.7513E+00  0.3194E+02
      5.751  0.5241E+00  0.3198E+02
      5.819  0.2758E+00  0.3200E+02
      5.887  0.1013E+00  0.3200E+02
      5.955  0.5679E-02  0.3200E+02
      6.023 -0.3786E-01  0.3200E+02
      6.091 -0.4657E-01  0.3200E+02
      6.158 -0.9463E-02  0.3200E+02
      6.226  0.1037E+00  0.3200E+02
      6.294  0.2961E+00  0.3202E+02
      6.362  0.5082E+00  0.3206E+02
      6.430  0.6534E+00  0.3210E+02
      6.498  0.6943E+00  0.3215E+02
      6.565  0.6710E+00  0.3219E+02
      6.633  0.6602E+00  0.3224E+02
      6.701  0.7160E+00  0.3229E+02
      6.769  0.8510E+00  0.3235E+02
      6.837  0.1073E+01  0.3242E+02
      6.905  0.1384E+01  0.3251E+02
      6.972  0.1705E+01  0.3263E+02
      7.040  0.1908E+01  0.3276E+02
      7.108  0.2072E+01  0.3290E+02
      7.176  0.2478E+01  0.3307E+02
      7.244  0.3146E+01  0.3328E+02
      7.312  0.3668E+01  0.3353E+02
      7.379  0.3758E+01  0.3378E+02
      7.447  0.3638E+01  0.3403E+02
      7.515  0.3556E+01  0.3427E+02
      7.583  0.3373E+01  0.3450E+02
      7.651  0.3072E+01  0.3471E+02
      7.719  0.3207E+01  0.3493E+02
      7.786  0.4237E+01  0.3521E+02
      7.854  0.5741E+01  0.3560E+02
      7.922  0.6954E+01  0.3607E+02
      7.990  0.7807E+01  0.3660E+02
      8.058  0.8600E+01  0.3719E+02
      8.126  0.8806E+01  0.3778E+02
      8.193  0.7420E+01  0.3829E+02
      8.261  0.4653E+01  0.3860E+02
      8.329  0.2193E+01  0.3875E+02
      8.397  0.1459E+01  0.3885E+02
      8.465  0.2257E+01  0.3900E+02
      8.532  0.3332E+01  0.3923E+02
      8.600  0.3775E+01  0.3949E+02
      8.668  0.3642E+01  0.3973E+02
      8.736  0.3446E+01  0.3997E+02
      8.804  0.3552E+01  0.4021E+02
      8.872  0.4203E+01  0.4049E+02
      8.939  0.5734E+01  0.4088E+02
      9.007  0.8194E+01  0.4144E+02
      9.075  0.1061E+02  0.4216E+02
      9.143  0.1130E+02  0.4292E+02
      9.211  0.9657E+01  0.4358E+02
      9.279  0.7164E+01  0.4407E+02
      9.346  0.5920E+01  0.4447E+02
      9.414  0.6255E+01  0.4489E+02
      9.482  0.6616E+01  0.4534E+02
      9.550  0.5699E+01  0.4573E+02
      9.618  0.3866E+01  0.4599E+02
      9.686  0.2351E+01  0.4615E+02
      9.753  0.1780E+01  0.4627E+02
      9.821  0.1855E+01  0.4639E+02
      9.889  0.2158E+01  0.4654E+02
      9.957  0.2728E+01  0.4673E+02
     10.025  0.3666E+01  0.4697E+02
     10.093  0.4534E+01  0.4728E+02
     10.160  0.4594E+01  0.4759E+02
     10.228  0.3597E+01  0.4784E+02
     10.296  0.2056E+01  0.4798E+02
     10.364  0.7314E+00  0.4803E+02
     10.432  0.1455E-01  0.4803E+02
     10.500 -0.1817E+00  0.4802E+02
     10.567 -0.1401E+00  0.4801E+02
     10.635 -0.6457E-01  0.4800E+02
     10.703 -0.2118E-01  0.4800E+02
     10.771 -0.5208E-02  0.4800E+02
     10.839 -0.9811E-03  0.4800E+02
     10.907 -0.1432E-03  0.4800E+02
     10.974 -0.1631E-04  0.4800E+02
     11.042 -0.1454E-05  0.4800E+02
     11.110 -0.1019E-06  0.4800E+02
     11.178 -0.5618E-08  0.4800E+02
     11.246 -0.2442E-09  0.4800E+02
     11.314 -0.8378E-11  0.4800E+02
     11.381 -0.2275E-12  0.4800E+02
     11.449 -0.5028E-14  0.4800E+02
     11.517  0.0000E+00  0.4800E+02
     11.585  0.0000E+00  0.4800E+02
     11.653  0.0000E+00  0.4800E+02
     11.721  0.0000E+00  0.4800E+02
     11.788  0.0000E+00  0.4800E+02
     11.856  0.0000E+00  0.4800E+02
     11.924  0.0000E+00  0.4800E+02
     11.992  0.0000E+00  0.4800E+02
     12.060  0.0000E+00  0.4800E+02
     12.128  0.0000E+00  0.4800E+02
     12.195  0.0000E+00  0.4800E+02
