    8    8    1    1
  0.2016476E+02  0.5443702E-09  0.5443702E-09  0.5443702E-09  0.5000000E-15
   1.0000000000000000E-004
  CAR 
 unknown system                          
     32     10     24

  0.1262379E-14  0.1262379E-14  0.1262379E-14  0.8000000E-02
    1       -6.154215   1.000000
    2       -2.035960   1.000000
    3       -2.035960   1.000000
    4       -2.035960   1.000000
    5       -2.035960   1.000000
    6       -2.035960   1.000000
    7       -2.035960   1.000000
    8        2.923958   1.000000
    9        2.923958   1.000000
   10        2.923958   1.000000
   11        2.923958   1.000000
   12        2.923958   1.000000
   13        2.923958   1.000000
   14        5.754025   0.873663
   15        5.754025   0.873663
   16        5.754025   0.873663
   17        6.478883  -0.000048
   18        6.478883  -0.000048
   19        6.478883  -0.000048
   20        6.478883  -0.000048
   21        6.478883  -0.000048
   22        6.478883  -0.000048
   23        8.316610  -0.000000
   24        8.316611  -0.000000

  0.2000000E+00  0.1262379E-14  0.1262379E-14  0.4800000E-01
    1       -5.980437   1.000000
    2       -3.458771   1.000000
    3       -1.983816   1.000000
    4       -1.983816   1.000000
    5       -1.983816   1.000000
    6       -1.983816   1.000000
    7       -0.407327   1.000000
    8        2.519539   1.000000
    9        2.519539   1.000000
   10        2.519539   1.000000
   11        2.519539   1.000000
   12        3.080510   1.000000
   13        3.080510   1.000000
   14        4.811043   1.000000
   15        5.183227   1.000011
   16        5.183227   1.000011
   17        6.348217  -0.001355
   18        7.078729  -0.000000
   19        7.325684  -0.000000
   20        7.325684  -0.000000
   21        7.325684  -0.000000
   22        7.325684  -0.000000
   23        7.940144  -0.000000
   24        9.100629  -0.000000

  0.4000000E+00  0.1262379E-14  0.1262379E-14  0.4800000E-01
    1       -5.462966   1.000000
    2       -4.614443   1.000000
    3       -1.892062   1.000000
    4       -1.892062   1.000000
    5       -1.892062   1.000000
    6       -1.892062   1.000000
    7        1.344765   1.000000
    8        2.011791   1.000000
    9        2.011791   1.000000
   10        2.011791   1.000000
   11        2.011791   1.000000
   12        3.128797   1.000000
   13        3.542471   1.000000
   14        3.542471   1.000000
   15        4.278786   1.000000
   16        4.278786   1.000000
   17        6.626351  -0.000000
   18        7.222014  -0.000000
   19        8.176709  -0.000000
   20        9.183923  -0.000000
   21        9.183923  -0.000000
   22        9.183923  -0.000000
   23        9.183923  -0.000000
   24        9.632978  -0.000000

  0.2000000E+00  0.2000000E+00  0.1262379E-14  0.9600000E-01
    1       -5.808843   1.000000
    2       -3.341628   1.000000
    3       -3.341628   1.000000
    4       -2.264112   1.000000
    5       -1.659623   1.000000
    6       -0.492801   1.000000
    7       -0.492801   1.000000
    8        1.724833   1.000000
    9        2.561673   1.000000
   10        2.561673   1.000000
   11        2.886174   1.000000
   12        2.886174   1.000000
   13        3.198216   1.000000
   14        3.726533   1.000000
   15        4.604723   1.000000
   16        5.578076   1.032262
   17        6.795843  -0.000000
   18        7.245919  -0.000000
   19        7.245919  -0.000000
   20        7.836935  -0.000000
   21        7.836936  -0.000000
   22        8.674259  -0.000000
   23        8.719526  -0.000000
   24        8.865715  -0.000000

  0.4000000E+00  0.2000000E+00  0.1262379E-14  0.1920000E+00
    1       -5.298777   1.000000
    2       -4.465883   1.000000
    3       -3.024022   1.000000
    4       -2.616015   1.000000
    5       -1.234973   1.000000
    6       -0.788636   1.000000
    7        0.992162   1.000000
    8        1.454541   1.000000
    9        1.807983   1.000000
   10        2.386651   1.000000
   11        2.787950   1.000000
   12        2.969567   1.000000
   13        3.063493   1.000000
   14        3.685583   1.000000
   15        3.691198   1.000000
   16        4.789279   1.000000
   17        7.535611  -0.000000
   18        7.922913  -0.000000
   19        8.102295  -0.000000
   20        8.817418  -0.000000
   21        9.145704  -0.000000
   22        9.460769  -0.000000
   23        9.527526  -0.000000
   24       10.195436  -0.000000

  0.4000000E+00  0.4000000E+00  0.1262379E-14  0.9600000E-01
    1       -4.814021   1.000000
    2       -4.035889   1.000000
    3       -4.035889   1.000000
    4       -3.380272   1.000000
    5       -0.539693   1.000000
    6        0.242178   1.000000
    7        0.242178   1.000000
    8        1.290886   1.000000
    9        1.524586   1.000000
   10        2.099338   1.000000
   11        2.099338   1.000000
   12        2.778485   1.000000
   13        3.952503   1.000000
   14        3.979135   1.000000
   15        3.979135   1.000000
   16        4.914457   1.000000
   17        7.666884  -0.000000
   18        8.634866  -0.000000
   19        8.929491  -0.000000
   20        8.929491  -0.000000
   21        9.407303  -0.000000
   22        9.407303  -0.000000
   23        9.739457  -0.000000
   24       10.051246  -0.000000

  0.2000000E+00  0.2000000E+00  0.2000000E+00  0.6400000E-01
    1       -5.640012   1.000000
    2       -3.260916   1.000000
    3       -3.260916   1.000000
    4       -3.260916   1.000000
    5       -0.654109   1.000000
    6       -0.654109   1.000000
    7       -0.654109   1.000000
    8        2.099176   1.000000
    9        2.099176   1.000000
   10        2.099176   1.000000
   11        2.756618   1.000000
   12        3.345249   1.000000
   13        3.345249   1.000000
   14        3.345249   1.000000
   15        5.179349   1.000010
   16        5.179349   1.000010
   17        6.993739  -0.000000
   18        6.993739  -0.000000
   19        6.993739  -0.000000
   20        7.953407  -0.000000
   21        9.112102  -0.000000
   22        9.121527  -0.000000
   23        9.133784  -0.000000
   24        9.133784  -0.000000

  0.4000000E+00  0.2000000E+00  0.2000000E+00  0.1920000E+00
    1       -5.139731   1.000000
    2       -4.329432   1.000000
    3       -3.106611   1.000000
    4       -3.106611   1.000000
    5       -0.957088   1.000000
    6       -0.957088   1.000000
    7        0.463721   1.000000
    8        1.557843   1.000000
    9        1.948368   1.000000
   10        1.948368   1.000000
   11        3.148052   1.000000
   12        3.305016   1.000000
   13        3.305016   1.000000
   14        3.773795   1.000000
   15        4.434211   1.000000
   16        4.486851   1.000000
   17        7.533857  -0.000000
   18        8.098503  -0.000000
   19        8.098503  -0.000000
   20        8.122876  -0.000000
   21        9.129195  -0.000000
   22        9.837249  -0.000000
   23       10.039418  -0.000000
   24       10.113350  -0.000000

  0.4000000E+00  0.4000000E+00  0.2000000E+00  0.1920000E+00
    1       -4.674599   1.000000
    2       -3.950357   1.000000
    3       -3.950357   1.000000
    4       -3.453376   1.000000
    5       -0.917307   1.000000
    6       -0.365661   1.000000
    7       -0.365661   1.000000
    8        0.485231   1.000000
    9        2.345107   1.000000
   10        2.872546   1.000000
   11        2.872546   1.000000
   12        3.722883   1.000000
   13        4.053431   1.000000
   14        4.070650   1.000000
   15        4.070650   1.000000
   16        4.849702   1.000000
   17        7.813056  -0.000000
   18        8.151205  -0.000000
   19        8.499925  -0.000000
   20        8.499925  -0.000000
   21        9.036989  -0.000000
   22        9.036989  -0.000000
   23        9.368873  -0.000000
   24        9.448373  -0.000000

  0.4000000E+00  0.4000000E+00  0.4000000E+00  0.6400000E-01
    1       -4.287690   1.000000
    2       -3.786491   1.000000
    3       -3.786491   1.000000
    4       -3.786491   1.000000
    5       -1.034203   1.000000
    6       -1.034203   1.000000
    7       -1.034203   1.000000
    8       -0.486211   1.000000
    9        3.789202   1.000000
   10        3.789202   1.000000
   11        3.789202   1.000000
   12        4.319447   1.000000
   13        4.319447   1.000000
   14        4.319447   1.000000
   15        4.634899   1.000000
   16        4.634899   1.000000
   17        7.351445  -0.000000
   18        7.887809  -0.000000
   19        7.887809  -0.000000
   20        7.887809  -0.000000
   21        9.067692  -0.000000
   22        9.067694  -0.000000
   23        9.068681  -0.000000
   24        9.172057  -0.000000
