 vasp.6.2.1 16May21 (build Aug 15 2022 14:47:30) complex                         
 executed on             LinuxGNU date 2025.12.30  16:12:29
 running on    4 total cores
 distrk:  each k-point on    4 cores,    1 groups
 distr:  one band on NCORE=   1 cores,    4 groups


--------------------------------------------------------------------------------------------------------


 INCAR:
   ALGO = Fast
   EDIFF = 1e-6
   ENCUT = 520.0
   ISMEAR = 1
   LASPH = True
   LCHARG = False
   LREAL = False
   LWAVE = False
   NELM = 100
   NSW = 0
   PREC = Accurate

 POTCAR:   PAW_PBE Si 05Jan2001                   
 POTCAR:   PAW_PBE Si 05Jan2001                   
   VRHFIN =Si: s2p2                                                                                 
   LEXCH  = PE                                                                                      
   EATOM  =   103.0669 eV,    7.5752 Ry                                                             
                                                                                                    
   TITEL  = PAW_PBE Si 05Jan2001                                                                    
   LULTRA =        F    use ultrasoft PP ?                                                          
   IUNSCR =        1    unscreen: 0-lin 1-nonlin 2-no                                               
   RPACOR =    1.500    partial core radius                                                         
   POMASS =   28.085; ZVAL   =    4.000    mass and valenz                                          
   RCORE  =    1.900    outmost cutoff radius                                                       
   RWIGS  =    2.480; RWIGS  =    1.312    wigner-seitz radius (au A)                               
   ENMAX  =  245.345; ENMIN  =  184.009 eV                                                          
   ICORE  =        2    local potential                                                             
   LCOR   =        T    correct aug charges                                                         
   LPAW   =        T    paw PP                                                                      
   EAUG   =  322.069                                                                                
   DEXC   =    -.007                                                                                
   RMAX   =    2.944    core radius for proj-oper                                                   
   RAUG   =    1.300    factor for augmentation sphere                                              
   RDEP   =    1.993    radius for radial grids                                                     
   QCUT   =   -4.246; QGAM   =    8.493    optimization parameters                                  
                                                                                                    
   Description                                                                                      
     l     E      TYP  RCUT    TYP  RCUT                                                            
     0   .000     23  1.900                                                                         
     0   .000     23  1.900                                                                         
     1   .000     23  1.900                                                                         
     1   .000     23  1.900                                                                         
     2   .000      7  1.900                                                                         
  local pseudopotential read in
  partial core-charges read in
  atomic valenz-charges read in
  non local Contribution for L=           0  read in
    real space projection operators read in
  non local Contribution for L=           0  read in
    real space projection operators read in
  non local Contribution for L=           1  read in
    real space projection operators read in
  non local Contribution for L=           1  read in
    real space projection operators read in
    PAW grid and wavefunctions read in

   number of l-projection  operators is LMAX  =           4
   number of lm-projection operators is LMMAX =           8

 PAW_PBE Si 05Jan2001                   :
 energy of atom  1       EATOM= -103.0669
 kinetic energy error for atom=    0.0005 (will be added to EATOM!!)


 POSCAR: # Generated by Masgent for EOS calculati
  positions in direct lattice
  No initial velocities read in
 exchange correlation table for  LEXCH =        8
   RHO(1)=    0.500       N(1)  =     2000
   RHO(2)=  100.500       N(2)  =     4000

 VTST: version 4.2, (08/11/21)

 CHAIN: initializing optimizer
 
 OPT: Using VASP Dynamics algorithm
 CHAIN: Read ICHAIN            0

 POSCAR: # Generated by Masgent for EOS calculati
  positions in direct lattice
  No initial velocities read in



--------------------------------------------------------------------------------------------------------


 ion  position               nearest neighbor table
   1  0.750  0.750  0.250-   2 2.36   8 2.36   6 2.36   4 2.36
   2  0.000  0.500  0.500-   1 2.36   7 2.36   5 2.36   3 2.36
   3  0.750  0.250  0.750-   4 2.36   6 2.36   2 2.36   8 2.36
   4  0.000  0.000  0.000-   3 2.36   5 2.36   1 2.36   7 2.36
   5  0.250  0.750  0.750-   4 2.36   6 2.36   2 2.36   8 2.36
   6  0.500  0.500  0.000-   3 2.36   5 2.36   1 2.36   7 2.36
   7  0.250  0.250  0.250-   2 2.36   8 2.36   6 2.36   4 2.36
   8  0.500  0.000  0.500-   1 2.36   7 2.36   5 2.36   3 2.36

  LATTYP: Found a simple cubic cell.
 ALAT       =     5.4437023729
  
  Lattice vectors:
  
 A1 = (   5.4437023729,   0.0000000000,   0.0000000000)
 A2 = (   0.0000000000,   5.4437023729,   0.0000000000)
 A3 = (   0.0000000000,   0.0000000000,   5.4437023729)


Analysis of symmetry for initial positions (statically):
=====================================================================
 Subroutine PRICEL returns following result:
 
  LATTYP: Found a face centered cubic cell.
 ALAT       =     5.4437023729
  
  Lattice vectors:
  
 A1 = (   2.7218511865,  -2.7218511865,   0.0000000000)
 A2 = (   2.7218511865,   0.0000000000,   2.7218511865)
 A3 = (   0.0000000000,  -2.7218511865,   2.7218511865)
 
   4 primitive cells build up your supercell.
 

 Routine SETGRP: Setting up the symmetry group for a 
 simple cubic supercell.


 Subroutine GETGRP returns: Found 48 space group operations
 (whereof 24 operations were pure point group operations)
 out of a pool of 48 trial point group operations.


The static configuration has the point symmetry T_d .
 The point group associated with its full space group is O_h .


Analysis of symmetry for dynamics (positions and initial velocities):
=====================================================================
 Subroutine PRICEL returns following result:
 
  LATTYP: Found a face centered cubic cell.
 ALAT       =     5.4437023729
  
  Lattice vectors:
  
 A1 = (   2.7218511865,  -2.7218511865,   0.0000000000)
 A2 = (   2.7218511865,   0.0000000000,   2.7218511865)
 A3 = (   0.0000000000,  -2.7218511865,   2.7218511865)
 
   4 primitive cells build up your supercell.
 

 Routine SETGRP: Setting up the symmetry group for a 
 simple cubic supercell.


 Subroutine GETGRP returns: Found 48 space group operations
 (whereof 24 operations were pure point group operations)
 out of a pool of 48 trial point group operations.


The dynamic configuration has the point symmetry T_d .
 The point group associated with its full space group is O_h .


 Subroutine INISYM returns: Found 48 space group operations
 (whereof 24 operations are pure point group operations),
 and found     4 'primitive' translations


----------------------------------------------------------------------------------------

                                     Primitive cell                                     

  volume of cell :      40.3295

  direct lattice vectors                    reciprocal lattice vectors
     2.721851186 -2.721851186  0.000000000     0.183698507 -0.183698507 -0.183698507
     2.721851186  0.000000000  2.721851186     0.183698507  0.183698507  0.183698507
     0.000000000 -2.721851186  2.721851186    -0.183698507 -0.183698507  0.183698507

  length of vectors
     3.849278863  3.849278863  3.849278863     0.318175148  0.318175148  0.318175148

  position of ions in fractional coordinates (direct lattice)
     0.750000000  0.750000000  0.750000000
     0.000000000  0.000000000  0.000000000

  ion indices of the primitive-cell ions
   primitive index   ion index
                 1           1
                 2           2

----------------------------------------------------------------------------------------



 KPOINTS: # Generated by Masgent for EOS calculati

Automatic generation of k-mesh.
 Grid dimensions read from file:
 generate k-points for:    5    5    5

 Generating k-lattice:

  Cartesian coordinates                     Fractional coordinates (reciprocal lattice)
     0.036739701 -0.000000000  0.000000000     0.200000000  0.000000000  0.000000000
     0.000000000  0.036739701  0.000000000     0.000000000  0.200000000  0.000000000
    -0.000000000 -0.000000000  0.036739701     0.000000000 -0.000000000  0.200000000

  Length of vectors
     0.036739701  0.036739701  0.036739701

  Shift w.r.t. Gamma in fractional coordinates (k-lattice)
     0.000000000  0.000000000  0.000000000

 
 Subroutine IBZKPT returns following result:
 ===========================================
 
 Found     10 irreducible k-points:
 
 Following reciprocal coordinates:
            Coordinates               Weight
  0.000000  0.000000  0.000000      1.000000
  0.200000  0.000000  0.000000      6.000000
  0.400000  0.000000  0.000000      6.000000
  0.200000  0.200000  0.000000     12.000000
  0.400000  0.200000  0.000000     24.000000
  0.400000  0.400000  0.000000     12.000000
  0.200000  0.200000  0.200000      8.000000
  0.400000  0.200000  0.200000     24.000000
  0.400000  0.400000  0.200000     24.000000
  0.400000  0.400000  0.400000      8.000000
 
 Following cartesian coordinates:
            Coordinates               Weight
  0.000000  0.000000  0.000000      1.000000
  0.036740  0.000000  0.000000      6.000000
  0.073479  0.000000  0.000000      6.000000
  0.036740  0.036740  0.000000     12.000000
  0.073479  0.036740  0.000000     24.000000
  0.073479  0.073479  0.000000     12.000000
  0.036740  0.036740  0.036740      8.000000
  0.073479  0.036740  0.036740     24.000000
  0.073479  0.073479  0.036740     24.000000
  0.073479  0.073479  0.073479      8.000000
 


--------------------------------------------------------------------------------------------------------




 Dimension of arrays:
   k-points           NKPTS =     10   k-points in BZ     NKDIM =     10   number of bands    NBANDS=     24
   number of dos      NEDOS =    301   number of ions     NIONS =      8
   non local maximal  LDIM  =      4   non local SUM 2l+1 LMDIM =      8
   total plane-waves  NPLWV =  64000
   max r-space proj   IRMAX =      1   max aug-charges    IRDMAX=  13463
   dimension x,y,z NGX =    40 NGY =   40 NGZ =   40
   dimension x,y,z NGXF=    80 NGYF=   80 NGZF=   80
   support grid    NGXF=    80 NGYF=   80 NGZF=   80
   ions per type =               8
   NGX,Y,Z   is equivalent  to a cutoff of  12.22, 12.22, 12.22 a.u.
   NGXF,Y,Z  is equivalent  to a cutoff of  24.43, 24.43, 24.43 a.u.

 SYSTEM =  unknown system                          
 POSCAR =  # Generated by Masgent for EOS calculati

 Startparameter for this run:
   NWRITE =      2    write-flag & timer
   PREC   = accura    normal or accurate (medium, high low for compatibility)
   ISTART =      0    job   : 0-new  1-cont  2-samecut
   ICHARG =      2    charge: 1-file 2-atom 10-const
   ISPIN  =      1    spin polarized calculation?
   LNONCOLLINEAR =      F non collinear calculations
   LSORBIT =      F    spin-orbit coupling
   INIWAV =      1    electr: 0-lowe 1-rand  2-diag
   LASPH  =      T    aspherical Exc in radial PAW
 Electronic Relaxation 1
   ENCUT  =  520.0 eV  38.22 Ry    6.18 a.u.  10.12 10.12 10.12*2*pi/ulx,y,z
   ENINI  =  520.0     initial cutoff
   ENAUG  =  322.1 eV  augmentation charge cutoff
   NELM   =    100;   NELMIN=  2; NELMDL=  0     # of ELM steps 
   EDIFF  = 0.1E-05   stopping-criterion for ELM
   LREAL  =      F    real-space projection
   NLSPLINE    = F    spline interpolate recip. space projectors
   LCOMPAT=      F    compatible to vasp.4.4
   GGA_COMPAT  = T    GGA compatible to vasp.4.4-vasp.4.6
   LMAXPAW     = -100 max onsite density
   LMAXMIX     =    2 max onsite mixed and CHGCAR
   VOSKOWN=      0    Vosko Wilk Nusair interpolation
   ROPT   =    0.00000
 Ionic relaxation
   EDIFFG = 0.1E-04   stopping-criterion for IOM
   NSW    =      0    number of steps for IOM
   NBLOCK =      1;   KBLOCK =      1    inner block; outer block 
   IBRION =     -1    ionic relax: 0-MD 1-quasi-New 2-CG
   NFREE  =      0    steps in history (QN), initial steepest desc. (CG)
   ISIF   =      2    stress and relaxation
   IWAVPR =     10    prediction:  0-non 1-charg 2-wave 3-comb
   ISYM   =      2    0-nonsym 1-usesym 2-fastsym
   LCORR  =      T    Harris-Foulkes like correction to forces

   POTIM  = 0.5000    time-step for ionic-motion
   TEIN   =    0.0    initial temperature
   TEBEG  =    0.0;   TEEND  =   0.0 temperature during run
   SMASS  =  -3.00    Nose mass-parameter (am)
   estimated Nose-frequenzy (Omega)   =  0.10E-29 period in steps = 0.13E+47 mass=  -0.677E-27a.u.
   SCALEE = 1.0000    scale energy and forces
   NPACO  =    256;   APACO  = 16.0  distance and # of slots for P.C.
   PSTRESS=    0.0 pullay stress

  Mass of Ions in am
   POMASS =  28.09
  Ionic Valenz
   ZVAL   =   4.00
  Atomic Wigner-Seitz radii
   RWIGS  =  -1.00
  virtual crystal weights 
   VCA    =   1.00
   NELECT =      32.0000    total number of electrons
   NUPDOWN=      -1.0000    fix difference up-down

 DOS related values:
   EMIN   =  10.00;   EMAX   =-10.00  energy-range for DOS
   EFERMI =   0.00
   ISMEAR =     1;   SIGMA  =   0.20  broadening in eV -4-tet -1-fermi 0-gaus

 Electronic relaxation 2 (details)
   IALGO  =     68    algorithm
   LDIAG  =      T    sub-space diagonalisation (order eigenvalues)
   LSUBROT=      F    optimize rotation matrix (better conditioning)
   TURBO    =      0    0=normal 1=particle mesh
   IRESTART =      0    0=no restart 2=restart with 2 vectors
   NREBOOT  =      0    no. of reboots
   NMIN     =      0    reboot dimension
   EREF     =   0.00    reference energy to select bands
   IMIX   =      4    mixing-type and parameters
     AMIX     =   0.40;   BMIX     =  1.00
     AMIX_MAG =   1.60;   BMIX_MAG =  1.00
     AMIN     =   0.10
     WC   =   100.;   INIMIX=   1;  MIXPRE=   1;  MAXMIX= -45

 Intra band minimization:
   WEIMIN = 0.0000     energy-eigenvalue tresh-hold
   EBREAK =  0.10E-07  absolut break condition
   DEPER  =   0.30     relativ break condition  

   TIME   =   0.40     timestep for ELM

  volume/ion in A,a.u.               =      20.16       136.08
  Fermi-wavevector in a.u.,A,eV,Ry     =   0.954766  1.804247 12.402783  0.911579
  Thomas-Fermi vector in A             =   2.083543

 Write flags
   LWAVE        =      F    write WAVECAR
   LDOWNSAMPLE  =      F    k-point downsampling of WAVECAR
   LCHARG       =      F    write CHGCAR
   LVTOT        =      F    write LOCPOT, total local potential
   LVHAR        =      F    write LOCPOT, Hartree potential only
   LELF         =      F    write electronic localiz. function (ELF)
   LORBIT       =      0    0 simple, 1 ext, 2 COOP (PROOUT), +10 PAW based schemes


 Dipole corrections
   LMONO  =      F    monopole corrections only (constant potential shift)
   LDIPOL =      F    correct potential (dipole corrections)
   IDIPOL =      0    1-x, 2-y, 3-z, 4-all directions 
   EPSILON=  1.0000000 bulk dielectric constant

 Exchange correlation treatment:
   GGA     =    --    GGA type
   LEXCH   =     8    internal setting for exchange type
   VOSKOWN=      0    Vosko Wilk Nusair interpolation
   LHFCALC =     F    Hartree Fock is set to
   LHFONE  =     F    Hartree Fock one center treatment
   AEXX    =    0.0000 exact exchange contribution

 Linear response parameters
   LEPSILON=     F    determine dielectric tensor
   LRPA    =     F    only Hartree local field effects (RPA)
   LNABLA  =     F    use nabla operator in PAW spheres
   LVEL    =     F    velocity operator in full k-point grid
   LINTERFAST=   F  fast interpolation
   KINTER  =     0    interpolate to denser k-point grid
   CSHIFT  =0.1000    complex shift for real part using Kramers Kronig
   OMEGAMAX=  -1.0    maximum frequency
   DEG_THRESHOLD= 0.2000000E-02 threshold for treating states as degnerate
   RTIME   =   -0.100 relaxation time in fs
  (WPLASMAI=    0.000 imaginary part of plasma frequency in eV, 0.658/RTIME)
   DFIELD  = 0.0000000 0.0000000 0.0000000 field for delta impulse in time

 Orbital magnetization related:
   ORBITALMAG=     F  switch on orbital magnetization
   LCHIMAG   =     F  perturbation theory with respect to B field
   DQ        =  0.001000  dq finite difference perturbation B field
   LLRAUG    =     F  two centre corrections for induced B field



--------------------------------------------------------------------------------------------------------


 Static calculation
 charge density and potential will be updated during run
 non-spin polarized calculation
 RMM-DIIS sequential band-by-band and
  variant of blocked Davidson during initial phase
 perform sub-space diagonalisation
    before iterative eigenvector-optimisation
 modified Broyden-mixing scheme, WC =      100.0
 initial mixing is a Kerker type mixing with AMIX =  0.4000 and BMIX =      1.0000
 Hartree-type preconditioning will be used
 using additional bands            8
 reciprocal scheme for non local part
 use partial core corrections
 calculate Harris-corrections to forces   (improved forces if not selfconsistent)
 use gradient corrections 
 use of overlap-Matrix (Vanderbilt PP)
 Methfessel and Paxton  Order N= 1 SIGMA  =   0.20


--------------------------------------------------------------------------------------------------------


  energy-cutoff  :      520.00
  volume of cell :      161.32
      direct lattice vectors                 reciprocal lattice vectors
     5.443702373  0.000000000  0.000000000     0.183698507 -0.000000000  0.000000000
     0.000000000  5.443702373  0.000000000     0.000000000  0.183698507  0.000000000
     0.000000000  0.000000000  5.443702373    -0.000000000 -0.000000000  0.183698507

  length of vectors
     5.443702373  5.443702373  5.443702373     0.183698507  0.183698507  0.183698507



 k-points in units of 2pi/SCALE and weight: # Generated by Masgent for EOS calculati
   0.00000000  0.00000000  0.00000000       0.008
   0.03673970  0.00000000  0.00000000       0.048
   0.07347940  0.00000000  0.00000000       0.048
   0.03673970  0.03673970  0.00000000       0.096
   0.07347940  0.03673970  0.00000000       0.192
   0.07347940  0.07347940  0.00000000       0.096
   0.03673970  0.03673970  0.03673970       0.064
   0.07347940  0.03673970  0.03673970       0.192
   0.07347940  0.07347940  0.03673970       0.192
   0.07347940  0.07347940  0.07347940       0.064

 k-points in reciprocal lattice and weights: # Generated by Masgent for EOS calculati
   0.00000000  0.00000000  0.00000000       0.008
   0.20000000  0.00000000  0.00000000       0.048
   0.40000000  0.00000000  0.00000000       0.048
   0.20000000  0.20000000  0.00000000       0.096
   0.40000000  0.20000000  0.00000000       0.192
   0.40000000  0.40000000  0.00000000       0.096
   0.20000000  0.20000000  0.20000000       0.064
   0.40000000  0.20000000  0.20000000       0.192
   0.40000000  0.40000000  0.20000000       0.192
   0.40000000  0.40000000  0.40000000       0.064

 position of ions in fractional coordinates (direct lattice) 
   0.75000000  0.75000000  0.25000000
   0.00000000  0.50000000  0.50000000
   0.75000000  0.25000000  0.75000000
   0.00000000  0.00000000  0.00000000
   0.25000000  0.75000000  0.75000000
   0.50000000  0.50000000  0.00000000
   0.25000000  0.25000000  0.25000000
   0.50000000  0.00000000  0.50000000

 position of ions in cartesian coordinates  (Angst):
   4.08277678  4.08277678  1.36092559
   0.00000000  2.72185119  2.72185119
   4.08277678  1.36092559  4.08277678
   0.00000000  0.00000000  0.00000000
   1.36092559  4.08277678  4.08277678
   2.72185119  2.72185119  0.00000000
   1.36092559  1.36092559  1.36092559
   2.72185119  0.00000000  2.72185119



--------------------------------------------------------------------------------------------------------


 k-point   1 :   0.0000 0.0000 0.0000  plane waves:    4385
 k-point   2 :   0.2000 0.0000 0.0000  plane waves:    4348
 k-point   3 :   0.4000 0.0000 0.0000  plane waves:    4332
 k-point   4 :   0.2000 0.2000 0.0000  plane waves:    4336
 k-point   5 :   0.4000 0.2000 0.0000  plane waves:    4325
 k-point   6 :   0.4000 0.4000 0.0000  plane waves:    4358
 k-point   7 :   0.2000 0.2000 0.2000  plane waves:    4353
 k-point   8 :   0.4000 0.2000 0.2000  plane waves:    4356
 k-point   9 :   0.4000 0.4000 0.2000  plane waves:    4345
 k-point  10 :   0.4000 0.4000 0.4000  plane waves:    4365

 maximum and minimum number of plane-waves per node :      4385     4325

 maximum number of plane-waves:      4385
 maximum index in each direction: 
   IXMAX=   10   IYMAX=   10   IZMAX=   10
   IXMIN=  -10   IYMIN=  -10   IZMIN=  -10


 serial   3D FFT for wavefunctions
 parallel 3D FFT for charge:
    minimum data exchange during FFTs selected (reduces bandwidth)


 total amount of memory used by VASP MPI-rank0    51159. kBytes
=======================================================================

   base      :      30000. kBytes
   nonl-proj :       3369. kBytes
   fftplans  :       4661. kBytes
   grid      :       8832. kBytes
   one-center:         24. kBytes
   wavefun   :       4273. kBytes

     INWAV:  cpu time    0.0000: real time    0.0001
 Broyden mixing: mesh for mixing (old mesh)
   NGX = 21   NGY = 21   NGZ = 21
  (NGX  = 80   NGY  = 80   NGZ  = 80)
  gives a total of   9261 points

 initial charge density was supplied:
 charge density of overlapping atoms calculated
 number of electron      32.0000000 magnetization 
 keeping initial charge density in first step


--------------------------------------------------------------------------------------------------------


 Maximum index for augmentation-charges         3239 (set IRDMAX)


--------------------------------------------------------------------------------------------------------


 First call to EWALD:  gamma=   0.326
 Maximum number of real-space cells 3x 3x 3
 Maximum number of reciprocal cells 3x 3x 3

    FEWALD:  cpu time    0.0005: real time    0.0005


--------------------------------------- Iteration      1(   1)  ---------------------------------------


    POTLOK:  cpu time    0.0445: real time    0.0479
    SETDIJ:  cpu time    0.0521: real time    0.0522
     EDDAV:  cpu time    0.3517: real time    0.3517
       DOS:  cpu time    0.0003: real time    0.0003
    --------------------------------------------
      LOOP:  cpu time    0.4485: real time    0.4522

 eigenvalue-minimisations  :   480
 total energy-change (2. order) : 0.6720765E+02  (-0.1190061E+04)
 number of electron      32.0000000 magnetization 
 augmentation part       32.0000000 magnetization 

 Free energy of the ion-electron system (eV)
  ---------------------------------------------------
  alpha Z        PSCENC =        13.35520886
  Ewald energy   TEWEN  =      -911.95285848
  -Hartree energ DENC   =       -44.45938128
  -exchange      EXHF   =         0.00000000
  -V(xc)+E(xc)   XCENC  =       -74.52615969
  PAW double counting   =       263.82083246     -123.07410713
  entropy T*S    EENTRO =        -0.00740979
  eigenvalues    EBANDS =       119.52070988
  atomic energy  EATOM  =       824.53081094
  Solvation  Ediel_sol  =         0.00000000
  ---------------------------------------------------
  free energy    TOTEN  =        67.20764576 eV

  energy without entropy =       67.21505556  energy(sigma->0) =       67.21011570


--------------------------------------------------------------------------------------------------------




--------------------------------------- Iteration      1(   2)  ---------------------------------------


     EDDAV:  cpu time    0.4497: real time    0.4501
       DOS:  cpu time    0.0002: real time    0.0003
    --------------------------------------------
      LOOP:  cpu time    0.4500: real time    0.4504

 eigenvalue-minimisations  :   648
 total energy-change (2. order) :-0.1060397E+03  (-0.9732239E+02)
 number of electron      32.0000000 magnetization 
 augmentation part       32.0000000 magnetization 

 Free energy of the ion-electron system (eV)
  ---------------------------------------------------
  alpha Z        PSCENC =        13.35520886
  Ewald energy   TEWEN  =      -911.95285848
  -Hartree energ DENC   =       -44.45938128
  -exchange      EXHF   =         0.00000000
  -V(xc)+E(xc)   XCENC  =       -74.52615969
  PAW double counting   =       263.82083246     -123.07410713
  entropy T*S    EENTRO =         0.00028254
  eigenvalues    EBANDS =        13.47333258
  atomic energy  EATOM  =       824.53081094
  Solvation  Ediel_sol  =         0.00000000
  ---------------------------------------------------
  free energy    TOTEN  =       -38.83203920 eV

  energy without entropy =      -38.83232174  energy(sigma->0) =      -38.83213338


--------------------------------------------------------------------------------------------------------




--------------------------------------- Iteration      1(   3)  ---------------------------------------


     EDDAV:  cpu time    0.4396: real time    0.4399
       DOS:  cpu time    0.0002: real time    0.0003
    --------------------------------------------
      LOOP:  cpu time    0.4399: real time    0.4401

 eigenvalue-minimisations  :   632
 total energy-change (2. order) :-0.5166129E+01  (-0.5092206E+01)
 number of electron      32.0000000 magnetization 
 augmentation part       32.0000000 magnetization 

 Free energy of the ion-electron system (eV)
  ---------------------------------------------------
  alpha Z        PSCENC =        13.35520886
  Ewald energy   TEWEN  =      -911.95285848
  -Hartree energ DENC   =       -44.45938128
  -exchange      EXHF   =         0.00000000
  -V(xc)+E(xc)   XCENC  =       -74.52615969
  PAW double counting   =       263.82083246     -123.07410713
  entropy T*S    EENTRO =         0.00173981
  eigenvalues    EBANDS =         8.30574649
  atomic energy  EATOM  =       824.53081094
  Solvation  Ediel_sol  =         0.00000000
  ---------------------------------------------------
  free energy    TOTEN  =       -43.99816802 eV

  energy without entropy =      -43.99990783  energy(sigma->0) =      -43.99874796


--------------------------------------------------------------------------------------------------------




--------------------------------------- Iteration      1(   4)  ---------------------------------------


     EDDAV:  cpu time    0.4196: real time    0.4198
       DOS:  cpu time    0.0002: real time    0.0003
    --------------------------------------------
      LOOP:  cpu time    0.4199: real time    0.4201

 eigenvalue-minimisations  :   592
 total energy-change (2. order) :-0.9021468E-01  (-0.9008067E-01)
 number of electron      32.0000000 magnetization 
 augmentation part       32.0000000 magnetization 

 Free energy of the ion-electron system (eV)
  ---------------------------------------------------
  alpha Z        PSCENC =        13.35520886
  Ewald energy   TEWEN  =      -911.95285848
  -Hartree energ DENC   =       -44.45938128
  -exchange      EXHF   =         0.00000000
  -V(xc)+E(xc)   XCENC  =       -74.52615969
  PAW double counting   =       263.82083246     -123.07410713
  entropy T*S    EENTRO =         0.00178120
  eigenvalues    EBANDS =         8.21549043
  atomic energy  EATOM  =       824.53081094
  Solvation  Ediel_sol  =         0.00000000
  ---------------------------------------------------
  free energy    TOTEN  =       -44.08838270 eV

  energy without entropy =      -44.09016390  energy(sigma->0) =      -44.08897643


--------------------------------------------------------------------------------------------------------




--------------------------------------- Iteration      1(   5)  ---------------------------------------


     EDDAV:  cpu time    0.4282: real time    0.4284
       DOS:  cpu time    0.0002: real time    0.0003
    CHARGE:  cpu time    0.0513: real time    0.0514
    MIXING:  cpu time    0.0014: real time    0.0014
    --------------------------------------------
      LOOP:  cpu time    0.4812: real time    0.4815

 eigenvalue-minimisations  :   608
 total energy-change (2. order) :-0.2205796E-02  (-0.2203603E-02)
 number of electron      32.0000002 magnetization 
 augmentation part       -1.8812045 magnetization 

 Broyden mixing:
  rms(total) = 0.59847E+00    rms(broyden)= 0.59847E+00
  rms(prec ) = 0.11132E+01
  weight for this iteration     100.00

 Free energy of the ion-electron system (eV)
  ---------------------------------------------------
  alpha Z        PSCENC =        13.35520886
  Ewald energy   TEWEN  =      -911.95285848
  -Hartree energ DENC   =       -44.45938128
  -exchange      EXHF   =         0.00000000
  -V(xc)+E(xc)   XCENC  =       -74.52615969
  PAW double counting   =       263.82083246     -123.07410713
  entropy T*S    EENTRO =         0.00177924
  eigenvalues    EBANDS =         8.21328658
  atomic energy  EATOM  =       824.53081094
  Solvation  Ediel_sol  =         0.00000000
  ---------------------------------------------------
  free energy    TOTEN  =       -44.09058850 eV

  energy without entropy =      -44.09236774  energy(sigma->0) =      -44.09118158


--------------------------------------------------------------------------------------------------------




--------------------------------------- Iteration      1(   6)  ---------------------------------------


    POTLOK:  cpu time    0.0423: real time    0.0425
    SETDIJ:  cpu time    0.0529: real time    0.0529
    EDDIAG:  cpu time    0.0807: real time    0.0807
  RMM-DIIS:  cpu time    0.2740: real time    0.2740
    ORTHCH:  cpu time    0.0040: real time    0.0040
       DOS:  cpu time    0.0002: real time    0.0003
    CHARGE:  cpu time    0.0481: real time    0.0481
    MIXING:  cpu time    0.0009: real time    0.0009
    --------------------------------------------
      LOOP:  cpu time    0.5032: real time    0.5034

 eigenvalue-minimisations  :   481
 total energy-change (2. order) : 0.4885626E+00  (-0.2338643E-01)
 number of electron      32.0000002 magnetization 
 augmentation part       -1.8593566 magnetization 

 Broyden mixing:
  rms(total) = 0.35803E+00    rms(broyden)= 0.35803E+00
  rms(prec ) = 0.66264E+00
  weight for this iteration     100.00

 eigenvalues of (default mixing * dielectric matrix)
  average eigenvalue GAMMA=   2.4739
  2.4739

 Free energy of the ion-electron system (eV)
  ---------------------------------------------------
  alpha Z        PSCENC =        13.35520886
  Ewald energy   TEWEN  =      -911.95285848
  -Hartree energ DENC   =       -50.40536004
  -exchange      EXHF   =         0.00000000
  -V(xc)+E(xc)   XCENC  =       -73.58943160
  PAW double counting   =       279.37754806     -139.06243124
  entropy T*S    EENTRO =         0.00176892
  eigenvalues    EBANDS =        14.14271864
  atomic energy  EATOM  =       824.53081094
  Solvation  Ediel_sol  =         0.00000000
  ---------------------------------------------------
  free energy    TOTEN  =       -43.60202594 eV

  energy without entropy =      -43.60379485  energy(sigma->0) =      -43.60261558


--------------------------------------------------------------------------------------------------------




--------------------------------------- Iteration      1(   7)  ---------------------------------------


    POTLOK:  cpu time    0.0388: real time    0.0390
    SETDIJ:  cpu time    0.0518: real time    0.0518
    EDDIAG:  cpu time    0.0795: real time    0.0795
  RMM-DIIS:  cpu time    0.3040: real time    0.3040
    ORTHCH:  cpu time    0.0039: real time    0.0039
       DOS:  cpu time    0.0002: real time    0.0004
    CHARGE:  cpu time    0.0470: real time    0.0470
    MIXING:  cpu time    0.0010: real time    0.0010
    --------------------------------------------
      LOOP:  cpu time    0.5262: real time    0.5266

 eigenvalue-minimisations  :   508
 total energy-change (2. order) : 0.2260951E+00  (-0.5667377E-01)
 number of electron      32.0000002 magnetization 
 augmentation part       -1.8291270 magnetization 

 Broyden mixing:
  rms(total) = 0.30003E-01    rms(broyden)= 0.30003E-01
  rms(prec ) = 0.51920E-01
  weight for this iteration     100.00

 eigenvalues of (default mixing * dielectric matrix)
  average eigenvalue GAMMA=   2.7474
  2.7474  2.7474

 Free energy of the ion-electron system (eV)
  ---------------------------------------------------
  alpha Z        PSCENC =        13.35520886
  Ewald energy   TEWEN  =      -911.95285848
  -Hartree energ DENC   =       -60.27503372
  -exchange      EXHF   =         0.00000000
  -V(xc)+E(xc)   XCENC  =       -72.00955897
  PAW double counting   =       300.48930470     -160.74460684
  entropy T*S    EENTRO =         0.00189774
  eigenvalues    EBANDS =        23.22890492
  atomic energy  EATOM  =       824.53081094
  Solvation  Ediel_sol  =         0.00000000
  ---------------------------------------------------
  free energy    TOTEN  =       -43.37593085 eV

  energy without entropy =      -43.37782858  energy(sigma->0) =      -43.37656343


--------------------------------------------------------------------------------------------------------




--------------------------------------- Iteration      1(   8)  ---------------------------------------


    POTLOK:  cpu time    0.0395: real time    0.0396
    SETDIJ:  cpu time    0.0518: real time    0.0518
    EDDIAG:  cpu time    0.0769: real time    0.0769
  RMM-DIIS:  cpu time    0.2959: real time    0.2959
    ORTHCH:  cpu time    0.0040: real time    0.0040
       DOS:  cpu time    0.0002: real time    0.0004
    CHARGE:  cpu time    0.0475: real time    0.0475
    MIXING:  cpu time    0.0009: real time    0.0009
    --------------------------------------------
      LOOP:  cpu time    0.5168: real time    0.5171

 eigenvalue-minimisations  :   506
 total energy-change (2. order) :-0.8784352E-02  (-0.5247259E-02)
 number of electron      32.0000002 magnetization 
 augmentation part       -1.8343944 magnetization 

 Broyden mixing:
  rms(total) = 0.83529E-02    rms(broyden)= 0.83529E-02
  rms(prec ) = 0.20169E-01
  weight for this iteration     100.00

 eigenvalues of (default mixing * dielectric matrix)
  average eigenvalue GAMMA=   2.1124
  2.7271  1.8051  1.8051

 Free energy of the ion-electron system (eV)
  ---------------------------------------------------
  alpha Z        PSCENC =        13.35520886
  Ewald energy   TEWEN  =      -911.95285848
  -Hartree energ DENC   =       -59.75119354
  -exchange      EXHF   =         0.00000000
  -V(xc)+E(xc)   XCENC  =       -72.03042726
  PAW double counting   =       295.38417677     -155.48116064
  entropy T*S    EENTRO =         0.00181933
  eigenvalues    EBANDS =        22.55890882
  atomic energy  EATOM  =       824.53081094
  Solvation  Ediel_sol  =         0.00000000
  ---------------------------------------------------
  free energy    TOTEN  =       -43.38471520 eV

  energy without entropy =      -43.38653453  energy(sigma->0) =      -43.38532164


--------------------------------------------------------------------------------------------------------




--------------------------------------- Iteration      1(   9)  ---------------------------------------


    POTLOK:  cpu time    0.0381: real time    0.0383
    SETDIJ:  cpu time    0.0518: real time    0.0518
    EDDIAG:  cpu time    0.0774: real time    0.0774
  RMM-DIIS:  cpu time    0.3080: real time    0.3080
    ORTHCH:  cpu time    0.0041: real time    0.0041
       DOS:  cpu time    0.0003: real time    0.0004
    CHARGE:  cpu time    0.0472: real time    0.0472
    MIXING:  cpu time    0.0011: real time    0.0011
    --------------------------------------------
      LOOP:  cpu time    0.5279: real time    0.5283

 eigenvalue-minimisations  :   551
 total energy-change (2. order) :-0.1122629E-02  (-0.1403703E-02)
 number of electron      32.0000002 magnetization 
 augmentation part       -1.8327386 magnetization 

 Broyden mixing:
  rms(total) = 0.81448E-02    rms(broyden)= 0.81448E-02
  rms(prec ) = 0.13372E-01
  weight for this iteration     100.00

 eigenvalues of (default mixing * dielectric matrix)
  average eigenvalue GAMMA=   2.1468
  2.9574  2.9574  0.9321  1.7403

 Free energy of the ion-electron system (eV)
  ---------------------------------------------------
  alpha Z        PSCENC =        13.35520886
  Ewald energy   TEWEN  =      -911.95285848
  -Hartree energ DENC   =       -60.15600950
  -exchange      EXHF   =         0.00000000
  -V(xc)+E(xc)   XCENC  =       -71.97457487
  PAW double counting   =       296.60501433     -156.73777458
  entropy T*S    EENTRO =         0.00183179
  eigenvalues    EBANDS =        22.94251367
  atomic energy  EATOM  =       824.53081094
  Solvation  Ediel_sol  =         0.00000000
  ---------------------------------------------------
  free energy    TOTEN  =       -43.38583783 eV

  energy without entropy =      -43.38766962  energy(sigma->0) =      -43.38644842


--------------------------------------------------------------------------------------------------------




--------------------------------------- Iteration      1(  10)  ---------------------------------------


    POTLOK:  cpu time    0.0411: real time    0.0413
    SETDIJ:  cpu time    0.0519: real time    0.0519
    EDDIAG:  cpu time    0.0772: real time    0.0772
  RMM-DIIS:  cpu time    0.2901: real time    0.2901
    ORTHCH:  cpu time    0.0041: real time    0.0041
       DOS:  cpu time    0.0003: real time    0.0004
    CHARGE:  cpu time    0.0471: real time    0.0471
    MIXING:  cpu time    0.0010: real time    0.0010
    --------------------------------------------
      LOOP:  cpu time    0.5126: real time    0.5130

 eigenvalue-minimisations  :   526
 total energy-change (2. order) :-0.3909405E-03  (-0.3271608E-03)
 number of electron      32.0000002 magnetization 
 augmentation part       -1.8344347 magnetization 

 Broyden mixing:
  rms(total) = 0.48240E-02    rms(broyden)= 0.48240E-02
  rms(prec ) = 0.98715E-02
  weight for this iteration     100.00

 eigenvalues of (default mixing * dielectric matrix)
  average eigenvalue GAMMA=   2.0494
  3.3089  2.7266  2.2703  1.0896  0.8518

 Free energy of the ion-electron system (eV)
  ---------------------------------------------------
  alpha Z        PSCENC =        13.35520886
  Ewald energy   TEWEN  =      -911.95285848
  -Hartree energ DENC   =       -59.89127085
  -exchange      EXHF   =         0.00000000
  -V(xc)+E(xc)   XCENC  =       -72.00790221
  PAW double counting   =       295.66761720     -155.77347336
  entropy T*S    EENTRO =         0.00181400
  eigenvalues    EBANDS =        22.68382513
  atomic energy  EATOM  =       824.53081094
  Solvation  Ediel_sol  =         0.00000000
  ---------------------------------------------------
  free energy    TOTEN  =       -43.38622877 eV

  energy without entropy =      -43.38804277  energy(sigma->0) =      -43.38683344


--------------------------------------------------------------------------------------------------------




--------------------------------------- Iteration      1(  11)  ---------------------------------------


    POTLOK:  cpu time    0.0413: real time    0.0415
    SETDIJ:  cpu time    0.0527: real time    0.0527
    EDDIAG:  cpu time    0.0833: real time    0.0833
  RMM-DIIS:  cpu time    0.3005: real time    0.3006
    ORTHCH:  cpu time    0.0045: real time    0.0045
       DOS:  cpu time    0.0002: real time    0.0003
    CHARGE:  cpu time    0.0488: real time    0.0488
    MIXING:  cpu time    0.0012: real time    0.0012
    --------------------------------------------
      LOOP:  cpu time    0.5325: real time    0.5328

 eigenvalue-minimisations  :   566
 total energy-change (2. order) :-0.1802776E-05  (-0.9515899E-04)
 number of electron      32.0000002 magnetization 
 augmentation part       -1.8339942 magnetization 

 Broyden mixing:
  rms(total) = 0.43193E-03    rms(broyden)= 0.43192E-03
  rms(prec ) = 0.60464E-03
  weight for this iteration     100.00

 eigenvalues of (default mixing * dielectric matrix)
  average eigenvalue GAMMA=   2.0959
  3.8284  2.8206  2.3691  1.7695  0.8939  0.8939

 Free energy of the ion-electron system (eV)
  ---------------------------------------------------
  alpha Z        PSCENC =        13.35520886
  Ewald energy   TEWEN  =      -911.95285848
  -Hartree energ DENC   =       -60.05079462
  -exchange      EXHF   =         0.00000000
  -V(xc)+E(xc)   XCENC  =       -71.98709795
  PAW double counting   =       296.25763800     -156.38126403
  entropy T*S    EENTRO =         0.00182000
  eigenvalues    EBANDS =        22.84030671
  atomic energy  EATOM  =       824.53081094
  Solvation  Ediel_sol  =         0.00000000
  ---------------------------------------------------
  free energy    TOTEN  =       -43.38623057 eV

  energy without entropy =      -43.38805057  energy(sigma->0) =      -43.38683724


--------------------------------------------------------------------------------------------------------




--------------------------------------- Iteration      1(  12)  ---------------------------------------


    POTLOK:  cpu time    0.0426: real time    0.0428
    SETDIJ:  cpu time    0.0519: real time    0.0519
    EDDIAG:  cpu time    0.0800: real time    0.0800
  RMM-DIIS:  cpu time    0.3128: real time    0.3128
    ORTHCH:  cpu time    0.0039: real time    0.0039
       DOS:  cpu time    0.0002: real time    0.0004
    CHARGE:  cpu time    0.0465: real time    0.0465
    MIXING:  cpu time    0.0010: real time    0.0010
    --------------------------------------------
      LOOP:  cpu time    0.5389: real time    0.5393

 eigenvalue-minimisations  :   582
 total energy-change (2. order) :-0.2398783E-04  (-0.2235293E-04)
 number of electron      32.0000002 magnetization 
 augmentation part       -1.8341945 magnetization 

 Broyden mixing:
  rms(total) = 0.41322E-03    rms(broyden)= 0.41322E-03
  rms(prec ) = 0.59476E-03
  weight for this iteration     100.00

 eigenvalues of (default mixing * dielectric matrix)
  average eigenvalue GAMMA=   2.1528
  4.6827  2.6434  0.8547  1.0388  1.8670  1.8670  2.1162

 Free energy of the ion-electron system (eV)
  ---------------------------------------------------
  alpha Z        PSCENC =        13.35520886
  Ewald energy   TEWEN  =      -911.95285848
  -Hartree energ DENC   =       -60.05511391
  -exchange      EXHF   =         0.00000000
  -V(xc)+E(xc)   XCENC  =       -71.98709247
  PAW double counting   =       296.27664378     -156.40127328
  entropy T*S    EENTRO =         0.00182005
  eigenvalues    EBANDS =        22.84559996
  atomic energy  EATOM  =       824.53081094
  Solvation  Ediel_sol  =         0.00000000
  ---------------------------------------------------
  free energy    TOTEN  =       -43.38625456 eV

  energy without entropy =      -43.38807461  energy(sigma->0) =      -43.38686124


--------------------------------------------------------------------------------------------------------




--------------------------------------- Iteration      1(  13)  ---------------------------------------


    POTLOK:  cpu time    0.0410: real time    0.0411
    SETDIJ:  cpu time    0.0519: real time    0.0519
    EDDIAG:  cpu time    0.0806: real time    0.0806
  RMM-DIIS:  cpu time    0.3042: real time    0.3042
    ORTHCH:  cpu time    0.0041: real time    0.0041
       DOS:  cpu time    0.0002: real time    0.0004
    CHARGE:  cpu time    0.0461: real time    0.0461
    MIXING:  cpu time    0.0010: real time    0.0010
    --------------------------------------------
      LOOP:  cpu time    0.5291: real time    0.5294

 eigenvalue-minimisations  :   546
 total energy-change (2. order) :-0.1825299E-05  (-0.5497039E-05)
 number of electron      32.0000002 magnetization 
 augmentation part       -1.8342307 magnetization 

 Broyden mixing:
  rms(total) = 0.51666E-03    rms(broyden)= 0.51666E-03
  rms(prec ) = 0.87157E-03
  weight for this iteration     100.00

 eigenvalues of (default mixing * dielectric matrix)
  average eigenvalue GAMMA=   1.9157
  3.3833  3.0751  2.6198  2.3697  0.9320  0.8875  1.0289  1.0289

 Free energy of the ion-electron system (eV)
  ---------------------------------------------------
  alpha Z        PSCENC =        13.35520886
  Ewald energy   TEWEN  =      -911.95285848
  -Hartree energ DENC   =       -60.05548383
  -exchange      EXHF   =         0.00000000
  -V(xc)+E(xc)   XCENC  =       -71.98774528
  PAW double counting   =       296.22761641     -156.35158137
  entropy T*S    EENTRO =         0.00181909
  eigenvalues    EBANDS =        22.84595727
  atomic energy  EATOM  =       824.53081094
  Solvation  Ediel_sol  =         0.00000000
  ---------------------------------------------------
  free energy    TOTEN  =       -43.38625638 eV

  energy without entropy =      -43.38807548  energy(sigma->0) =      -43.38686275


--------------------------------------------------------------------------------------------------------




--------------------------------------- Iteration      1(  14)  ---------------------------------------


    POTLOK:  cpu time    0.0377: real time    0.0379
    SETDIJ:  cpu time    0.0519: real time    0.0519
    EDDIAG:  cpu time    0.0795: real time    0.0795
  RMM-DIIS:  cpu time    0.2910: real time    0.2911
    ORTHCH:  cpu time    0.0040: real time    0.0040
       DOS:  cpu time    0.0003: real time    0.0004
    CHARGE:  cpu time    0.0465: real time    0.0465
    MIXING:  cpu time    0.0010: real time    0.0010
    --------------------------------------------
      LOOP:  cpu time    0.5120: real time    0.5124

 eigenvalue-minimisations  :   503
 total energy-change (2. order) :-0.2130957E-05  (-0.1058072E-05)
 number of electron      32.0000002 magnetization 
 augmentation part       -1.8342730 magnetization 

 Broyden mixing:
  rms(total) = 0.22523E-03    rms(broyden)= 0.22523E-03
  rms(prec ) = 0.40352E-03
  weight for this iteration     100.00

 eigenvalues of (default mixing * dielectric matrix)
  average eigenvalue GAMMA=   1.7141
  3.4585  2.9717  2.6039  2.3723  0.9139  0.9139  1.0141  1.0141  0.1644

 Free energy of the ion-electron system (eV)
  ---------------------------------------------------
  alpha Z        PSCENC =        13.35520886
  Ewald energy   TEWEN  =      -911.95285848
  -Hartree energ DENC   =       -60.05099369
  -exchange      EXHF   =         0.00000000
  -V(xc)+E(xc)   XCENC  =       -71.98820000
  PAW double counting   =       296.21713376     -156.34051480
  entropy T*S    EENTRO =         0.00181966
  eigenvalues    EBANDS =        22.84133523
  atomic energy  EATOM  =       824.53081094
  Solvation  Ediel_sol  =         0.00000000
  ---------------------------------------------------
  free energy    TOTEN  =       -43.38625851 eV

  energy without entropy =      -43.38807817  energy(sigma->0) =      -43.38686507


--------------------------------------------------------------------------------------------------------




--------------------------------------- Iteration      1(  15)  ---------------------------------------


    POTLOK:  cpu time    0.0376: real time    0.0377
    SETDIJ:  cpu time    0.0519: real time    0.0519
    EDDIAG:  cpu time    0.0767: real time    0.0767
  RMM-DIIS:  cpu time    0.2388: real time    0.2388
    ORTHCH:  cpu time    0.0040: real time    0.0040
       DOS:  cpu time    0.0002: real time    0.0003
    --------------------------------------------
      LOOP:  cpu time    0.4091: real time    0.4093

 eigenvalue-minimisations  :   404
 total energy-change (2. order) :-0.1545340E-06  (-0.2893035E-06)
 number of electron      32.0000002 magnetization 
 augmentation part       -1.8342730 magnetization 

 Free energy of the ion-electron system (eV)
  ---------------------------------------------------
  alpha Z        PSCENC =        13.35520886
  Ewald energy   TEWEN  =      -911.95285848
  -Hartree energ DENC   =       -60.04953335
  -exchange      EXHF   =         0.00000000
  -V(xc)+E(xc)   XCENC  =       -71.98845206
  PAW double counting   =       296.21346550     -156.33680989
  entropy T*S    EENTRO =         0.00181964
  eigenvalues    EBANDS =        22.84009017
  atomic energy  EATOM  =       824.53081094
  Solvation  Ediel_sol  =         0.00000000
  ---------------------------------------------------
  free energy    TOTEN  =       -43.38625867 eV

  energy without entropy =      -43.38807831  energy(sigma->0) =      -43.38686522


--------------------------------------------------------------------------------------------------------




 average (electrostatic) potential at core
  the test charge radii are     0.9892
  (the norm of the test charge is              1.0000)
       1 -83.3288       2 -83.3288       3 -83.3288       4 -83.3288       5 -83.3288
       6 -83.3288       7 -83.3288       8 -83.3288



 E-fermi :   5.8553     XC(G=0):  -9.3807     alpha+bet :-11.8943

 Fermi energy:         5.8553307524

 k-point     1 :       0.0000    0.0000    0.0000
  band No.  band energies     occupation 
      1      -6.1542      2.00000
      2      -2.0360      2.00000
      3      -2.0360      2.00000
      4      -2.0360      2.00000
      5      -2.0360      2.00000
      6      -2.0360      2.00000
      7      -2.0360      2.00000
      8       2.9240      2.00000
      9       2.9240      2.00000
     10       2.9240      2.00000
     11       2.9240      2.00000
     12       2.9240      2.00000
     13       2.9240      2.00000
     14       5.7540      1.74733
     15       5.7540      1.74733
     16       5.7540      1.74733
     17       6.4789     -0.00010
     18       6.4789     -0.00010
     19       6.4789     -0.00010
     20       6.4789     -0.00010
     21       6.4789     -0.00010
     22       6.4789     -0.00010
     23       8.3166     -0.00000
     24       8.3166     -0.00000

 k-point     2 :       0.2000    0.0000    0.0000
  band No.  band energies     occupation 
      1      -5.9804      2.00000
      2      -3.4588      2.00000
      3      -1.9838      2.00000
      4      -1.9838      2.00000
      5      -1.9838      2.00000
      6      -1.9838      2.00000
      7      -0.4073      2.00000
      8       2.5195      2.00000
      9       2.5195      2.00000
     10       2.5195      2.00000
     11       2.5195      2.00000
     12       3.0805      2.00000
     13       3.0805      2.00000
     14       4.8110      2.00000
     15       5.1832      2.00002
     16       5.1832      2.00002
     17       6.3482     -0.00271
     18       7.0787     -0.00000
     19       7.3257     -0.00000
     20       7.3257     -0.00000
     21       7.3257     -0.00000
     22       7.3257     -0.00000
     23       7.9401     -0.00000
     24       9.1006     -0.00000

 k-point     3 :       0.4000    0.0000    0.0000
  band No.  band energies     occupation 
      1      -5.4630      2.00000
      2      -4.6144      2.00000
      3      -1.8921      2.00000
      4      -1.8921      2.00000
      5      -1.8921      2.00000
      6      -1.8921      2.00000
      7       1.3448      2.00000
      8       2.0118      2.00000
      9       2.0118      2.00000
     10       2.0118      2.00000
     11       2.0118      2.00000
     12       3.1288      2.00000
     13       3.5425      2.00000
     14       3.5425      2.00000
     15       4.2788      2.00000
     16       4.2788      2.00000
     17       6.6264     -0.00000
     18       7.2220     -0.00000
     19       8.1767     -0.00000
     20       9.1839     -0.00000
     21       9.1839     -0.00000
     22       9.1839     -0.00000
     23       9.1839     -0.00000
     24       9.6330     -0.00000

 k-point     4 :       0.2000    0.2000    0.0000
  band No.  band energies     occupation 
      1      -5.8088      2.00000
      2      -3.3416      2.00000
      3      -3.3416      2.00000
      4      -2.2641      2.00000
      5      -1.6596      2.00000
      6      -0.4928      2.00000
      7      -0.4928      2.00000
      8       1.7248      2.00000
      9       2.5617      2.00000
     10       2.5617      2.00000
     11       2.8862      2.00000
     12       2.8862      2.00000
     13       3.1982      2.00000
     14       3.7265      2.00000
     15       4.6047      2.00000
     16       5.5781      2.06452
     17       6.7958     -0.00000
     18       7.2459     -0.00000
     19       7.2459     -0.00000
     20       7.8369     -0.00000
     21       7.8369     -0.00000
     22       8.6743     -0.00000
     23       8.7195     -0.00000
     24       8.8657     -0.00000

 k-point     5 :       0.4000    0.2000    0.0000
  band No.  band energies     occupation 
      1      -5.2988      2.00000
      2      -4.4659      2.00000
      3      -3.0240      2.00000
      4      -2.6160      2.00000
      5      -1.2350      2.00000
      6      -0.7886      2.00000
      7       0.9922      2.00000
      8       1.4545      2.00000
      9       1.8080      2.00000
     10       2.3867      2.00000
     11       2.7880      2.00000
     12       2.9696      2.00000
     13       3.0635      2.00000
     14       3.6856      2.00000
     15       3.6912      2.00000
     16       4.7893      2.00000
     17       7.5356     -0.00000
     18       7.9229     -0.00000
     19       8.1023     -0.00000
     20       8.8174     -0.00000
     21       9.1457     -0.00000
     22       9.4608     -0.00000
     23       9.5275     -0.00000
     24      10.1954     -0.00000

 k-point     6 :       0.4000    0.4000    0.0000
  band No.  band energies     occupation 
      1      -4.8140      2.00000
      2      -4.0359      2.00000
      3      -4.0359      2.00000
      4      -3.3803      2.00000
      5      -0.5397      2.00000
      6       0.2422      2.00000
      7       0.2422      2.00000
      8       1.2909      2.00000
      9       1.5246      2.00000
     10       2.0993      2.00000
     11       2.0993      2.00000
     12       2.7785      2.00000
     13       3.9525      2.00000
     14       3.9791      2.00000
     15       3.9791      2.00000
     16       4.9145      2.00000
     17       7.6669     -0.00000
     18       8.6349     -0.00000
     19       8.9295     -0.00000
     20       8.9295     -0.00000
     21       9.4073     -0.00000
     22       9.4073     -0.00000
     23       9.7395     -0.00000
     24      10.0512     -0.00000

 k-point     7 :       0.2000    0.2000    0.2000
  band No.  band energies     occupation 
      1      -5.6400      2.00000
      2      -3.2609      2.00000
      3      -3.2609      2.00000
      4      -3.2609      2.00000
      5      -0.6541      2.00000
      6      -0.6541      2.00000
      7      -0.6541      2.00000
      8       2.0992      2.00000
      9       2.0992      2.00000
     10       2.0992      2.00000
     11       2.7566      2.00000
     12       3.3452      2.00000
     13       3.3452      2.00000
     14       3.3452      2.00000
     15       5.1793      2.00002
     16       5.1793      2.00002
     17       6.9937     -0.00000
     18       6.9937     -0.00000
     19       6.9937     -0.00000
     20       7.9534     -0.00000
     21       9.1121     -0.00000
     22       9.1215     -0.00000
     23       9.1338     -0.00000
     24       9.1338     -0.00000

 k-point     8 :       0.4000    0.2000    0.2000
  band No.  band energies     occupation 
      1      -5.1397      2.00000
      2      -4.3294      2.00000
      3      -3.1066      2.00000
      4      -3.1066      2.00000
      5      -0.9571      2.00000
      6      -0.9571      2.00000
      7       0.4637      2.00000
      8       1.5578      2.00000
      9       1.9484      2.00000
     10       1.9484      2.00000
     11       3.1481      2.00000
     12       3.3050      2.00000
     13       3.3050      2.00000
     14       3.7738      2.00000
     15       4.4342      2.00000
     16       4.4869      2.00000
     17       7.5339     -0.00000
     18       8.0985     -0.00000
     19       8.0985     -0.00000
     20       8.1229     -0.00000
     21       9.1292     -0.00000
     22       9.8372     -0.00000
     23      10.0394     -0.00000
     24      10.1134     -0.00000

 k-point     9 :       0.4000    0.4000    0.2000
  band No.  band energies     occupation 
      1      -4.6746      2.00000
      2      -3.9504      2.00000
      3      -3.9504      2.00000
      4      -3.4534      2.00000
      5      -0.9173      2.00000
      6      -0.3657      2.00000
      7      -0.3657      2.00000
      8       0.4852      2.00000
      9       2.3451      2.00000
     10       2.8725      2.00000
     11       2.8725      2.00000
     12       3.7229      2.00000
     13       4.0534      2.00000
     14       4.0706      2.00000
     15       4.0706      2.00000
     16       4.8497      2.00000
     17       7.8131     -0.00000
     18       8.1512     -0.00000
     19       8.4999     -0.00000
     20       8.4999     -0.00000
     21       9.0370     -0.00000
     22       9.0370     -0.00000
     23       9.3689     -0.00000
     24       9.4484     -0.00000

 k-point    10 :       0.4000    0.4000    0.4000
  band No.  band energies     occupation 
      1      -4.2877      2.00000
      2      -3.7865      2.00000
      3      -3.7865      2.00000
      4      -3.7865      2.00000
      5      -1.0342      2.00000
      6      -1.0342      2.00000
      7      -1.0342      2.00000
      8      -0.4862      2.00000
      9       3.7892      2.00000
     10       3.7892      2.00000
     11       3.7892      2.00000
     12       4.3194      2.00000
     13       4.3194      2.00000
     14       4.3194      2.00000
     15       4.6349      2.00000
     16       4.6349      2.00000
     17       7.3514     -0.00000
     18       7.8878     -0.00000
     19       7.8878     -0.00000
     20       7.8878     -0.00000
     21       9.0677     -0.00000
     22       9.0677     -0.00000
     23       9.0687     -0.00000
     24       9.1721     -0.00000


--------------------------------------------------------------------------------------------------------


 soft charge-density along one line, spin component           1
         0         1         2         3         4         5         6         7         8         9
 total charge-density along one line

 pseudopotential strength for first ion, spin component:           1
 18.422  -0.001  -0.000  -0.000   0.000   0.000   0.000  -0.000
 -0.001   0.006   0.000   0.000  -0.000  -0.000  -0.000   0.000
 -0.000   0.000   4.179   0.000  -0.000  -0.005  -0.000   0.000
 -0.000   0.000   0.000   4.179   0.000  -0.000  -0.005  -0.000
  0.000  -0.000  -0.000   0.000   4.179   0.000  -0.000  -0.005
  0.000  -0.000  -0.005  -0.000   0.000   0.005  -0.000  -0.000
  0.000  -0.000  -0.000  -0.005  -0.000  -0.000   0.005  -0.000
 -0.000   0.000   0.000  -0.000  -0.005  -0.000  -0.000   0.005
 total augmentation occupancy for first ion, spin component:           1
  1.493  -0.778  -0.000  -0.000   0.000   0.000   0.000   0.000
 -0.778   0.773   0.000  -0.000  -0.000  -0.000  -0.000  -0.000
  0.000   0.000   1.026   0.000   0.000  -0.558  -0.000  -0.000
  0.000  -0.000   0.000   1.026   0.000  -0.000  -0.558  -0.000
  0.000  -0.000   0.000   0.000   1.026  -0.000  -0.000  -0.558
  0.000   0.000  -0.558  -0.000  -0.000   0.359   0.000   0.000
 -0.000  -0.000  -0.000  -0.558  -0.000   0.000   0.359   0.000
 -0.000   0.000  -0.000  -0.000  -0.558   0.000   0.000   0.359


------------------------ aborting loop because EDIFF is reached ----------------------------------------


    CHARGE:  cpu time    0.0478: real time    0.0478
    FORLOC:  cpu time    0.0022: real time    0.0022
    FORNL :  cpu time    0.0980: real time    0.0980
    STRESS:  cpu time    0.1780: real time    0.1780
    FORCOR:  cpu time    0.0390: real time    0.0390
    FORHAR:  cpu time    0.0102: real time    0.0102
    MIXING:  cpu time    0.0011: real time    0.0011
    OFIELD:  cpu time    0.0000: real time    0.0000

  FORCE on cell =-STRESS in cart. coord.  units (eV):
  Direction    XX          YY          ZZ          XY          YZ          ZX
  --------------------------------------------------------------------------------------
  Alpha Z    13.35521    13.35521    13.35521
  Ewald    -303.98480  -303.98480  -303.98480    -0.00000     0.00000     0.00000
  Hartree    20.01412    20.01412    20.01412    -0.00000    -0.00000    -0.00000
  E(xc)    -101.30523  -101.30523  -101.30523    -0.00000    -0.00000    -0.00000
  Local    -117.27315  -117.27315  -117.27315    -0.00000     0.00000     0.00000
  n-local   310.76953   313.85665   307.74696    -3.21261    -1.95760    -1.58753
  augment   -46.60087   -46.60087   -46.60087    -0.00000     0.00000     0.00000
  Kinetic   219.56299   230.25629   228.97515    -4.20307    -4.21917    -2.68001
  Fock        0.00000     0.00000     0.00000     0.00000     0.00000     0.00000
  -------------------------------------------------------------------------------------
  Total       1.26114     1.26114     1.26114     0.00000    -0.00000    -0.00000
  in kB      12.52533    12.52533    12.52533     0.00000    -0.00000    -0.00000
  external pressure =       12.53 kB  Pullay stress =        0.00 kB


 VOLUME and BASIS-vectors are now :
 -----------------------------------------------------------------------------
  energy-cutoff  :      520.00
  volume of cell :      161.32
      direct lattice vectors                 reciprocal lattice vectors
     5.443702373  0.000000000  0.000000000     0.183698507 -0.000000000  0.000000000
     0.000000000  5.443702373  0.000000000     0.000000000  0.183698507  0.000000000
     0.000000000  0.000000000  5.443702373    -0.000000000 -0.000000000  0.183698507

  length of vectors
     5.443702373  5.443702373  5.443702373     0.183698507  0.183698507  0.183698507


 FORCES acting on ions
    electron-ion (+dipol)            ewald-force                    non-local-force                 convergence-correction
 -----------------------------------------------------------------------------------------------
   -.163E-13 0.691E-13 -.361E-12   0.142E-13 0.711E-14 -.142E-13   -.532E-16 0.265E-16 -.217E-16   0.248E-14 0.215E-15 -.125E-14
   0.457E-14 0.571E-14 0.183E-13   0.951E-14 0.726E-14 0.213E-13   0.384E-16 -.139E-16 0.252E-16   0.354E-14 0.495E-15 -.392E-14
   -.137E-13 -.491E-12 0.233E-12   0.000E+00 0.000E+00 -.355E-14   -.471E-16 0.416E-16 -.199E-16   0.242E-14 -.687E-15 0.126E-15
   0.137E-13 -.257E-14 0.102E-13   -.324E-14 -.202E-17 0.315E-13   0.263E-16 -.265E-16 0.217E-16   0.352E-14 0.201E-15 -.387E-14
   -.117E-13 0.129E-12 0.376E-13   -.355E-14 0.000E+00 -.320E-13   -.480E-16 0.126E-16 -.269E-16   0.107E-14 0.705E-15 0.146E-16
   0.176E-13 -.183E-12 -.125E-12   -.354E-14 -.396E-15 0.311E-14   0.454E-16 -.278E-16 0.269E-16   0.155E-14 0.495E-15 -.360E-14
   -.131E-13 0.611E-13 0.201E-13   -.107E-13 -.711E-14 -.213E-13   0.240E-16 0.260E-16 -.130E-16   0.903E-15 -.268E-15 -.125E-14
   0.189E-13 -.293E-14 -.351E-12   -.107E-13 -.710E-14 0.142E-13   -.205E-16 -.126E-16 0.165E-16   0.148E-14 0.106E-15 -.340E-14
 -----------------------------------------------------------------------------------------------
   0.280E-28 -.414E-12 -.517E-12   -.794E-14 -.238E-15 -.884E-15   -.347E-16 0.260E-16 0.867E-17   0.170E-13 0.126E-14 -.171E-13


 POSITION                                       TOTAL-FORCE (eV/Angst)
 -----------------------------------------------------------------------------------
      4.08278      4.08278      1.36093         0.000000      0.000000      0.000000
      0.00000      2.72185      2.72185        -0.000000     -0.000000     -0.000000
      4.08278      1.36093      4.08278         0.000000     -0.000000      0.000000
      0.00000      0.00000      0.00000        -0.000000     -0.000000     -0.000000
      1.36093      4.08278      4.08278         0.000000      0.000000      0.000000
      2.72185      2.72185      0.00000        -0.000000     -0.000000     -0.000000
      1.36093      1.36093      1.36093         0.000000      0.000000      0.000000
      2.72185      0.00000      2.72185        -0.000000     -0.000000     -0.000000
 -----------------------------------------------------------------------------------
    total drift:                                0.000000     -0.000000     -0.000000


--------------------------------------------------------------------------------------------------------



  FREE ENERGIE OF THE ION-ELECTRON SYSTEM (eV)
  ---------------------------------------------------
  free  energy   TOTEN  =       -43.38625867 eV

  energy  without entropy=      -43.38807831  energy(sigma->0) =      -43.38686522



--------------------------------------------------------------------------------------------------------


    POTLOK:  cpu time    0.0931: real time    0.0931


--------------------------------------------------------------------------------------------------------


 stress matrix after NEB project (eV)
      1.26114      0.00000     -0.00000
      0.00000      1.26114     -0.00000
      0.00000     -0.00000      1.26114
  FORCES: max atom, RMS     0.000000    0.000000
  FORCE total and by dimension    0.000000    0.000000
  Stress total and by dimension    2.184350    1.261135
     LOOP+:  cpu time    7.8719: real time    7.8822
    4ORBIT:  cpu time    0.0000: real time    0.0000

 total amount of memory used by VASP MPI-rank0    51159. kBytes
=======================================================================

   base      :      30000. kBytes
   nonl-proj :       3369. kBytes
   fftplans  :       4661. kBytes
   grid      :       8832. kBytes
   one-center:         24. kBytes
   wavefun   :       4273. kBytes

  
  
 General timing and accounting informations for this job:
 ========================================================
  
                  Total CPU time used (sec):        8.558
                            User time (sec):        8.110
                          System time (sec):        0.448
                         Elapsed time (sec):        8.622
  
                   Maximum memory used (kb):       58736.
                   Average memory used (kb):          N/A
  
                          Minor page faults:        71401
                          Major page faults:          422
                 Voluntary context switches:          930
