 running on    4 total cores
 distrk:  each k-point on    4 cores,    1 groups
 distr:  one band on    1 cores,    4 groups
 vasp.6.2.1 16May21 (build Aug 15 2022 14:47:30) complex                         
 POSCAR found type information on POSCAR Si
 POSCAR found :  1 types and       8 ions
 scaLAPACK will be used
 LDA part: xc-table for Pade appr. of Perdew
 POSCAR found type information on POSCAR Si
 POSCAR found :  1 types and       8 ions
 POSCAR, INCAR and KPOINTS ok, starting setup
 FFT: planning ...
 WAVECAR not read
 WARNING: random wavefunctions but no delay for mixing, default for NELMDL
 entering main loop
       N       E                     dE             d eps       ncg     rms          rms(c)
DAV:   1     0.672076457644E+02    0.67208E+02   -0.11901E+04   480   0.108E+03
DAV:   2    -0.388320391997E+02   -0.10604E+03   -0.97322E+02   648   0.156E+02
DAV:   3    -0.439981680245E+02   -0.51661E+01   -0.50922E+01   632   0.322E+01
DAV:   4    -0.440883827006E+02   -0.90215E-01   -0.90081E-01   592   0.533E+00
DAV:   5    -0.440905884964E+02   -0.22058E-02   -0.22036E-02   608   0.749E-01    0.598E+00
RMM:   6    -0.436020259371E+02    0.48856E+00   -0.23386E-01   481   0.190E+00    0.358E+00
RMM:   7    -0.433759308464E+02    0.22610E+00   -0.56674E-01   508   0.311E+00    0.300E-01
RMM:   8    -0.433847151985E+02   -0.87844E-02   -0.52473E-02   506   0.111E+00    0.835E-02
RMM:   9    -0.433858378271E+02   -0.11226E-02   -0.14037E-02   551   0.516E-01    0.814E-02
RMM:  10    -0.433862287676E+02   -0.39094E-03   -0.32716E-03   526   0.287E-01    0.482E-02
RMM:  11    -0.433862305704E+02   -0.18028E-05   -0.95159E-04   566   0.157E-01    0.432E-03
RMM:  12    -0.433862545583E+02   -0.23988E-04   -0.22353E-04   582   0.816E-02    0.413E-03
RMM:  13    -0.433862563836E+02   -0.18253E-05   -0.54970E-05   546   0.395E-02    0.517E-03
RMM:  14    -0.433862585145E+02   -0.21310E-05   -0.10581E-05   503   0.181E-02    0.225E-03
RMM:  15    -0.433862586690E+02   -0.15453E-06   -0.28930E-06   404   0.901E-03
   1 F= -.43386259E+02 E0= -.43386865E+02  d E =0.181964E-02
