   8   8   0   0
  0.1976147E+02  0.5407166E-09  0.5407166E-09  0.5407166E-09  0.5000000E-15
   1.0000000000000000E-004
  CAR 
 unknown system                          
     12.49051250     -8.08858703  301      6.06239201      1.00000000
     -8.089  0.0000E+00  0.0000E+00
     -8.020  0.0000E+00  0.0000E+00
     -7.951  0.0000E+00  0.0000E+00
     -7.883  0.0000E+00  0.0000E+00
     -7.814  0.0000E+00  0.0000E+00
     -7.746 -0.8423E-30 -0.5778E-31
     -7.677 -0.2101E-27 -0.1447E-28
     -7.608 -0.4148E-25 -0.2860E-26
     -7.540 -0.6456E-23 -0.4457E-24
     -7.471 -0.7921E-21 -0.5478E-22
     -7.403 -0.7659E-19 -0.5308E-20
     -7.334 -0.5833E-17 -0.4054E-18
     -7.265 -0.3369E-15 -0.2351E-16
     -7.197 -0.1598E-13 -0.1119E-14
     -7.128 -0.5903E-12 -0.4161E-13
     -7.060 -0.1712E-10 -0.1216E-11
     -6.991 -0.3891E-09 -0.2790E-10
     -6.922 -0.6921E-08 -0.5026E-09
     -6.854 -0.9613E-07 -0.7097E-08
     -6.785 -0.1040E-05 -0.7842E-07
     -6.717 -0.8725E-05 -0.6770E-06
     -6.648 -0.5656E-04 -0.4556E-05
     -6.579 -0.2814E-03 -0.2386E-04
     -6.511 -0.1067E-02 -0.9707E-04
     -6.442 -0.3050E-02 -0.3063E-03
     -6.374 -0.6448E-02 -0.7486E-03
     -6.305 -0.9552E-02 -0.1404E-02
     -6.236 -0.7278E-02 -0.1903E-02
     -6.168  0.1016E-01 -0.1206E-02
     -6.099  0.5914E-01  0.2851E-02
     -6.031  0.1591E+00  0.1377E-01
     -5.962  0.3189E+00  0.3564E-01
     -5.893  0.5267E+00  0.7177E-01
     -5.825  0.7510E+00  0.1233E+00
     -5.756  0.9340E+00  0.1874E+00
     -5.688  0.1004E+01  0.2562E+00
     -5.619  0.9312E+00  0.3201E+00
     -5.550  0.7652E+00  0.3726E+00
     -5.482  0.6110E+00  0.4145E+00
     -5.413  0.6048E+00  0.4560E+00
     -5.345  0.8681E+00  0.5155E+00
     -5.276  0.1395E+01  0.6112E+00
     -5.208  0.1986E+01  0.7475E+00
     -5.139  0.2361E+01  0.9094E+00
     -5.070  0.2314E+01  0.1068E+01
     -5.002  0.1817E+01  0.1193E+01
     -4.933  0.1083E+01  0.1267E+01
     -4.865  0.5239E+00  0.1303E+01
     -4.796  0.4753E+00  0.1336E+01
     -4.727  0.9408E+00  0.1400E+01
     -4.659  0.1622E+01  0.1511E+01
     -4.590  0.2150E+01  0.1659E+01
     -4.522  0.2342E+01  0.1820E+01
     -4.453  0.2339E+01  0.1980E+01
     -4.384  0.2429E+01  0.2147E+01
     -4.316  0.2659E+01  0.2329E+01
     -4.247  0.2723E+01  0.2516E+01
     -4.179  0.2326E+01  0.2675E+01
     -4.110  0.1667E+01  0.2790E+01
     -4.041  0.1454E+01  0.2890E+01
     -3.973  0.2215E+01  0.3042E+01
     -3.904  0.3592E+01  0.3288E+01
     -3.836  0.4562E+01  0.3601E+01
     -3.767  0.4443E+01  0.3906E+01
     -3.698  0.3424E+01  0.4141E+01
     -3.630  0.2118E+01  0.4286E+01
     -3.561  0.1036E+01  0.4357E+01
     -3.493  0.5866E+00  0.4397E+01
     -3.424  0.1080E+01  0.4471E+01
     -3.355  0.2384E+01  0.4635E+01
     -3.287  0.3798E+01  0.4895E+01
     -3.218  0.4576E+01  0.5209E+01
     -3.150  0.4622E+01  0.5526E+01
     -3.081  0.4515E+01  0.5836E+01
     -3.012  0.4687E+01  0.6157E+01
     -2.944  0.4773E+01  0.6485E+01
     -2.875  0.4068E+01  0.6764E+01
     -2.807  0.2544E+01  0.6938E+01
     -2.738  0.9817E+00  0.7006E+01
     -2.669  0.1819E+00  0.7018E+01
     -2.601  0.3229E+00  0.7040E+01
     -2.532  0.9732E+00  0.7107E+01
     -2.464  0.1462E+01  0.7207E+01
     -2.395  0.1376E+01  0.7302E+01
     -2.326  0.8766E+00  0.7362E+01
     -2.258  0.4626E+00  0.7394E+01
     -2.189  0.4015E+00  0.7421E+01
     -2.121  0.5445E+00  0.7458E+01
     -2.052  0.7051E+00  0.7507E+01
     -1.983  0.1014E+01  0.7576E+01
     -1.915  0.1700E+01  0.7693E+01
     -1.846  0.2586E+01  0.7870E+01
     -1.778  0.3083E+01  0.8082E+01
     -1.709  0.2809E+01  0.8275E+01
     -1.640  0.2017E+01  0.8413E+01
     -1.572  0.1273E+01  0.8500E+01
     -1.503  0.8319E+00  0.8557E+01
     -1.435  0.5385E+00  0.8594E+01
     -1.366  0.2396E+00  0.8611E+01
     -1.297  0.4670E-01  0.8614E+01
     -1.229  0.1758E+00  0.8626E+01
     -1.160  0.6682E+00  0.8672E+01
     -1.092  0.1361E+01  0.8765E+01
     -1.023  0.2175E+01  0.8914E+01
     -0.954  0.3282E+01  0.9139E+01
     -0.886  0.4681E+01  0.9461E+01
     -0.817  0.5744E+01  0.9855E+01
     -0.749  0.5705E+01  0.1025E+02
     -0.680  0.4623E+01  0.1056E+02
     -0.612  0.3382E+01  0.1080E+02
     -0.543  0.2767E+01  0.1098E+02
     -0.474  0.2969E+01  0.1119E+02
     -0.406  0.3820E+01  0.1145E+02
     -0.337  0.4938E+01  0.1179E+02
     -0.269  0.5635E+01  0.1218E+02
     -0.200  0.5208E+01  0.1253E+02
     -0.131  0.3627E+01  0.1278E+02
     -0.063  0.1694E+01  0.1290E+02
      0.006  0.3068E+00  0.1292E+02
      0.074 -0.2740E+00  0.1290E+02
      0.143 -0.3266E+00  0.1288E+02
      0.212 -0.1234E+00  0.1287E+02
      0.280  0.2894E+00  0.1289E+02
      0.349  0.8901E+00  0.1295E+02
      0.417  0.1549E+01  0.1306E+02
      0.486  0.2201E+01  0.1321E+02
      0.555  0.2875E+01  0.1340E+02
      0.623  0.3341E+01  0.1363E+02
      0.692  0.3110E+01  0.1385E+02
      0.760  0.2079E+01  0.1399E+02
      0.829  0.8221E+00  0.1405E+02
      0.898  0.1087E-02  0.1405E+02
      0.966 -0.1642E+00  0.1404E+02
      1.035  0.2069E+00  0.1405E+02
      1.103  0.8557E+00  0.1411E+02
      1.172  0.1377E+01  0.1420E+02
      1.241  0.1410E+01  0.1430E+02
      1.309  0.1062E+01  0.1437E+02
      1.378  0.9181E+00  0.1444E+02
      1.446  0.1441E+01  0.1453E+02
      1.515  0.2462E+01  0.1470E+02
      1.584  0.3362E+01  0.1493E+02
      1.652  0.3679E+01  0.1519E+02
      1.721  0.3433E+01  0.1542E+02
      1.789  0.2980E+01  0.1563E+02
      1.858  0.2722E+01  0.1581E+02
      1.927  0.2984E+01  0.1602E+02
      1.995  0.3935E+01  0.1629E+02
      2.064  0.5353E+01  0.1665E+02
      2.132  0.6478E+01  0.1710E+02
      2.201  0.6434E+01  0.1754E+02
      2.270  0.5039E+01  0.1789E+02
      2.338  0.3138E+01  0.1810E+02
      2.407  0.1986E+01  0.1824E+02
      2.475  0.2216E+01  0.1839E+02
      2.544  0.3380E+01  0.1862E+02
      2.613  0.4409E+01  0.1892E+02
      2.681  0.4480E+01  0.1923E+02
      2.750  0.3707E+01  0.1949E+02
      2.818  0.3162E+01  0.1970E+02
      2.887  0.3933E+01  0.1997E+02
      2.956  0.5911E+01  0.2038E+02
      3.024  0.7758E+01  0.2091E+02
      3.093  0.8232E+01  0.2147E+02
      3.161  0.7376E+01  0.2198E+02
      3.230  0.6240E+01  0.2241E+02
      3.299  0.5728E+01  0.2280E+02
      3.367  0.5902E+01  0.2321E+02
      3.436  0.6100E+01  0.2362E+02
      3.504  0.5505E+01  0.2400E+02
      3.573  0.3945E+01  0.2427E+02
      3.641  0.2319E+01  0.2443E+02
      3.710  0.1969E+01  0.2457E+02
      3.779  0.3481E+01  0.2481E+02
      3.847  0.5987E+01  0.2522E+02
      3.916  0.7718E+01  0.2575E+02
      3.984  0.7619E+01  0.2627E+02
      4.053  0.6461E+01  0.2671E+02
      4.122  0.5829E+01  0.2711E+02
      4.190  0.6083E+01  0.2753E+02
      4.259  0.6093E+01  0.2795E+02
      4.327  0.5055E+01  0.2829E+02
      4.396  0.3640E+01  0.2854E+02
      4.465  0.2981E+01  0.2875E+02
      4.533  0.3283E+01  0.2897E+02
      4.602  0.3878E+01  0.2924E+02
      4.670  0.4110E+01  0.2952E+02
      4.739  0.3822E+01  0.2978E+02
      4.808  0.3321E+01  0.3001E+02
      4.876  0.3114E+01  0.3022E+02
      4.945  0.3455E+01  0.3046E+02
      5.013  0.3950E+01  0.3073E+02
      5.082  0.3846E+01  0.3100E+02
      5.151  0.2921E+01  0.3120E+02
      5.219  0.1842E+01  0.3132E+02
      5.288  0.1393E+01  0.3142E+02
      5.356  0.1553E+01  0.3152E+02
      5.425  0.1640E+01  0.3164E+02
      5.494  0.1230E+01  0.3172E+02
      5.562  0.5939E+00  0.3176E+02
      5.631  0.2435E+00  0.3178E+02
      5.699  0.3466E+00  0.3180E+02
      5.768  0.6505E+00  0.3185E+02
      5.837  0.8117E+00  0.3190E+02
      5.905  0.7074E+00  0.3195E+02
      5.974  0.4557E+00  0.3198E+02
      6.042  0.2190E+00  0.3200E+02
      6.111  0.6455E-01  0.3200E+02
      6.180 -0.1733E-01  0.3200E+02
      6.248 -0.4788E-01  0.3200E+02
      6.317 -0.2446E-01  0.3200E+02
      6.385  0.7905E-01  0.3200E+02
      6.454  0.2703E+00  0.3202E+02
      6.523  0.4917E+00  0.3205E+02
      6.591  0.6449E+00  0.3210E+02
      6.660  0.6800E+00  0.3214E+02
      6.728  0.6446E+00  0.3219E+02
      6.797  0.6340E+00  0.3223E+02
      6.866  0.7025E+00  0.3228E+02
      6.934  0.8414E+00  0.3234E+02
      7.003  0.1047E+01  0.3241E+02
      7.071  0.1346E+01  0.3250E+02
      7.140  0.1678E+01  0.3262E+02
      7.209  0.1873E+01  0.3275E+02
      7.277  0.1937E+01  0.3288E+02
      7.346  0.2178E+01  0.3303E+02
      7.414  0.2743E+01  0.3322E+02
      7.483  0.3292E+01  0.3344E+02
      7.552  0.3492E+01  0.3368E+02
      7.620  0.3525E+01  0.3392E+02
      7.689  0.3654E+01  0.3417E+02
      7.757  0.3664E+01  0.3443E+02
      7.826  0.3315E+01  0.3465E+02
      7.895  0.3023E+01  0.3486E+02
      7.963  0.3467E+01  0.3510E+02
      8.032  0.4643E+01  0.3542E+02
      8.100  0.5927E+01  0.3582E+02
      8.169  0.6972E+01  0.3630E+02
      8.237  0.7928E+01  0.3685E+02
      8.306  0.8597E+01  0.3744E+02
      8.375  0.8133E+01  0.3799E+02
      8.443  0.6111E+01  0.3841E+02
      8.512  0.3443E+01  0.3865E+02
      8.580  0.1694E+01  0.3876E+02
      8.649  0.1618E+01  0.3888E+02
      8.718  0.2607E+01  0.3905E+02
      8.786  0.3514E+01  0.3930E+02
      8.855  0.3802E+01  0.3956E+02
      8.923  0.3747E+01  0.3981E+02
      8.992  0.3773E+01  0.4007E+02
      9.061  0.4116E+01  0.4035E+02
      9.129  0.5111E+01  0.4071E+02
      9.198  0.7104E+01  0.4119E+02
      9.266  0.9642E+01  0.4185E+02
      9.335  0.1120E+02  0.4262E+02
      9.404  0.1047E+02  0.4334E+02
      9.472  0.8037E+01  0.4389E+02
      9.541  0.6001E+01  0.4430E+02
      9.609  0.5685E+01  0.4469E+02
      9.678  0.6280E+01  0.4512E+02
      9.747  0.6125E+01  0.4554E+02
      9.815  0.4732E+01  0.4587E+02
      9.884  0.3051E+01  0.4608E+02
      9.952  0.2098E+01  0.4622E+02
     10.021  0.1928E+01  0.4635E+02
     10.090  0.2044E+01  0.4649E+02
     10.158  0.2301E+01  0.4665E+02
     10.227  0.2908E+01  0.4685E+02
     10.295  0.3716E+01  0.4711E+02
     10.364  0.4119E+01  0.4739E+02
     10.433  0.3749E+01  0.4765E+02
     10.501  0.2808E+01  0.4784E+02
     10.570  0.1711E+01  0.4796E+02
     10.638  0.7715E+00  0.4801E+02
     10.707  0.1638E+00  0.4802E+02
     10.776 -0.8945E-01  0.4801E+02
     10.844 -0.1137E+00  0.4801E+02
     10.913 -0.6431E-01  0.4800E+02
     10.981 -0.2417E-01  0.4800E+02
     11.050 -0.6579E-02  0.4800E+02
     11.119 -0.1341E-02  0.4800E+02
     11.187 -0.2083E-03  0.4800E+02
     11.256 -0.2490E-04  0.4800E+02
     11.324 -0.2305E-05  0.4800E+02
     11.393 -0.1660E-06  0.4800E+02
     11.462 -0.9337E-08  0.4800E+02
     11.530 -0.4108E-09  0.4800E+02
     11.599 -0.1417E-10  0.4800E+02
     11.667 -0.3828E-12  0.4800E+02
     11.736 -0.8701E-14  0.4800E+02
     11.805  0.0000E+00  0.4800E+02
     11.873  0.0000E+00  0.4800E+02
     11.942  0.0000E+00  0.4800E+02
     12.010  0.0000E+00  0.4800E+02
     12.079  0.0000E+00  0.4800E+02
     12.148  0.0000E+00  0.4800E+02
     12.216  0.0000E+00  0.4800E+02
     12.285  0.0000E+00  0.4800E+02
     12.353  0.0000E+00  0.4800E+02
     12.422  0.0000E+00  0.4800E+02
     12.491  0.0000E+00  0.4800E+02
