    8    8    1    1
  0.1976147E+02  0.5407166E-09  0.5407166E-09  0.5407166E-09  0.5000000E-15
   1.0000000000000000E-004
  CAR 
 unknown system                          
     32     10     24

  0.1262379E-14  0.1262379E-14  0.1262379E-14  0.8000000E-02
    1       -6.088587   1.000000
    2       -1.896508   1.000000
    3       -1.896508   1.000000
    4       -1.896508   1.000000
    5       -1.896508   1.000000
    6       -1.896508   1.000000
    7       -1.896508   1.000000
    8        3.075619   1.000000
    9        3.075619   1.000000
   10        3.075619   1.000000
   11        3.075619   1.000000
   12        3.075619   1.000000
   13        3.075619   1.000000
   14        5.959048   0.879142
   15        5.959048   0.879142
   16        5.959048   0.879142
   17        6.643397  -0.000157
   18        6.643397  -0.000157
   19        6.643397  -0.000157
   20        6.643397  -0.000157
   21        6.643397  -0.000157
   22        6.643397  -0.000157
   23        8.529763  -0.000000
   24        8.529763  -0.000000

  0.2000000E+00  0.1262379E-14  0.1262379E-14  0.4800000E-01
    1       -5.911757   1.000000
    2       -3.345114   1.000000
    3       -1.841555   1.000000
    4       -1.841555   1.000000
    5       -1.841555   1.000000
    6       -1.841555   1.000000
    7       -0.238916   1.000000
    8        2.657206   1.000000
    9        2.657206   1.000000
   10        2.657206   1.000000
   11        2.657206   1.000000
   12        3.234635   1.000000
   13        3.234635   1.000000
   14        5.033439   1.000000
   15        5.374341   1.000006
   16        5.374341   1.000006
   17        6.517576  -0.002970
   18        7.245692  -0.000000
   19        7.508274  -0.000000
   20        7.508274  -0.000000
   21        7.508274  -0.000000
   22        7.508274  -0.000000
   23        8.146288  -0.000000
   24        9.331137  -0.000000

  0.4000000E+00  0.1262379E-14  0.1262379E-14  0.4800000E-01
    1       -5.385185   1.000000
    2       -4.521567   1.000000
    3       -1.744447   1.000000
    4       -1.744447   1.000000
    5       -1.744447   1.000000
    6       -1.744447   1.000000
    7        1.541412   1.000000
    8        2.133191   1.000000
    9        2.133191   1.000000
   10        2.133191   1.000000
   11        2.133191   1.000000
   12        3.346753   1.000000
   13        3.703992   1.000000
   14        3.703992   1.000000
   15        4.452682   1.000000
   16        4.452682   1.000000
   17        6.805499  -0.000001
   18        7.414345  -0.000000
   19        8.359175  -0.000000
   20        9.394231  -0.000000
   21        9.394231  -0.000000
   22        9.394231  -0.000000
   23        9.394231  -0.000000
   24        9.869299  -0.000000

  0.2000000E+00  0.2000000E+00  0.1262379E-14  0.9600000E-01
    1       -5.737097   1.000000
    2       -3.224673   1.000000
    3       -3.224673   1.000000
    4       -2.121514   1.000000
    5       -1.515411   1.000000
    6       -0.324657   1.000000
    7       -0.324657   1.000000
    8        1.840321   1.000000
    9        2.701207   1.000000
   10        2.701207   1.000000
   11        3.030591   1.000000
   12        3.030591   1.000000
   13        3.355075   1.000000
   14        3.929222   1.000000
   15        4.782538   1.000000
   16        5.782346   1.031764
   17        6.967385  -0.000000
   18        7.433585  -0.000000
   19        7.433585  -0.000000
   20        8.020515  -0.000000
   21        8.020515  -0.000000
   22        8.892428  -0.000000
   23        8.992815  -0.000000
   24        9.089360  -0.000000

  0.4000000E+00  0.2000000E+00  0.1262379E-14  0.1920000E+00
    1       -5.217864   1.000000
    2       -4.369782   1.000000
    3       -2.897904   1.000000
    4       -2.478777   1.000000
    5       -1.083166   1.000000
    6       -0.626191   1.000000
    7        1.178852   1.000000
    8        1.563865   1.000000
    9        1.928073   1.000000
   10        2.581833   1.000000
   11        2.927117   1.000000
   12        3.116983   1.000000
   13        3.212394   1.000000
   14        3.849652   1.000000
   15        3.851613   1.000000
   16        4.980539   1.000000
   17        7.732672  -0.000000
   18        8.118012  -0.000000
   19        8.311819  -0.000000
   20        9.014756  -0.000000
   21        9.363455  -0.000000
   22        9.721989  -0.000000
   23        9.748399  -0.000000
   24       10.490512  -0.000000

  0.4000000E+00  0.4000000E+00  0.1262379E-14  0.9600000E-01
    1       -4.723737   1.000000
    2       -3.930191   1.000000
    3       -3.930191   1.000000
    4       -3.259547   1.000000
    5       -0.381655   1.000000
    6        0.412332   1.000000
    7        0.412332   1.000000
    8        1.470219   1.000000
    9        1.638727   1.000000
   10        2.227653   1.000000
   11        2.227653   1.000000
   12        2.920751   1.000000
   13        4.124406   1.000000
   14        4.149348   1.000000
   15        4.149348   1.000000
   16        5.106924   1.000000
   17        7.862005  -0.000000
   18        8.881508  -0.000000
   19        9.155381  -0.000000
   20        9.155381  -0.000000
   21        9.634498  -0.000000
   22        9.634498  -0.000000
   23        9.973468  -0.000000
   24       10.296684  -0.000000

  0.2000000E+00  0.2000000E+00  0.2000000E+00  0.6400000E-01
    1       -5.565178   1.000000
    2       -3.140563   1.000000
    3       -3.140563   1.000000
    4       -3.140563   1.000000
    5       -0.494079   1.000000
    6       -0.494079   1.000000
    7       -0.494079   1.000000
    8        2.227506   1.000000
    9        2.227506   1.000000
   10        2.227506   1.000000
   11        2.937344   1.000000
   12        3.504589   1.000000
   13        3.504589   1.000000
   14        3.504589   1.000000
   15        5.373816   1.000006
   16        5.373816   1.000006
   17        7.170329  -0.000000
   18        7.170329  -0.000000
   19        7.170329  -0.000000
   20        8.225680  -0.000000
   21        9.336842  -0.000000
   22        9.338077  -0.000000
   23        9.342727  -0.000000
   24        9.342727  -0.000000

  0.4000000E+00  0.2000000E+00  0.2000000E+00  0.1920000E+00
    1       -5.055624   1.000000
    2       -4.229990   1.000000
    3       -2.978850   1.000000
    4       -2.978850   1.000000
    5       -0.813888   1.000000
    6       -0.813888   1.000000
    7        0.627614   1.000000
    8        1.725969   1.000000
    9        2.080681   1.000000
   10        2.080681   1.000000
   11        3.310098   1.000000
   12        3.458458   1.000000
   13        3.458458   1.000000
   14        3.940571   1.000000
   15        4.613167   1.000000
   16        4.678257   1.000000
   17        7.727025  -0.000000
   18        8.298331  -0.000000
   19        8.298331  -0.000000
   20        8.356722  -0.000000
   21        9.384277  -0.000000
   22       10.055014  -0.000000
   23       10.269744  -0.000000
   24       10.346159  -0.000000

  0.4000000E+00  0.4000000E+00  0.2000000E+00  0.1920000E+00
    1       -4.580958   1.000000
    2       -3.841215   1.000000
    3       -3.841215   1.000000
    4       -3.331145   1.000000
    5       -0.787323   1.000000
    6       -0.225429   1.000000
    7       -0.225429   1.000000
    8        0.634437   1.000000
    9        2.491733   1.000000
   10        3.031699   1.000000
   11        3.031699   1.000000
   12        3.895458   1.000000
   13        4.227666   1.000000
   14        4.243676   1.000000
   15        4.243676   1.000000
   16        5.041584   1.000000
   17        8.016897  -0.000000
   18        8.422903  -0.000000
   19        8.734261  -0.000000
   20        8.734261  -0.000000
   21        9.250979  -0.000000
   22        9.250979  -0.000000
   23        9.580995  -0.000000
   24        9.661939  -0.000000

  0.4000000E+00  0.4000000E+00  0.4000000E+00  0.6400000E-01
    1       -4.184263   1.000000
    2       -3.669778   1.000000
    3       -3.669778   1.000000
    4       -3.669778   1.000000
    5       -0.917973   1.000000
    6       -0.917973   1.000000
    7       -0.917973   1.000000
    8       -0.359536   1.000000
    9        3.968670   1.000000
   10        3.968670   1.000000
   11        3.968670   1.000000
   12        4.500001   1.000000
   13        4.500001   1.000000
   14        4.500001   1.000000
   15        4.822841   1.000000
   16        4.822841   1.000000
   17        7.627644  -0.000000
   18        8.144486  -0.000000
   19        8.144486  -0.000000
   20        8.144486  -0.000000
   21        9.278429  -0.000000
   22        9.278430  -0.000000
   23        9.279421  -0.000000
   24        9.372293  -0.000000
