       N       E                     dE             d eps       ncg     rms          rms(c)
DAV:   1     0.718066232768E+02    0.71807E+02   -0.12182E+04   480   0.109E+03
DAV:   2    -0.390479961217E+02   -0.11085E+03   -0.10306E+03   656   0.156E+02
DAV:   3    -0.440065710697E+02   -0.49586E+01   -0.48948E+01   632   0.316E+01
DAV:   4    -0.440910825741E+02   -0.84512E-01   -0.84408E-01   568   0.524E+00
DAV:   5    -0.440932104218E+02   -0.21278E-02   -0.21256E-02   672   0.724E-01    0.609E+00
RMM:   6    -0.435693976922E+02    0.52381E+00   -0.25343E-01   481   0.198E+00    0.363E+00
RMM:   7    -0.433306867237E+02    0.23871E+00   -0.60226E-01   508   0.321E+00    0.308E-01
RMM:   8    -0.433395323815E+02   -0.88457E-02   -0.54068E-02   506   0.114E+00    0.862E-02
RMM:   9    -0.433406696567E+02   -0.11373E-02   -0.14574E-02   545   0.527E-01    0.834E-02
RMM:  10    -0.433410701347E+02   -0.40048E-03   -0.34640E-03   517   0.296E-01    0.491E-02
RMM:  11    -0.433410727780E+02   -0.26433E-05   -0.10035E-03   556   0.161E-01    0.458E-03
RMM:  12    -0.433410975278E+02   -0.24750E-04   -0.23110E-04   574   0.833E-02    0.442E-03
RMM:  13    -0.433411006244E+02   -0.30966E-05   -0.61658E-05   533   0.406E-02    0.492E-03
RMM:  14    -0.433411023712E+02   -0.17468E-05   -0.11051E-05   500   0.183E-02    0.230E-03
RMM:  15    -0.433411025152E+02   -0.14400E-06   -0.29349E-06   391   0.906E-03
   1 F= -.43341103E+02 E0= -.43341735E+02  d E =0.189825E-02
