 vasp.6.2.1 16May21 (build Aug 15 2022 14:47:30) complex                         
 executed on             LinuxGNU date 2025.12.30  16:12:29
 running on    4 total cores
 distrk:  each k-point on    4 cores,    1 groups
 distr:  one band on NCORE=   1 cores,    4 groups


--------------------------------------------------------------------------------------------------------


 INCAR:
   ALGO = Fast
   EDIFF = 1e-6
   ENCUT = 520.0
   ISMEAR = 1
   LASPH = True
   LCHARG = False
   LREAL = False
   LWAVE = False
   NELM = 100
   NSW = 0
   PREC = Accurate

 POTCAR:   PAW_PBE Si 05Jan2001                   
 POTCAR:   PAW_PBE Si 05Jan2001                   
   VRHFIN =Si: s2p2                                                                                 
   LEXCH  = PE                                                                                      
   EATOM  =   103.0669 eV,    7.5752 Ry                                                             
                                                                                                    
   TITEL  = PAW_PBE Si 05Jan2001                                                                    
   LULTRA =        F    use ultrasoft PP ?                                                          
   IUNSCR =        1    unscreen: 0-lin 1-nonlin 2-no                                               
   RPACOR =    1.500    partial core radius                                                         
   POMASS =   28.085; ZVAL   =    4.000    mass and valenz                                          
   RCORE  =    1.900    outmost cutoff radius                                                       
   RWIGS  =    2.480; RWIGS  =    1.312    wigner-seitz radius (au A)                               
   ENMAX  =  245.345; ENMIN  =  184.009 eV                                                          
   ICORE  =        2    local potential                                                             
   LCOR   =        T    correct aug charges                                                         
   LPAW   =        T    paw PP                                                                      
   EAUG   =  322.069                                                                                
   DEXC   =    -.007                                                                                
   RMAX   =    2.944    core radius for proj-oper                                                   
   RAUG   =    1.300    factor for augmentation sphere                                              
   RDEP   =    1.993    radius for radial grids                                                     
   QCUT   =   -4.246; QGAM   =    8.493    optimization parameters                                  
                                                                                                    
   Description                                                                                      
     l     E      TYP  RCUT    TYP  RCUT                                                            
     0   .000     23  1.900                                                                         
     0   .000     23  1.900                                                                         
     1   .000     23  1.900                                                                         
     1   .000     23  1.900                                                                         
     2   .000      7  1.900                                                                         
  local pseudopotential read in
  partial core-charges read in
  atomic valenz-charges read in
  non local Contribution for L=           0  read in
    real space projection operators read in
  non local Contribution for L=           0  read in
    real space projection operators read in
  non local Contribution for L=           1  read in
    real space projection operators read in
  non local Contribution for L=           1  read in
    real space projection operators read in
    PAW grid and wavefunctions read in

   number of l-projection  operators is LMAX  =           4
   number of lm-projection operators is LMMAX =           8

 PAW_PBE Si 05Jan2001                   :
 energy of atom  1       EATOM= -103.0669
 kinetic energy error for atom=    0.0005 (will be added to EATOM!!)


 POSCAR: # Generated by Masgent for EOS calculati
  positions in direct lattice
  No initial velocities read in
 exchange correlation table for  LEXCH =        8
   RHO(1)=    0.500       N(1)  =     2000
   RHO(2)=  100.500       N(2)  =     4000

 VTST: version 4.2, (08/11/21)

 CHAIN: initializing optimizer
 
 OPT: Using VASP Dynamics algorithm
 CHAIN: Read ICHAIN            0

 POSCAR: # Generated by Masgent for EOS calculati
  positions in direct lattice
  No initial velocities read in



--------------------------------------------------------------------------------------------------------


 ion  position               nearest neighbor table
   1  0.750  0.750  0.250-   2 2.34   4 2.34   8 2.34   6 2.34
   2  0.000  0.500  0.500-   1 2.34   3 2.34   7 2.34   5 2.34
   3  0.750  0.250  0.750-   2 2.34   4 2.34   6 2.34   8 2.34
   4  0.000  0.000  0.000-   1 2.34   3 2.34   5 2.34   7 2.34
   5  0.250  0.750  0.750-   4 2.34   6 2.34   8 2.34   2 2.34
   6  0.500  0.500  0.000-   3 2.34   5 2.34   7 2.34   1 2.34
   7  0.250  0.250  0.250-   2 2.34   6 2.34   8 2.34   4 2.34
   8  0.500  0.000  0.500-   1 2.34   5 2.34   7 2.34   3 2.34

  LATTYP: Found a simple cubic cell.
 ALAT       =     5.4071663568
  
  Lattice vectors:
  
 A1 = (   5.4071663568,   0.0000000000,   0.0000000000)
 A2 = (   0.0000000000,   5.4071663568,   0.0000000000)
 A3 = (   0.0000000000,   0.0000000000,   5.4071663568)


Analysis of symmetry for initial positions (statically):
=====================================================================
 Subroutine PRICEL returns following result:
 
  LATTYP: Found a face centered cubic cell.
 ALAT       =     5.4071663568
  
  Lattice vectors:
  
 A1 = (   2.7035831784,  -2.7035831784,   0.0000000000)
 A2 = (   2.7035831784,   0.0000000000,   2.7035831784)
 A3 = (   0.0000000000,  -2.7035831784,   2.7035831784)
 
   4 primitive cells build up your supercell.
 

 Routine SETGRP: Setting up the symmetry group for a 
 simple cubic supercell.


 Subroutine GETGRP returns: Found 48 space group operations
 (whereof 24 operations were pure point group operations)
 out of a pool of 48 trial point group operations.


The static configuration has the point symmetry T_d .
 The point group associated with its full space group is O_h .


Analysis of symmetry for dynamics (positions and initial velocities):
=====================================================================
 Subroutine PRICEL returns following result:
 
  LATTYP: Found a face centered cubic cell.
 ALAT       =     5.4071663568
  
  Lattice vectors:
  
 A1 = (   2.7035831784,  -2.7035831784,   0.0000000000)
 A2 = (   2.7035831784,   0.0000000000,   2.7035831784)
 A3 = (   0.0000000000,  -2.7035831784,   2.7035831784)
 
   4 primitive cells build up your supercell.
 

 Routine SETGRP: Setting up the symmetry group for a 
 simple cubic supercell.


 Subroutine GETGRP returns: Found 48 space group operations
 (whereof 24 operations were pure point group operations)
 out of a pool of 48 trial point group operations.


The dynamic configuration has the point symmetry T_d .
 The point group associated with its full space group is O_h .


 Subroutine INISYM returns: Found 48 space group operations
 (whereof 24 operations are pure point group operations),
 and found     4 'primitive' translations


----------------------------------------------------------------------------------------

                                     Primitive cell                                     

  volume of cell :      39.5229

  direct lattice vectors                    reciprocal lattice vectors
     2.703583178 -2.703583178  0.000000000     0.184939751 -0.184939751 -0.184939751
     2.703583178  0.000000000  2.703583178     0.184939751  0.184939751  0.184939751
     0.000000000 -2.703583178  2.703583178    -0.184939751 -0.184939751  0.184939751

  length of vectors
     3.823443998  3.823443998  3.823443998     0.320325045  0.320325045  0.320325045

  position of ions in fractional coordinates (direct lattice)
     0.750000000  0.750000000  0.750000000
     0.000000000  0.000000000  0.000000000

  ion indices of the primitive-cell ions
   primitive index   ion index
                 1           1
                 2           2

----------------------------------------------------------------------------------------



 KPOINTS: # Generated by Masgent for EOS calculati

Automatic generation of k-mesh.
 Grid dimensions read from file:
 generate k-points for:    5    5    5

 Generating k-lattice:

  Cartesian coordinates                     Fractional coordinates (reciprocal lattice)
     0.036987950 -0.000000000  0.000000000     0.200000000  0.000000000  0.000000000
     0.000000000  0.036987950  0.000000000     0.000000000  0.200000000  0.000000000
    -0.000000000 -0.000000000  0.036987950     0.000000000  0.000000000  0.200000000

  Length of vectors
     0.036987950  0.036987950  0.036987950

  Shift w.r.t. Gamma in fractional coordinates (k-lattice)
     0.000000000  0.000000000  0.000000000

 
 Subroutine IBZKPT returns following result:
 ===========================================
 
 Found     10 irreducible k-points:
 
 Following reciprocal coordinates:
            Coordinates               Weight
  0.000000  0.000000  0.000000      1.000000
  0.200000  0.000000  0.000000      6.000000
  0.400000  0.000000  0.000000      6.000000
  0.200000  0.200000  0.000000     12.000000
  0.400000  0.200000  0.000000     24.000000
  0.400000  0.400000  0.000000     12.000000
  0.200000  0.200000  0.200000      8.000000
  0.400000  0.200000  0.200000     24.000000
  0.400000  0.400000  0.200000     24.000000
  0.400000  0.400000  0.400000      8.000000
 
 Following cartesian coordinates:
            Coordinates               Weight
  0.000000  0.000000  0.000000      1.000000
  0.036988  0.000000  0.000000      6.000000
  0.073976  0.000000  0.000000      6.000000
  0.036988  0.036988  0.000000     12.000000
  0.073976  0.036988  0.000000     24.000000
  0.073976  0.073976  0.000000     12.000000
  0.036988  0.036988  0.036988      8.000000
  0.073976  0.036988  0.036988     24.000000
  0.073976  0.073976  0.036988     24.000000
  0.073976  0.073976  0.073976      8.000000
 


--------------------------------------------------------------------------------------------------------




 Dimension of arrays:
   k-points           NKPTS =     10   k-points in BZ     NKDIM =     10   number of bands    NBANDS=     24
   number of dos      NEDOS =    301   number of ions     NIONS =      8
   non local maximal  LDIM  =      4   non local SUM 2l+1 LMDIM =      8
   total plane-waves  NPLWV =  64000
   max r-space proj   IRMAX =      1   max aug-charges    IRDMAX=  13733
   dimension x,y,z NGX =    40 NGY =   40 NGZ =   40
   dimension x,y,z NGXF=    80 NGYF=   80 NGZF=   80
   support grid    NGXF=    80 NGYF=   80 NGZF=   80
   ions per type =               8
   NGX,Y,Z   is equivalent  to a cutoff of  12.30, 12.30, 12.30 a.u.
   NGXF,Y,Z  is equivalent  to a cutoff of  24.60, 24.60, 24.60 a.u.

 SYSTEM =  unknown system                          
 POSCAR =  # Generated by Masgent for EOS calculati

 Startparameter for this run:
   NWRITE =      2    write-flag & timer
   PREC   = accura    normal or accurate (medium, high low for compatibility)
   ISTART =      0    job   : 0-new  1-cont  2-samecut
   ICHARG =      2    charge: 1-file 2-atom 10-const
   ISPIN  =      1    spin polarized calculation?
   LNONCOLLINEAR =      F non collinear calculations
   LSORBIT =      F    spin-orbit coupling
   INIWAV =      1    electr: 0-lowe 1-rand  2-diag
   LASPH  =      T    aspherical Exc in radial PAW
 Electronic Relaxation 1
   ENCUT  =  520.0 eV  38.22 Ry    6.18 a.u.  10.05 10.05 10.05*2*pi/ulx,y,z
   ENINI  =  520.0     initial cutoff
   ENAUG  =  322.1 eV  augmentation charge cutoff
   NELM   =    100;   NELMIN=  2; NELMDL=  0     # of ELM steps 
   EDIFF  = 0.1E-05   stopping-criterion for ELM
   LREAL  =      F    real-space projection
   NLSPLINE    = F    spline interpolate recip. space projectors
   LCOMPAT=      F    compatible to vasp.4.4
   GGA_COMPAT  = T    GGA compatible to vasp.4.4-vasp.4.6
   LMAXPAW     = -100 max onsite density
   LMAXMIX     =    2 max onsite mixed and CHGCAR
   VOSKOWN=      0    Vosko Wilk Nusair interpolation
   ROPT   =    0.00000
 Ionic relaxation
   EDIFFG = 0.1E-04   stopping-criterion for IOM
   NSW    =      0    number of steps for IOM
   NBLOCK =      1;   KBLOCK =      1    inner block; outer block 
   IBRION =     -1    ionic relax: 0-MD 1-quasi-New 2-CG
   NFREE  =      0    steps in history (QN), initial steepest desc. (CG)
   ISIF   =      2    stress and relaxation
   IWAVPR =     10    prediction:  0-non 1-charg 2-wave 3-comb
   ISYM   =      2    0-nonsym 1-usesym 2-fastsym
   LCORR  =      T    Harris-Foulkes like correction to forces

   POTIM  = 0.5000    time-step for ionic-motion
   TEIN   =    0.0    initial temperature
   TEBEG  =    0.0;   TEEND  =   0.0 temperature during run
   SMASS  =  -3.00    Nose mass-parameter (am)
   estimated Nose-frequenzy (Omega)   =  0.10E-29 period in steps = 0.13E+47 mass=  -0.668E-27a.u.
   SCALEE = 1.0000    scale energy and forces
   NPACO  =    256;   APACO  = 16.0  distance and # of slots for P.C.
   PSTRESS=    0.0 pullay stress

  Mass of Ions in am
   POMASS =  28.09
  Ionic Valenz
   ZVAL   =   4.00
  Atomic Wigner-Seitz radii
   RWIGS  =  -1.00
  virtual crystal weights 
   VCA    =   1.00
   NELECT =      32.0000    total number of electrons
   NUPDOWN=      -1.0000    fix difference up-down

 DOS related values:
   EMIN   =  10.00;   EMAX   =-10.00  energy-range for DOS
   EFERMI =   0.00
   ISMEAR =     1;   SIGMA  =   0.20  broadening in eV -4-tet -1-fermi 0-gaus

 Electronic relaxation 2 (details)
   IALGO  =     68    algorithm
   LDIAG  =      T    sub-space diagonalisation (order eigenvalues)
   LSUBROT=      F    optimize rotation matrix (better conditioning)
   TURBO    =      0    0=normal 1=particle mesh
   IRESTART =      0    0=no restart 2=restart with 2 vectors
   NREBOOT  =      0    no. of reboots
   NMIN     =      0    reboot dimension
   EREF     =   0.00    reference energy to select bands
   IMIX   =      4    mixing-type and parameters
     AMIX     =   0.40;   BMIX     =  1.00
     AMIX_MAG =   1.60;   BMIX_MAG =  1.00
     AMIN     =   0.10
     WC   =   100.;   INIMIX=   1;  MIXPRE=   1;  MAXMIX= -45

 Intra band minimization:
   WEIMIN = 0.0000     energy-eigenvalue tresh-hold
   EBREAK =  0.10E-07  absolut break condition
   DEPER  =   0.30     relativ break condition  

   TIME   =   0.40     timestep for ELM

  volume/ion in A,a.u.               =      19.76       133.36
  Fermi-wavevector in a.u.,A,eV,Ry     =   0.961218  1.816438 12.570960  0.923939
  Thomas-Fermi vector in A             =   2.090570

 Write flags
   LWAVE        =      F    write WAVECAR
   LDOWNSAMPLE  =      F    k-point downsampling of WAVECAR
   LCHARG       =      F    write CHGCAR
   LVTOT        =      F    write LOCPOT, total local potential
   LVHAR        =      F    write LOCPOT, Hartree potential only
   LELF         =      F    write electronic localiz. function (ELF)
   LORBIT       =      0    0 simple, 1 ext, 2 COOP (PROOUT), +10 PAW based schemes


 Dipole corrections
   LMONO  =      F    monopole corrections only (constant potential shift)
   LDIPOL =      F    correct potential (dipole corrections)
   IDIPOL =      0    1-x, 2-y, 3-z, 4-all directions 
   EPSILON=  1.0000000 bulk dielectric constant

 Exchange correlation treatment:
   GGA     =    --    GGA type
   LEXCH   =     8    internal setting for exchange type
   VOSKOWN=      0    Vosko Wilk Nusair interpolation
   LHFCALC =     F    Hartree Fock is set to
   LHFONE  =     F    Hartree Fock one center treatment
   AEXX    =    0.0000 exact exchange contribution

 Linear response parameters
   LEPSILON=     F    determine dielectric tensor
   LRPA    =     F    only Hartree local field effects (RPA)
   LNABLA  =     F    use nabla operator in PAW spheres
   LVEL    =     F    velocity operator in full k-point grid
   LINTERFAST=   F  fast interpolation
   KINTER  =     0    interpolate to denser k-point grid
   CSHIFT  =0.1000    complex shift for real part using Kramers Kronig
   OMEGAMAX=  -1.0    maximum frequency
   DEG_THRESHOLD= 0.2000000E-02 threshold for treating states as degnerate
   RTIME   =   -0.100 relaxation time in fs
  (WPLASMAI=    0.000 imaginary part of plasma frequency in eV, 0.658/RTIME)
   DFIELD  = 0.0000000 0.0000000 0.0000000 field for delta impulse in time

 Orbital magnetization related:
   ORBITALMAG=     F  switch on orbital magnetization
   LCHIMAG   =     F  perturbation theory with respect to B field
   DQ        =  0.001000  dq finite difference perturbation B field
   LLRAUG    =     F  two centre corrections for induced B field



--------------------------------------------------------------------------------------------------------


 Static calculation
 charge density and potential will be updated during run
 non-spin polarized calculation
 RMM-DIIS sequential band-by-band and
  variant of blocked Davidson during initial phase
 perform sub-space diagonalisation
    before iterative eigenvector-optimisation
 modified Broyden-mixing scheme, WC =      100.0
 initial mixing is a Kerker type mixing with AMIX =  0.4000 and BMIX =      1.0000
 Hartree-type preconditioning will be used
 using additional bands            8
 reciprocal scheme for non local part
 use partial core corrections
 calculate Harris-corrections to forces   (improved forces if not selfconsistent)
 use gradient corrections 
 use of overlap-Matrix (Vanderbilt PP)
 Methfessel and Paxton  Order N= 1 SIGMA  =   0.20


--------------------------------------------------------------------------------------------------------


  energy-cutoff  :      520.00
  volume of cell :      158.09
      direct lattice vectors                 reciprocal lattice vectors
     5.407166357  0.000000000  0.000000000     0.184939751 -0.000000000  0.000000000
     0.000000000  5.407166357  0.000000000     0.000000000  0.184939751  0.000000000
     0.000000000  0.000000000  5.407166357    -0.000000000 -0.000000000  0.184939751

  length of vectors
     5.407166357  5.407166357  5.407166357     0.184939751  0.184939751  0.184939751



 k-points in units of 2pi/SCALE and weight: # Generated by Masgent for EOS calculati
   0.00000000  0.00000000  0.00000000       0.008
   0.03698795  0.00000000  0.00000000       0.048
   0.07397590  0.00000000  0.00000000       0.048
   0.03698795  0.03698795  0.00000000       0.096
   0.07397590  0.03698795  0.00000000       0.192
   0.07397590  0.07397590  0.00000000       0.096
   0.03698795  0.03698795  0.03698795       0.064
   0.07397590  0.03698795  0.03698795       0.192
   0.07397590  0.07397590  0.03698795       0.192
   0.07397590  0.07397590  0.07397590       0.064

 k-points in reciprocal lattice and weights: # Generated by Masgent for EOS calculati
   0.00000000  0.00000000  0.00000000       0.008
   0.20000000  0.00000000  0.00000000       0.048
   0.40000000  0.00000000  0.00000000       0.048
   0.20000000  0.20000000  0.00000000       0.096
   0.40000000  0.20000000  0.00000000       0.192
   0.40000000  0.40000000  0.00000000       0.096
   0.20000000  0.20000000  0.20000000       0.064
   0.40000000  0.20000000  0.20000000       0.192
   0.40000000  0.40000000  0.20000000       0.192
   0.40000000  0.40000000  0.40000000       0.064

 position of ions in fractional coordinates (direct lattice) 
   0.75000000  0.75000000  0.25000000
   0.00000000  0.50000000  0.50000000
   0.75000000  0.25000000  0.75000000
   0.00000000  0.00000000  0.00000000
   0.25000000  0.75000000  0.75000000
   0.50000000  0.50000000  0.00000000
   0.25000000  0.25000000  0.25000000
   0.50000000  0.00000000  0.50000000

 position of ions in cartesian coordinates  (Angst):
   4.05537477  4.05537477  1.35179159
   0.00000000  2.70358318  2.70358318
   4.05537477  1.35179159  4.05537477
   0.00000000  0.00000000  0.00000000
   1.35179159  4.05537477  4.05537477
   2.70358318  2.70358318  0.00000000
   1.35179159  1.35179159  1.35179159
   2.70358318  0.00000000  2.70358318



--------------------------------------------------------------------------------------------------------


 k-point   1 :   0.0000 0.0000 0.0000  plane waves:    4337
 k-point   2 :   0.2000 0.0000 0.0000  plane waves:    4248
 k-point   3 :   0.4000 0.0000 0.0000  plane waves:    4220
 k-point   4 :   0.2000 0.2000 0.0000  plane waves:    4242
 k-point   5 :   0.4000 0.2000 0.0000  plane waves:    4266
 k-point   6 :   0.4000 0.4000 0.0000  plane waves:    4264
 k-point   7 :   0.2000 0.2000 0.2000  plane waves:    4257
 k-point   8 :   0.4000 0.2000 0.2000  plane waves:    4271
 k-point   9 :   0.4000 0.4000 0.2000  plane waves:    4248
 k-point  10 :   0.4000 0.4000 0.4000  plane waves:    4260

 maximum and minimum number of plane-waves per node :      4337     4220

 maximum number of plane-waves:      4337
 maximum index in each direction: 
   IXMAX=   10   IYMAX=   10   IZMAX=   10
   IXMIN=  -10   IYMIN=  -10   IZMIN=  -10


 serial   3D FFT for wavefunctions
 parallel 3D FFT for charge:
    minimum data exchange during FFTs selected (reduces bandwidth)


 total amount of memory used by VASP MPI-rank0    51077. kBytes
=======================================================================

   base      :      30000. kBytes
   nonl-proj :       3333. kBytes
   fftplans  :       4661. kBytes
   grid      :       8832. kBytes
   one-center:         24. kBytes
   wavefun   :       4227. kBytes

     INWAV:  cpu time    0.0000: real time    0.0001
 Broyden mixing: mesh for mixing (old mesh)
   NGX = 21   NGY = 21   NGZ = 21
  (NGX  = 80   NGY  = 80   NGZ  = 80)
  gives a total of   9261 points

 initial charge density was supplied:
 charge density of overlapping atoms calculated
 number of electron      32.0000000 magnetization 
 keeping initial charge density in first step


--------------------------------------------------------------------------------------------------------


 Maximum index for augmentation-charges         3319 (set IRDMAX)


--------------------------------------------------------------------------------------------------------


 First call to EWALD:  gamma=   0.328
 Maximum number of real-space cells 3x 3x 3
 Maximum number of reciprocal cells 3x 3x 3

    FEWALD:  cpu time    0.0005: real time    0.0005


--------------------------------------- Iteration      1(   1)  ---------------------------------------


    POTLOK:  cpu time    0.0453: real time    0.0461
    SETDIJ:  cpu time    0.0527: real time    0.0527
     EDDAV:  cpu time    0.3584: real time    0.3585
       DOS:  cpu time    0.0003: real time    0.0003
    --------------------------------------------
      LOOP:  cpu time    0.4567: real time    0.4577

 eigenvalue-minimisations  :   480
 total energy-change (2. order) : 0.7180662E+02  (-0.1218203E+04)
 number of electron      32.0000000 magnetization 
 augmentation part       32.0000000 magnetization 

 Free energy of the ion-electron system (eV)
  ---------------------------------------------------
  alpha Z        PSCENC =        13.62776415
  Ewald energy   TEWEN  =      -918.11488904
  -Hartree energ DENC   =       -43.24873766
  -exchange      EXHF   =         0.00000000
  -V(xc)+E(xc)   XCENC  =       -74.20781138
  PAW double counting   =       263.82083246     -123.07410713
  entropy T*S    EENTRO =         0.00800453
  eigenvalues    EBANDS =       128.46475641
  atomic energy  EATOM  =       824.53081094
  Solvation  Ediel_sol  =         0.00000000
  ---------------------------------------------------
  free energy    TOTEN  =        71.80662328 eV

  energy without entropy =       71.79861875  energy(sigma->0) =       71.80395510


--------------------------------------------------------------------------------------------------------




--------------------------------------- Iteration      1(   2)  ---------------------------------------


     EDDAV:  cpu time    0.4504: real time    0.4505
       DOS:  cpu time    0.0002: real time    0.0003
    --------------------------------------------
      LOOP:  cpu time    0.4506: real time    0.4507

 eigenvalue-minimisations  :   656
 total energy-change (2. order) :-0.1108546E+03  (-0.1030639E+03)
 number of electron      32.0000000 magnetization 
 augmentation part       32.0000000 magnetization 

 Free energy of the ion-electron system (eV)
  ---------------------------------------------------
  alpha Z        PSCENC =        13.62776415
  Ewald energy   TEWEN  =      -918.11488904
  -Hartree energ DENC   =       -43.24873766
  -exchange      EXHF   =         0.00000000
  -V(xc)+E(xc)   XCENC  =       -74.20781138
  PAW double counting   =       263.82083246     -123.07410713
  entropy T*S    EENTRO =         0.00206220
  eigenvalues    EBANDS =        17.61607934
  atomic energy  EATOM  =       824.53081094
  Solvation  Ediel_sol  =         0.00000000
  ---------------------------------------------------
  free energy    TOTEN  =       -39.04799612 eV

  energy without entropy =      -39.05005832  energy(sigma->0) =      -39.04868352


--------------------------------------------------------------------------------------------------------




--------------------------------------- Iteration      1(   3)  ---------------------------------------


     EDDAV:  cpu time    0.4271: real time    0.4272
       DOS:  cpu time    0.0002: real time    0.0003
    --------------------------------------------
      LOOP:  cpu time    0.4274: real time    0.4275

 eigenvalue-minimisations  :   632
 total energy-change (2. order) :-0.4958575E+01  (-0.4894814E+01)
 number of electron      32.0000000 magnetization 
 augmentation part       32.0000000 magnetization 

 Free energy of the ion-electron system (eV)
  ---------------------------------------------------
  alpha Z        PSCENC =        13.62776415
  Ewald energy   TEWEN  =      -918.11488904
  -Hartree energ DENC   =       -43.24873766
  -exchange      EXHF   =         0.00000000
  -V(xc)+E(xc)   XCENC  =       -74.20781138
  PAW double counting   =       263.82083246     -123.07410713
  entropy T*S    EENTRO =         0.00182004
  eigenvalues    EBANDS =        12.65774656
  atomic energy  EATOM  =       824.53081094
  Solvation  Ediel_sol  =         0.00000000
  ---------------------------------------------------
  free energy    TOTEN  =       -44.00657107 eV

  energy without entropy =      -44.00839111  energy(sigma->0) =      -44.00717775


--------------------------------------------------------------------------------------------------------




--------------------------------------- Iteration      1(   4)  ---------------------------------------


     EDDAV:  cpu time    0.4006: real time    0.4007
       DOS:  cpu time    0.0002: real time    0.0003
    --------------------------------------------
      LOOP:  cpu time    0.4008: real time    0.4010

 eigenvalue-minimisations  :   568
 total energy-change (2. order) :-0.8451150E-01  (-0.8440819E-01)
 number of electron      32.0000000 magnetization 
 augmentation part       32.0000000 magnetization 

 Free energy of the ion-electron system (eV)
  ---------------------------------------------------
  alpha Z        PSCENC =        13.62776415
  Ewald energy   TEWEN  =      -918.11488904
  -Hartree energ DENC   =       -43.24873766
  -exchange      EXHF   =         0.00000000
  -V(xc)+E(xc)   XCENC  =       -74.20781138
  PAW double counting   =       263.82083246     -123.07410713
  entropy T*S    EENTRO =         0.00176608
  eigenvalues    EBANDS =        12.57328901
  atomic energy  EATOM  =       824.53081094
  Solvation  Ediel_sol  =         0.00000000
  ---------------------------------------------------
  free energy    TOTEN  =       -44.09108257 eV

  energy without entropy =      -44.09284865  energy(sigma->0) =      -44.09167127


--------------------------------------------------------------------------------------------------------




--------------------------------------- Iteration      1(   5)  ---------------------------------------


     EDDAV:  cpu time    0.4361: real time    0.4362
       DOS:  cpu time    0.0002: real time    0.0002
    CHARGE:  cpu time    0.0503: real time    0.0503
    MIXING:  cpu time    0.0013: real time    0.0013
    --------------------------------------------
      LOOP:  cpu time    0.4879: real time    0.4881

 eigenvalue-minimisations  :   672
 total energy-change (2. order) :-0.2127848E-02  (-0.2125649E-02)
 number of electron      32.0000007 magnetization 
 augmentation part       -1.8858913 magnetization 

 Broyden mixing:
  rms(total) = 0.60862E+00    rms(broyden)= 0.60862E+00
  rms(prec ) = 0.11372E+01
  weight for this iteration     100.00

 Free energy of the ion-electron system (eV)
  ---------------------------------------------------
  alpha Z        PSCENC =        13.62776415
  Ewald energy   TEWEN  =      -918.11488904
  -Hartree energ DENC   =       -43.24873766
  -exchange      EXHF   =         0.00000000
  -V(xc)+E(xc)   XCENC  =       -74.20781138
  PAW double counting   =       263.82083246     -123.07410713
  entropy T*S    EENTRO =         0.00177064
  eigenvalues    EBANDS =        12.57115660
  atomic energy  EATOM  =       824.53081094
  Solvation  Ediel_sol  =         0.00000000
  ---------------------------------------------------
  free energy    TOTEN  =       -44.09321042 eV

  energy without entropy =      -44.09498106  energy(sigma->0) =      -44.09380064


--------------------------------------------------------------------------------------------------------




--------------------------------------- Iteration      1(   6)  ---------------------------------------


    POTLOK:  cpu time    0.0403: real time    0.0404
    SETDIJ:  cpu time    0.0525: real time    0.0525
    EDDIAG:  cpu time    0.0824: real time    0.0824
  RMM-DIIS:  cpu time    0.2766: real time    0.2766
    ORTHCH:  cpu time    0.0037: real time    0.0037
       DOS:  cpu time    0.0002: real time    0.0003
    CHARGE:  cpu time    0.0480: real time    0.0481
    MIXING:  cpu time    0.0009: real time    0.0009
    --------------------------------------------
      LOOP:  cpu time    0.5047: real time    0.5049

 eigenvalue-minimisations  :   481
 total energy-change (2. order) : 0.5238127E+00  (-0.2534263E-01)
 number of electron      32.0000007 magnetization 
 augmentation part       -1.8630007 magnetization 

 Broyden mixing:
  rms(total) = 0.36298E+00    rms(broyden)= 0.36298E+00
  rms(prec ) = 0.67443E+00
  weight for this iteration     100.00

 eigenvalues of (default mixing * dielectric matrix)
  average eigenvalue GAMMA=   2.4624
  2.4624

 Free energy of the ion-electron system (eV)
  ---------------------------------------------------
  alpha Z        PSCENC =        13.62776415
  Ewald energy   TEWEN  =      -918.11488904
  -Hartree energ DENC   =       -49.32278494
  -exchange      EXHF   =         0.00000000
  -V(xc)+E(xc)   XCENC  =       -73.24755170
  PAW double counting   =       280.49566536     -140.21272427
  entropy T*S    EENTRO =         0.00176305
  eigenvalues    EBANDS =        18.67254876
  atomic energy  EATOM  =       824.53081094
  Solvation  Ediel_sol  =         0.00000000
  ---------------------------------------------------
  free energy    TOTEN  =       -43.56939769 eV

  energy without entropy =      -43.57116074  energy(sigma->0) =      -43.56998538


--------------------------------------------------------------------------------------------------------




--------------------------------------- Iteration      1(   7)  ---------------------------------------


    POTLOK:  cpu time    0.0395: real time    0.0396
    SETDIJ:  cpu time    0.0519: real time    0.0519
    EDDIAG:  cpu time    0.0787: real time    0.0787
  RMM-DIIS:  cpu time    0.2917: real time    0.2917
    ORTHCH:  cpu time    0.0037: real time    0.0037
       DOS:  cpu time    0.0002: real time    0.0004
    CHARGE:  cpu time    0.0461: real time    0.0461
    MIXING:  cpu time    0.0009: real time    0.0009
    --------------------------------------------
      LOOP:  cpu time    0.5127: real time    0.5130

 eigenvalue-minimisations  :   508
 total energy-change (2. order) : 0.2387110E+00  (-0.6022552E-01)
 number of electron      32.0000007 magnetization 
 augmentation part       -1.8314331 magnetization 

 Broyden mixing:
  rms(total) = 0.30848E-01    rms(broyden)= 0.30848E-01
  rms(prec ) = 0.53522E-01
  weight for this iteration     100.00

 eigenvalues of (default mixing * dielectric matrix)
  average eigenvalue GAMMA=   2.7396
  2.7396  2.7396

 Free energy of the ion-electron system (eV)
  ---------------------------------------------------
  alpha Z        PSCENC =        13.62776415
  Ewald energy   TEWEN  =      -918.11488904
  -Hartree energ DENC   =       -59.31975125
  -exchange      EXHF   =         0.00000000
  -V(xc)+E(xc)   XCENC  =       -71.64242075
  PAW double counting   =       303.19192475     -163.52238972
  entropy T*S    EENTRO =         0.00204425
  eigenvalues    EBANDS =        27.91621996
  atomic energy  EATOM  =       824.53081094
  Solvation  Ediel_sol  =         0.00000000
  ---------------------------------------------------
  free energy    TOTEN  =       -43.33068672 eV

  energy without entropy =      -43.33273097  energy(sigma->0) =      -43.33136814


--------------------------------------------------------------------------------------------------------




--------------------------------------- Iteration      1(   8)  ---------------------------------------


    POTLOK:  cpu time    0.0381: real time    0.0382
    SETDIJ:  cpu time    0.0519: real time    0.0519
    EDDIAG:  cpu time    0.0791: real time    0.0791
  RMM-DIIS:  cpu time    0.2893: real time    0.2893
    ORTHCH:  cpu time    0.0038: real time    0.0038
       DOS:  cpu time    0.0002: real time    0.0003
    CHARGE:  cpu time    0.0461: real time    0.0462
    MIXING:  cpu time    0.0009: real time    0.0009
    --------------------------------------------
      LOOP:  cpu time    0.5095: real time    0.5097

 eigenvalue-minimisations  :   506
 total energy-change (2. order) :-0.8845658E-02  (-0.5406815E-02)
 number of electron      32.0000007 magnetization 
 augmentation part       -1.8367884 magnetization 

 Broyden mixing:
  rms(total) = 0.86226E-02    rms(broyden)= 0.86226E-02
  rms(prec ) = 0.20862E-01
  weight for this iteration     100.00

 eigenvalues of (default mixing * dielectric matrix)
  average eigenvalue GAMMA=   2.1157
  2.7205  1.8133  1.8133

 Free energy of the ion-electron system (eV)
  ---------------------------------------------------
  alpha Z        PSCENC =        13.62776415
  Ewald energy   TEWEN  =      -918.11488904
  -Hartree energ DENC   =       -58.78792158
  -exchange      EXHF   =         0.00000000
  -V(xc)+E(xc)   XCENC  =       -71.65949800
  PAW double counting   =       297.99401897     -158.16234970
  entropy T*S    EENTRO =         0.00189478
  eigenvalues    EBANDS =        27.23063710
  atomic energy  EATOM  =       824.53081094
  Solvation  Ediel_sol  =         0.00000000
  ---------------------------------------------------
  free energy    TOTEN  =       -43.33953238 eV

  energy without entropy =      -43.34142716  energy(sigma->0) =      -43.34016397


--------------------------------------------------------------------------------------------------------




--------------------------------------- Iteration      1(   9)  ---------------------------------------


    POTLOK:  cpu time    0.0381: real time    0.0382
    SETDIJ:  cpu time    0.0519: real time    0.0519
    EDDIAG:  cpu time    0.0789: real time    0.0789
  RMM-DIIS:  cpu time    0.3033: real time    0.3033
    ORTHCH:  cpu time    0.0037: real time    0.0037
       DOS:  cpu time    0.0002: real time    0.0004
    CHARGE:  cpu time    0.0462: real time    0.0462
    MIXING:  cpu time    0.0009: real time    0.0009
    --------------------------------------------
      LOOP:  cpu time    0.5234: real time    0.5236

 eigenvalue-minimisations  :   545
 total energy-change (2. order) :-0.1137275E-02  (-0.1457438E-02)
 number of electron      32.0000007 magnetization 
 augmentation part       -1.8349982 magnetization 

 Broyden mixing:
  rms(total) = 0.83445E-02    rms(broyden)= 0.83445E-02
  rms(prec ) = 0.13775E-01
  weight for this iteration     100.00

 eigenvalues of (default mixing * dielectric matrix)
  average eigenvalue GAMMA=   2.1408
  2.9322  2.9322  0.9152  1.7837

 Free energy of the ion-electron system (eV)
  ---------------------------------------------------
  alpha Z        PSCENC =        13.62776415
  Ewald energy   TEWEN  =      -918.11488904
  -Hartree energ DENC   =       -59.20518585
  -exchange      EXHF   =         0.00000000
  -V(xc)+E(xc)   XCENC  =       -71.60228568
  PAW double counting   =       299.30357844     -159.51024565
  entropy T*S    EENTRO =         0.00192164
  eigenvalues    EBANDS =        27.62786140
  atomic energy  EATOM  =       824.53081094
  Solvation  Ediel_sol  =         0.00000000
  ---------------------------------------------------
  free energy    TOTEN  =       -43.34066966 eV

  energy without entropy =      -43.34259129  energy(sigma->0) =      -43.34131020


--------------------------------------------------------------------------------------------------------




--------------------------------------- Iteration      1(  10)  ---------------------------------------


    POTLOK:  cpu time    0.0383: real time    0.0384
    SETDIJ:  cpu time    0.0519: real time    0.0519
    EDDIAG:  cpu time    0.0786: real time    0.0786
  RMM-DIIS:  cpu time    0.2915: real time    0.2916
    ORTHCH:  cpu time    0.0038: real time    0.0038
       DOS:  cpu time    0.0002: real time    0.0003
    CHARGE:  cpu time    0.0463: real time    0.0463
    MIXING:  cpu time    0.0010: real time    0.0010
    --------------------------------------------
      LOOP:  cpu time    0.5116: real time    0.5119

 eigenvalue-minimisations  :   517
 total energy-change (2. order) :-0.4004780E-03  (-0.3464030E-03)
 number of electron      32.0000007 magnetization 
 augmentation part       -1.8367417 magnetization 

 Broyden mixing:
  rms(total) = 0.49105E-02    rms(broyden)= 0.49105E-02
  rms(prec ) = 0.10085E-01
  weight for this iteration     100.00

 eigenvalues of (default mixing * dielectric matrix)
  average eigenvalue GAMMA=   2.0487
  3.3130  2.7225  2.2609  1.0923  0.8547

 Free energy of the ion-electron system (eV)
  ---------------------------------------------------
  alpha Z        PSCENC =        13.62776415
  Ewald energy   TEWEN  =      -918.11488904
  -Hartree energ DENC   =       -58.93283571
  -exchange      EXHF   =         0.00000000
  -V(xc)+E(xc)   XCENC  =       -71.63605108
  PAW double counting   =       298.31812512     -158.49629078
  entropy T*S    EENTRO =         0.00188675
  eigenvalues    EBANDS =        27.36040952
  atomic energy  EATOM  =       824.53081094
  Solvation  Ediel_sol  =         0.00000000
  ---------------------------------------------------
  free energy    TOTEN  =       -43.34107013 eV

  energy without entropy =      -43.34295689  energy(sigma->0) =      -43.34169905


--------------------------------------------------------------------------------------------------------




--------------------------------------- Iteration      1(  11)  ---------------------------------------


    POTLOK:  cpu time    0.0386: real time    0.0388
    SETDIJ:  cpu time    0.0519: real time    0.0519
    EDDIAG:  cpu time    0.0845: real time    0.0845
  RMM-DIIS:  cpu time    0.3148: real time    0.3148
    ORTHCH:  cpu time    0.0038: real time    0.0038
       DOS:  cpu time    0.0002: real time    0.0003
    CHARGE:  cpu time    0.0478: real time    0.0478
    MIXING:  cpu time    0.0011: real time    0.0011
    --------------------------------------------
      LOOP:  cpu time    0.5426: real time    0.5428

 eigenvalue-minimisations  :   556
 total energy-change (2. order) :-0.2643311E-05  (-0.1003483E-03)
 number of electron      32.0000007 magnetization 
 augmentation part       -1.8362740 magnetization 

 Broyden mixing:
  rms(total) = 0.45769E-03    rms(broyden)= 0.45768E-03
  rms(prec ) = 0.64889E-03
  weight for this iteration     100.00

 eigenvalues of (default mixing * dielectric matrix)
  average eigenvalue GAMMA=   2.0858
  3.7984  2.8155  2.3592  1.7583  0.8918  0.8918

 Free energy of the ion-electron system (eV)
  ---------------------------------------------------
  alpha Z        PSCENC =        13.62776415
  Ewald energy   TEWEN  =      -918.11488904
  -Hartree energ DENC   =       -59.09457814
  -exchange      EXHF   =         0.00000000
  -V(xc)+E(xc)   XCENC  =       -71.61500191
  PAW double counting   =       298.92534705     -159.12174182
  entropy T*S    EENTRO =         0.00189896
  eigenvalues    EBANDS =        27.51931704
  atomic energy  EATOM  =       824.53081094
  Solvation  Ediel_sol  =         0.00000000
  ---------------------------------------------------
  free energy    TOTEN  =       -43.34107278 eV

  energy without entropy =      -43.34297174  energy(sigma->0) =      -43.34170577


--------------------------------------------------------------------------------------------------------




--------------------------------------- Iteration      1(  12)  ---------------------------------------


    POTLOK:  cpu time    0.0394: real time    0.0395
    SETDIJ:  cpu time    0.0520: real time    0.0520
    EDDIAG:  cpu time    0.0790: real time    0.0790
  RMM-DIIS:  cpu time    0.3207: real time    0.3208
    ORTHCH:  cpu time    0.0038: real time    0.0038
       DOS:  cpu time    0.0002: real time    0.0004
    CHARGE:  cpu time    0.0467: real time    0.0467
    MIXING:  cpu time    0.0010: real time    0.0010
    --------------------------------------------
      LOOP:  cpu time    0.5428: real time    0.5430

 eigenvalue-minimisations  :   574
 total energy-change (2. order) :-0.2474980E-04  (-0.2310986E-04)
 number of electron      32.0000007 magnetization 
 augmentation part       -1.8364887 magnetization 

 Broyden mixing:
  rms(total) = 0.44234E-03    rms(broyden)= 0.44234E-03
  rms(prec ) = 0.64007E-03
  weight for this iteration     100.00

 eigenvalues of (default mixing * dielectric matrix)
  average eigenvalue GAMMA=   2.1143
  4.5770  2.6623  2.1581  1.7476  1.7476  1.0566  0.8509

 Free energy of the ion-electron system (eV)
  ---------------------------------------------------
  alpha Z        PSCENC =        13.62776415
  Ewald energy   TEWEN  =      -918.11488904
  -Hartree energ DENC   =       -59.09825873
  -exchange      EXHF   =         0.00000000
  -V(xc)+E(xc)   XCENC  =       -71.61505469
  PAW double counting   =       298.94433864     -159.14171902
  entropy T*S    EENTRO =         0.00189908
  eigenvalues    EBANDS =        27.52401116
  atomic energy  EATOM  =       824.53081094
  Solvation  Ediel_sol  =         0.00000000
  ---------------------------------------------------
  free energy    TOTEN  =       -43.34109753 eV

  energy without entropy =      -43.34299661  energy(sigma->0) =      -43.34173055


--------------------------------------------------------------------------------------------------------




--------------------------------------- Iteration      1(  13)  ---------------------------------------


    POTLOK:  cpu time    0.0385: real time    0.0386
    SETDIJ:  cpu time    0.0520: real time    0.0520
    EDDIAG:  cpu time    0.0788: real time    0.0788
  RMM-DIIS:  cpu time    0.2953: real time    0.2953
    ORTHCH:  cpu time    0.0038: real time    0.0038
       DOS:  cpu time    0.0002: real time    0.0004
    CHARGE:  cpu time    0.0466: real time    0.0466
    MIXING:  cpu time    0.0010: real time    0.0010
    --------------------------------------------
      LOOP:  cpu time    0.5162: real time    0.5164

 eigenvalue-minimisations  :   533
 total energy-change (2. order) :-0.3096597E-05  (-0.6165841E-05)
 number of electron      32.0000007 magnetization 
 augmentation part       -1.8365167 magnetization 

 Broyden mixing:
  rms(total) = 0.49210E-03    rms(broyden)= 0.49210E-03
  rms(prec ) = 0.85341E-03
  weight for this iteration     100.00

 eigenvalues of (default mixing * dielectric matrix)
  average eigenvalue GAMMA=   1.9123
  3.4417  3.0118  2.6175  2.3694  0.9082  0.8980  1.0258  1.0258

 Free energy of the ion-electron system (eV)
  ---------------------------------------------------
  alpha Z        PSCENC =        13.62776415
  Ewald energy   TEWEN  =      -918.11488904
  -Hartree energ DENC   =       -59.09850322
  -exchange      EXHF   =         0.00000000
  -V(xc)+E(xc)   XCENC  =       -71.61564990
  PAW double counting   =       298.90282933     -159.09970508
  entropy T*S    EENTRO =         0.00189740
  eigenvalues    EBANDS =        27.52434480
  atomic energy  EATOM  =       824.53081094
  Solvation  Ediel_sol  =         0.00000000
  ---------------------------------------------------
  free energy    TOTEN  =       -43.34110062 eV

  energy without entropy =      -43.34299803  energy(sigma->0) =      -43.34173309


--------------------------------------------------------------------------------------------------------




--------------------------------------- Iteration      1(  14)  ---------------------------------------


    POTLOK:  cpu time    0.0384: real time    0.0385
    SETDIJ:  cpu time    0.0520: real time    0.0520
    EDDIAG:  cpu time    0.0791: real time    0.0792
  RMM-DIIS:  cpu time    0.2805: real time    0.2805
    ORTHCH:  cpu time    0.0037: real time    0.0037
       DOS:  cpu time    0.0002: real time    0.0004
    CHARGE:  cpu time    0.0461: real time    0.0461
    MIXING:  cpu time    0.0011: real time    0.0011
    --------------------------------------------
      LOOP:  cpu time    0.5012: real time    0.5015

 eigenvalue-minimisations  :   500
 total energy-change (2. order) :-0.1746817E-05  (-0.1105103E-05)
 number of electron      32.0000007 magnetization 
 augmentation part       -1.8365615 magnetization 

 Broyden mixing:
  rms(total) = 0.22993E-03    rms(broyden)= 0.22993E-03
  rms(prec ) = 0.42075E-03
  weight for this iteration     100.00

 eigenvalues of (default mixing * dielectric matrix)
  average eigenvalue GAMMA=   1.7156
  3.4994  2.9282  2.6007  2.3712  0.9102  0.9102  1.0081  1.0081  0.2043

 Free energy of the ion-electron system (eV)
  ---------------------------------------------------
  alpha Z        PSCENC =        13.62776415
  Ewald energy   TEWEN  =      -918.11488904
  -Hartree energ DENC   =       -59.09379975
  -exchange      EXHF   =         0.00000000
  -V(xc)+E(xc)   XCENC  =       -71.61621569
  PAW double counting   =       298.88578023     -159.08196196
  entropy T*S    EENTRO =         0.00189830
  eigenvalues    EBANDS =        27.51951046
  atomic energy  EATOM  =       824.53081094
  Solvation  Ediel_sol  =         0.00000000
  ---------------------------------------------------
  free energy    TOTEN  =       -43.34110237 eV

  energy without entropy =      -43.34300068  energy(sigma->0) =      -43.34173514


--------------------------------------------------------------------------------------------------------




--------------------------------------- Iteration      1(  15)  ---------------------------------------


    POTLOK:  cpu time    0.0384: real time    0.0385
    SETDIJ:  cpu time    0.0520: real time    0.0520
    EDDIAG:  cpu time    0.0784: real time    0.0784
  RMM-DIIS:  cpu time    0.2288: real time    0.2288
    ORTHCH:  cpu time    0.0037: real time    0.0037
       DOS:  cpu time    0.0002: real time    0.0002
    --------------------------------------------
      LOOP:  cpu time    0.4014: real time    0.4015

 eigenvalue-minimisations  :   391
 total energy-change (2. order) :-0.1440002E-06  (-0.2934883E-06)
 number of electron      32.0000007 magnetization 
 augmentation part       -1.8365615 magnetization 

 Free energy of the ion-electron system (eV)
  ---------------------------------------------------
  alpha Z        PSCENC =        13.62776415
  Ewald energy   TEWEN  =      -918.11488904
  -Hartree energ DENC   =       -59.09215519
  -exchange      EXHF   =         0.00000000
  -V(xc)+E(xc)   XCENC  =       -71.61648866
  PAW double counting   =       298.88190030     -159.07804024
  entropy T*S    EENTRO =         0.00189825
  eigenvalues    EBANDS =        27.51809698
  atomic energy  EATOM  =       824.53081094
  Solvation  Ediel_sol  =         0.00000000
  ---------------------------------------------------
  free energy    TOTEN  =       -43.34110252 eV

  energy without entropy =      -43.34300076  energy(sigma->0) =      -43.34173526


--------------------------------------------------------------------------------------------------------




 average (electrostatic) potential at core
  the test charge radii are     0.9892
  (the norm of the test charge is              1.0000)
       1 -83.1012       2 -83.1012       3 -83.1012       4 -83.1012       5 -83.1012
       6 -83.1012       7 -83.1012       8 -83.1012



 E-fermi :   6.0624     XC(G=0):  -9.4598     alpha+bet :-12.1370

 Fermi energy:         6.0623920058

 k-point     1 :       0.0000    0.0000    0.0000
  band No.  band energies     occupation 
      1      -6.0886      2.00000
      2      -1.8965      2.00000
      3      -1.8965      2.00000
      4      -1.8965      2.00000
      5      -1.8965      2.00000
      6      -1.8965      2.00000
      7      -1.8965      2.00000
      8       3.0756      2.00000
      9       3.0756      2.00000
     10       3.0756      2.00000
     11       3.0756      2.00000
     12       3.0756      2.00000
     13       3.0756      2.00000
     14       5.9590      1.75828
     15       5.9590      1.75828
     16       5.9590      1.75828
     17       6.6434     -0.00031
     18       6.6434     -0.00031
     19       6.6434     -0.00031
     20       6.6434     -0.00031
     21       6.6434     -0.00031
     22       6.6434     -0.00031
     23       8.5298     -0.00000
     24       8.5298     -0.00000

 k-point     2 :       0.2000    0.0000    0.0000
  band No.  band energies     occupation 
      1      -5.9118      2.00000
      2      -3.3451      2.00000
      3      -1.8416      2.00000
      4      -1.8416      2.00000
      5      -1.8416      2.00000
      6      -1.8416      2.00000
      7      -0.2389      2.00000
      8       2.6572      2.00000
      9       2.6572      2.00000
     10       2.6572      2.00000
     11       2.6572      2.00000
     12       3.2346      2.00000
     13       3.2346      2.00000
     14       5.0334      2.00000
     15       5.3743      2.00001
     16       5.3743      2.00001
     17       6.5176     -0.00594
     18       7.2457     -0.00000
     19       7.5083     -0.00000
     20       7.5083     -0.00000
     21       7.5083     -0.00000
     22       7.5083     -0.00000
     23       8.1463     -0.00000
     24       9.3311     -0.00000

 k-point     3 :       0.4000    0.0000    0.0000
  band No.  band energies     occupation 
      1      -5.3852      2.00000
      2      -4.5216      2.00000
      3      -1.7444      2.00000
      4      -1.7444      2.00000
      5      -1.7444      2.00000
      6      -1.7444      2.00000
      7       1.5414      2.00000
      8       2.1332      2.00000
      9       2.1332      2.00000
     10       2.1332      2.00000
     11       2.1332      2.00000
     12       3.3468      2.00000
     13       3.7040      2.00000
     14       3.7040      2.00000
     15       4.4527      2.00000
     16       4.4527      2.00000
     17       6.8055     -0.00000
     18       7.4143     -0.00000
     19       8.3592     -0.00000
     20       9.3942     -0.00000
     21       9.3942     -0.00000
     22       9.3942     -0.00000
     23       9.3942     -0.00000
     24       9.8693     -0.00000

 k-point     4 :       0.2000    0.2000    0.0000
  band No.  band energies     occupation 
      1      -5.7371      2.00000
      2      -3.2247      2.00000
      3      -3.2247      2.00000
      4      -2.1215      2.00000
      5      -1.5154      2.00000
      6      -0.3247      2.00000
      7      -0.3247      2.00000
      8       1.8403      2.00000
      9       2.7012      2.00000
     10       2.7012      2.00000
     11       3.0306      2.00000
     12       3.0306      2.00000
     13       3.3551      2.00000
     14       3.9292      2.00000
     15       4.7825      2.00000
     16       5.7823      2.06353
     17       6.9674     -0.00000
     18       7.4336     -0.00000
     19       7.4336     -0.00000
     20       8.0205     -0.00000
     21       8.0205     -0.00000
     22       8.8924     -0.00000
     23       8.9928     -0.00000
     24       9.0894     -0.00000

 k-point     5 :       0.4000    0.2000    0.0000
  band No.  band energies     occupation 
      1      -5.2179      2.00000
      2      -4.3698      2.00000
      3      -2.8979      2.00000
      4      -2.4788      2.00000
      5      -1.0832      2.00000
      6      -0.6262      2.00000
      7       1.1789      2.00000
      8       1.5639      2.00000
      9       1.9281      2.00000
     10       2.5818      2.00000
     11       2.9271      2.00000
     12       3.1170      2.00000
     13       3.2124      2.00000
     14       3.8497      2.00000
     15       3.8516      2.00000
     16       4.9805      2.00000
     17       7.7327     -0.00000
     18       8.1180     -0.00000
     19       8.3118     -0.00000
     20       9.0148     -0.00000
     21       9.3635     -0.00000
     22       9.7220     -0.00000
     23       9.7484     -0.00000
     24      10.4905     -0.00000

 k-point     6 :       0.4000    0.4000    0.0000
  band No.  band energies     occupation 
      1      -4.7237      2.00000
      2      -3.9302      2.00000
      3      -3.9302      2.00000
      4      -3.2595      2.00000
      5      -0.3817      2.00000
      6       0.4123      2.00000
      7       0.4123      2.00000
      8       1.4702      2.00000
      9       1.6387      2.00000
     10       2.2277      2.00000
     11       2.2277      2.00000
     12       2.9208      2.00000
     13       4.1244      2.00000
     14       4.1493      2.00000
     15       4.1493      2.00000
     16       5.1069      2.00000
     17       7.8620     -0.00000
     18       8.8815     -0.00000
     19       9.1554     -0.00000
     20       9.1554     -0.00000
     21       9.6345     -0.00000
     22       9.6345     -0.00000
     23       9.9735     -0.00000
     24      10.2967     -0.00000

 k-point     7 :       0.2000    0.2000    0.2000
  band No.  band energies     occupation 
      1      -5.5652      2.00000
      2      -3.1406      2.00000
      3      -3.1406      2.00000
      4      -3.1406      2.00000
      5      -0.4941      2.00000
      6      -0.4941      2.00000
      7      -0.4941      2.00000
      8       2.2275      2.00000
      9       2.2275      2.00000
     10       2.2275      2.00000
     11       2.9373      2.00000
     12       3.5046      2.00000
     13       3.5046      2.00000
     14       3.5046      2.00000
     15       5.3738      2.00001
     16       5.3738      2.00001
     17       7.1703     -0.00000
     18       7.1703     -0.00000
     19       7.1703     -0.00000
     20       8.2257     -0.00000
     21       9.3368     -0.00000
     22       9.3381     -0.00000
     23       9.3427     -0.00000
     24       9.3427     -0.00000

 k-point     8 :       0.4000    0.2000    0.2000
  band No.  band energies     occupation 
      1      -5.0556      2.00000
      2      -4.2300      2.00000
      3      -2.9788      2.00000
      4      -2.9788      2.00000
      5      -0.8139      2.00000
      6      -0.8139      2.00000
      7       0.6276      2.00000
      8       1.7260      2.00000
      9       2.0807      2.00000
     10       2.0807      2.00000
     11       3.3101      2.00000
     12       3.4585      2.00000
     13       3.4585      2.00000
     14       3.9406      2.00000
     15       4.6132      2.00000
     16       4.6783      2.00000
     17       7.7270     -0.00000
     18       8.2983     -0.00000
     19       8.2983     -0.00000
     20       8.3567     -0.00000
     21       9.3843     -0.00000
     22      10.0550     -0.00000
     23      10.2697     -0.00000
     24      10.3462     -0.00000

 k-point     9 :       0.4000    0.4000    0.2000
  band No.  band energies     occupation 
      1      -4.5810      2.00000
      2      -3.8412      2.00000
      3      -3.8412      2.00000
      4      -3.3311      2.00000
      5      -0.7873      2.00000
      6      -0.2254      2.00000
      7      -0.2254      2.00000
      8       0.6344      2.00000
      9       2.4917      2.00000
     10       3.0317      2.00000
     11       3.0317      2.00000
     12       3.8955      2.00000
     13       4.2277      2.00000
     14       4.2437      2.00000
     15       4.2437      2.00000
     16       5.0416      2.00000
     17       8.0169     -0.00000
     18       8.4229     -0.00000
     19       8.7343     -0.00000
     20       8.7343     -0.00000
     21       9.2510     -0.00000
     22       9.2510     -0.00000
     23       9.5810     -0.00000
     24       9.6619     -0.00000

 k-point    10 :       0.4000    0.4000    0.4000
  band No.  band energies     occupation 
      1      -4.1843      2.00000
      2      -3.6698      2.00000
      3      -3.6698      2.00000
      4      -3.6698      2.00000
      5      -0.9180      2.00000
      6      -0.9180      2.00000
      7      -0.9180      2.00000
      8      -0.3595      2.00000
      9       3.9687      2.00000
     10       3.9687      2.00000
     11       3.9687      2.00000
     12       4.5000      2.00000
     13       4.5000      2.00000
     14       4.5000      2.00000
     15       4.8228      2.00000
     16       4.8228      2.00000
     17       7.6276     -0.00000
     18       8.1445     -0.00000
     19       8.1445     -0.00000
     20       8.1445     -0.00000
     21       9.2784     -0.00000
     22       9.2784     -0.00000
     23       9.2794     -0.00000
     24       9.3723     -0.00000


--------------------------------------------------------------------------------------------------------


 soft charge-density along one line, spin component           1
         0         1         2         3         4         5         6         7         8         9
 total charge-density along one line

 pseudopotential strength for first ion, spin component:           1
 18.399  -0.001   0.000  -0.000   0.000  -0.000   0.000  -0.000
 -0.001   0.006  -0.000   0.000  -0.000   0.000  -0.000   0.000
  0.000  -0.000   4.177   0.000  -0.000  -0.005  -0.000   0.000
 -0.000   0.000   0.000   4.177   0.000  -0.000  -0.005  -0.000
  0.000  -0.000  -0.000   0.000   4.177   0.000  -0.000  -0.005
 -0.000   0.000  -0.005  -0.000   0.000   0.005  -0.000  -0.000
  0.000  -0.000  -0.000  -0.005  -0.000  -0.000   0.005   0.000
 -0.000   0.000   0.000  -0.000  -0.005  -0.000   0.000   0.005
 total augmentation occupancy for first ion, spin component:           1
  1.490  -0.807   0.000  -0.000   0.000  -0.000   0.000   0.000
 -0.807   0.813   0.000  -0.000   0.000  -0.000   0.000  -0.000
 -0.000  -0.000   1.040   0.000   0.000  -0.574  -0.000  -0.000
 -0.000   0.000   0.000   1.040   0.000  -0.000  -0.574  -0.000
 -0.000   0.000   0.000   0.000   1.040  -0.000  -0.000  -0.574
  0.000  -0.000  -0.574  -0.000  -0.000   0.375   0.000   0.000
 -0.000  -0.000  -0.000  -0.574  -0.000   0.000   0.375   0.000
  0.000  -0.000  -0.000  -0.000  -0.574   0.000   0.000   0.375


------------------------ aborting loop because EDIFF is reached ----------------------------------------


    CHARGE:  cpu time    0.0468: real time    0.0468
    FORLOC:  cpu time    0.0021: real time    0.0021
    FORNL :  cpu time    0.0941: real time    0.0941
    STRESS:  cpu time    0.1784: real time    0.1784
    FORCOR:  cpu time    0.0381: real time    0.0381
    FORHAR:  cpu time    0.0097: real time    0.0097
    MIXING:  cpu time    0.0011: real time    0.0011
    OFIELD:  cpu time    0.0000: real time    0.0000

  FORCE on cell =-STRESS in cart. coord.  units (eV):
  Direction    XX          YY          ZZ          XY          YZ          ZX
  --------------------------------------------------------------------------------------
  Alpha Z    13.62776    13.62776    13.62776
  Ewald    -306.03882  -306.03882  -306.03882    -0.00000    -0.00000    -0.00000
  Hartree    19.69491    19.69491    19.69491    -0.00000    -0.00000    -0.00000
  E(xc)    -101.77987  -101.77987  -101.77987     0.00000     0.00000    -0.00000
  Local    -116.16546  -116.16546  -116.16546    -0.00000    -0.00000     0.00000
  n-local   312.36773   315.43181   309.22963    -3.26818    -1.98220    -1.60940
  augment   -46.62941   -46.62941   -46.62941    -0.00000     0.00000     0.00000
  Kinetic   221.29274   232.11084   231.03693    -4.21940    -4.23512    -2.68186
  Fock        0.00000     0.00000     0.00000     0.00000     0.00000     0.00000
  -------------------------------------------------------------------------------------
  Total       3.19901     3.19901     3.19901     0.00000     0.00000    -0.00000
  in kB      32.42028    32.42028    32.42028     0.00000     0.00000    -0.00000
  external pressure =       32.42 kB  Pullay stress =        0.00 kB


 VOLUME and BASIS-vectors are now :
 -----------------------------------------------------------------------------
  energy-cutoff  :      520.00
  volume of cell :      158.09
      direct lattice vectors                 reciprocal lattice vectors
     5.407166357  0.000000000  0.000000000     0.184939751 -0.000000000  0.000000000
     0.000000000  5.407166357  0.000000000     0.000000000  0.184939751  0.000000000
     0.000000000  0.000000000  5.407166357    -0.000000000 -0.000000000  0.184939751

  length of vectors
     5.407166357  5.407166357  5.407166357     0.184939751  0.184939751  0.184939751


 FORCES acting on ions
    electron-ion (+dipol)            ewald-force                    non-local-force                 convergence-correction
 -----------------------------------------------------------------------------------------------
   -.177E-13 0.708E-13 -.320E-12   -.355E-13 -.178E-13 -.178E-13   -.211E-16 -.520E-17 -.173E-17   -.212E-15 -.387E-14 -.624E-14
   0.388E-13 0.648E-14 0.161E-13   -.392E-14 0.146E-13 0.249E-13   -.179E-16 0.824E-17 0.607E-17   0.219E-15 0.256E-14 -.178E-14
   -.263E-13 -.487E-12 0.274E-12   -.213E-13 -.178E-13 -.142E-13   -.168E-16 -.147E-16 0.173E-17   -.125E-15 -.462E-14 -.482E-14
   0.414E-13 -.195E-14 0.871E-14   0.115E-13 0.142E-13 0.282E-13   -.127E-16 0.204E-16 -.165E-16   0.323E-15 0.319E-14 -.246E-14
   -.269E-13 0.130E-12 0.694E-13   -.178E-13 -.142E-13 -.284E-13   0.839E-17 -.520E-17 -.295E-16   -.106E-14 -.374E-14 -.510E-14
   0.421E-13 -.186E-12 -.123E-12   0.249E-13 0.189E-13 0.139E-13   -.162E-16 0.247E-16 0.147E-16   -.471E-15 0.239E-14 -.249E-14
   -.342E-13 0.644E-13 0.550E-13   -.355E-14 -.142E-13 -.249E-13   -.462E-17 -.121E-16 0.173E-17   -.131E-14 -.460E-14 -.658E-14
   0.453E-13 -.246E-14 -.353E-12   0.391E-13 0.178E-13 0.177E-13   0.168E-16 0.360E-16 0.260E-17   -.530E-15 0.269E-14 -.163E-14
 -----------------------------------------------------------------------------------------------
   0.624E-13 -.405E-12 -.372E-12   -.656E-14 0.156E-14 -.619E-15   -.642E-16 0.520E-16 -.208E-16   -.317E-14 -.600E-14 -.311E-13


 POSITION                                       TOTAL-FORCE (eV/Angst)
 -----------------------------------------------------------------------------------
      4.05537      4.05537      1.35179         0.000000     -0.000000      0.000000
      0.00000      2.70358      2.70358        -0.000000      0.000000     -0.000000
      4.05537      1.35179      4.05537         0.000000      0.000000     -0.000000
      0.00000      0.00000      0.00000        -0.000000      0.000000      0.000000
      1.35179      4.05537      4.05537         0.000000     -0.000000     -0.000000
      2.70358      2.70358      0.00000        -0.000000      0.000000     -0.000000
      1.35179      1.35179      1.35179         0.000000     -0.000000     -0.000000
      2.70358      0.00000      2.70358         0.000000      0.000000      0.000000
 -----------------------------------------------------------------------------------
    total drift:                                0.000000     -0.000000     -0.000000


--------------------------------------------------------------------------------------------------------



  FREE ENERGIE OF THE ION-ELECTRON SYSTEM (eV)
  ---------------------------------------------------
  free  energy   TOTEN  =       -43.34110252 eV

  energy  without entropy=      -43.34300076  energy(sigma->0) =      -43.34173526



--------------------------------------------------------------------------------------------------------


    POTLOK:  cpu time    0.0904: real time    0.0905


--------------------------------------------------------------------------------------------------------


 stress matrix after NEB project (eV)
      3.19901      0.00000     -0.00000
      0.00000      3.19901      0.00000
      0.00000      0.00000      3.19901
  FORCES: max atom, RMS     0.000000    0.000000
  FORCE total and by dimension    0.000000    0.000000
  Stress total and by dimension    5.540845    3.199009
     LOOP+:  cpu time    7.8046: real time    7.8102
    4ORBIT:  cpu time    0.0000: real time    0.0000

 total amount of memory used by VASP MPI-rank0    51077. kBytes
=======================================================================

   base      :      30000. kBytes
   nonl-proj :       3333. kBytes
   fftplans  :       4661. kBytes
   grid      :       8832. kBytes
   one-center:         24. kBytes
   wavefun   :       4227. kBytes

  
  
 General timing and accounting informations for this job:
 ========================================================
  
                  Total CPU time used (sec):        8.518
                            User time (sec):        8.082
                          System time (sec):        0.436
                         Elapsed time (sec):        8.571
  
                   Maximum memory used (kb):       58700.
                   Average memory used (kb):          N/A
  
                          Minor page faults:        71374
                          Major page faults:          324
                 Voluntary context switches:          603
