   1   1   1   0
  0.1658294E+02  0.2862368E-09  0.2862368E-09  0.2862368E-09  0.5000000E-15
   1.0000000000000000E-004
  CAR 
 unknown system                          
    115.77589113     -8.81647073  301      7.99556644      1.00000000
     -8.816  0.0000E+00  0.0000E+00  0.0000E+00  0.0000E+00
     -8.401  0.0000E+00  0.0000E+00  0.0000E+00  0.0000E+00
     -7.986  0.0000E+00  0.0000E+00  0.0000E+00  0.0000E+00
     -7.571  0.0000E+00  0.0000E+00  0.0000E+00  0.0000E+00
     -7.155  0.0000E+00  0.0000E+00  0.0000E+00  0.0000E+00
     -6.740  0.0000E+00  0.0000E+00  0.0000E+00  0.0000E+00
     -6.325  0.0000E+00  0.0000E+00  0.0000E+00  0.0000E+00
     -5.909  0.0000E+00  0.0000E+00  0.0000E+00  0.0000E+00
     -5.494  0.0000E+00  0.0000E+00  0.0000E+00  0.0000E+00
     -5.079  0.0000E+00  0.0000E+00  0.0000E+00  0.0000E+00
     -4.663  0.0000E+00  0.0000E+00  0.0000E+00  0.0000E+00
     -4.248  0.0000E+00  0.0000E+00  0.0000E+00  0.0000E+00
     -3.833  0.0000E+00  0.0000E+00  0.0000E+00  0.0000E+00
     -3.417  0.0000E+00  0.0000E+00  0.0000E+00  0.0000E+00
     -3.002  0.1880E-01  0.1879E-01  0.1472E-02  0.1498E-02
     -2.587  0.4430E-01  0.4436E-01  0.1469E-01  0.1474E-01
     -2.172  0.5606E-01  0.5609E-01  0.3538E-01  0.3545E-01
     -1.756  0.6848E-01  0.6849E-01  0.6139E-01  0.6148E-01
     -1.341  0.7803E-01  0.7806E-01  0.9172E-01  0.9183E-01
     -0.926  0.8718E-01  0.8720E-01  0.1262E+00  0.1263E+00
     -0.510  0.9539E-01  0.9542E-01  0.1641E+00  0.1642E+00
     -0.095  0.1034E+00  0.1034E+00  0.2055E+00  0.2056E+00
      0.320  0.1103E+00  0.1103E+00  0.2498E+00  0.2500E+00
      0.736  0.1180E+00  0.1180E+00  0.2972E+00  0.2974E+00
      1.151  0.1241E+00  0.1241E+00  0.3475E+00  0.3476E+00
      1.566  0.1306E+00  0.1306E+00  0.4003E+00  0.4005E+00
      1.982  0.1374E+00  0.1374E+00  0.4560E+00  0.4562E+00
      2.397  0.1435E+00  0.1436E+00  0.5142E+00  0.5144E+00
      2.812  0.1560E+00  0.1560E+00  0.5761E+00  0.5763E+00
      3.227  0.1700E+00  0.1698E+00  0.6462E+00  0.6464E+00
      3.643  0.1625E+00  0.1623E+00  0.7126E+00  0.7128E+00
      4.058  0.1548E+00  0.1548E+00  0.7766E+00  0.7768E+00
      4.473  0.1720E+00  0.1722E+00  0.8425E+00  0.8428E+00
      4.889  0.1980E+00  0.1923E+00  0.9225E+00  0.9227E+00
      5.304  0.2074E+00  0.2068E+00  0.1004E+01  0.1004E+01
      5.719  0.1683E+00  0.1683E+00  0.1079E+01  0.1079E+01
      6.135  0.1510E+00  0.1509E+00  0.1146E+01  0.1147E+01
      6.550  0.1870E+00  0.1870E+00  0.1221E+01  0.1221E+01
      6.965  0.2248E+00  0.2247E+00  0.1304E+01  0.1304E+01
      7.381  0.2016E+00  0.2016E+00  0.1387E+01  0.1388E+01
      7.796  0.1698E+00  0.1698E+00  0.1465E+01  0.1465E+01
      8.211  0.2030E+00  0.2036E+00  0.1542E+01  0.1543E+01
      8.626  0.2144E+00  0.2144E+00  0.1636E+01  0.1636E+01
      9.042  0.2125E+00  0.2126E+00  0.1722E+01  0.1722E+01
      9.457  0.2097E+00  0.2098E+00  0.1809E+01  0.1809E+01
      9.872  0.2356E+00  0.2357E+00  0.1901E+01  0.1902E+01
     10.288  0.2279E+00  0.2279E+00  0.1996E+01  0.1997E+01
     10.703  0.2256E+00  0.2257E+00  0.2090E+01  0.2090E+01
     11.118  0.2448E+00  0.2446E+00  0.2187E+01  0.2187E+01
     11.534  0.2420E+00  0.2420E+00  0.2286E+01  0.2287E+01
     11.949  0.2487E+00  0.2488E+00  0.2388E+01  0.2388E+01
     12.364  0.2510E+00  0.2510E+00  0.2493E+01  0.2493E+01
     12.780  0.2628E+00  0.2628E+00  0.2600E+01  0.2600E+01
     13.195  0.2857E+00  0.2858E+00  0.2713E+01  0.2714E+01
     13.610  0.3062E+00  0.3063E+00  0.2837E+01  0.2838E+01
     14.025  0.2887E+00  0.2887E+00  0.2960E+01  0.2961E+01
     14.441  0.2731E+00  0.2730E+00  0.3077E+01  0.3078E+01
     14.856  0.2684E+00  0.2684E+00  0.3189E+01  0.3190E+01
     15.271  0.2631E+00  0.2630E+00  0.3300E+01  0.3300E+01
     15.687  0.2629E+00  0.2629E+00  0.3408E+01  0.3409E+01
     16.102  0.2643E+00  0.2643E+00  0.3518E+01  0.3519E+01
     16.517  0.2621E+00  0.2621E+00  0.3628E+01  0.3628E+01
     16.933  0.2651E+00  0.2652E+00  0.3737E+01  0.3738E+01
     17.348  0.2671E+00  0.2672E+00  0.3848E+01  0.3848E+01
     17.763  0.2753E+00  0.2754E+00  0.3960E+01  0.3961E+01
     18.179  0.2814E+00  0.2814E+00  0.4075E+01  0.4076E+01
     18.594  0.2926E+00  0.2927E+00  0.4195E+01  0.4195E+01
     19.009  0.3120E+00  0.3121E+00  0.4322E+01  0.4322E+01
     19.424  0.3338E+00  0.3342E+00  0.4454E+01  0.4455E+01
     19.840  0.3884E+00  0.3889E+00  0.4606E+01  0.4607E+01
     20.255  0.3664E+00  0.3653E+00  0.4771E+01  0.4772E+01
     20.670  0.3137E+00  0.3139E+00  0.4902E+01  0.4903E+01
     21.086  0.3003E+00  0.2999E+00  0.5034E+01  0.5035E+01
     21.501  0.2469E+00  0.2469E+00  0.5148E+01  0.5149E+01
     21.916  0.2868E+00  0.2864E+00  0.5256E+01  0.5257E+01
     22.332  0.3254E+00  0.3256E+00  0.5381E+01  0.5382E+01
     22.747  0.3972E+00  0.3968E+00  0.5531E+01  0.5532E+01
     23.162  0.3868E+00  0.3860E+00  0.5693E+01  0.5694E+01
     23.578  0.2976E+00  0.2968E+00  0.5839E+01  0.5840E+01
     23.993  0.2874E+00  0.2882E+00  0.5955E+01  0.5955E+01
     24.408  0.3432E+00  0.3432E+00  0.6090E+01  0.6091E+01
     24.823  0.3499E+00  0.3525E+00  0.6223E+01  0.6224E+01
     25.239  0.4042E+00  0.4034E+00  0.6392E+01  0.6393E+01
     25.654  0.3757E+00  0.3757E+00  0.6557E+01  0.6558E+01
     26.069  0.3925E+00  0.3926E+00  0.6718E+01  0.6719E+01
     26.485  0.3342E+00  0.3341E+00  0.6873E+01  0.6874E+01
     26.900  0.3653E+00  0.3648E+00  0.7028E+01  0.7029E+01
     27.315  0.3187E+00  0.3173E+00  0.7177E+01  0.7178E+01
     27.731  0.2998E+00  0.3001E+00  0.7302E+01  0.7303E+01
     28.146  0.3770E+00  0.3783E+00  0.7442E+01  0.7444E+01
     28.561  0.4145E+00  0.4146E+00  0.7613E+01  0.7614E+01
     28.977  0.4515E+00  0.4431E+00  0.7791E+01  0.7793E+01
     29.392  0.3808E+00  0.3809E+00  0.7951E+01  0.7952E+01
     29.807  0.4351E+00  0.4361E+00  0.8116E+01  0.8117E+01
     30.222  0.3898E+00  0.3892E+00  0.8302E+01  0.8303E+01
     30.638  0.3599E+00  0.3599E+00  0.8455E+01  0.8456E+01
     31.053  0.3849E+00  0.3855E+00  0.8606E+01  0.8608E+01
     31.468  0.4309E+00  0.4314E+00  0.8779E+01  0.8781E+01
     31.884  0.4608E+00  0.4610E+00  0.8966E+01  0.8967E+01
     32.299  0.4815E+00  0.4811E+00  0.9161E+01  0.9163E+01
     32.714  0.3760E+00  0.3757E+00  0.9332E+01  0.9334E+01
     33.130  0.3372E+00  0.3366E+00  0.9486E+01  0.9487E+01
     33.545  0.3429E+00  0.3478E+00  0.9621E+01  0.9622E+01
     33.960  0.2838E+00  0.2831E+00  0.9753E+01  0.9754E+01
     34.376  0.2465E+00  0.2473E+00  0.9859E+01  0.9860E+01
     34.791  0.1875E+00  0.1875E+00  0.9958E+01  0.9958E+01
     35.206  0.1763E+00  0.1764E+00  0.1003E+02  0.1003E+02
     35.621  0.1735E+00  0.1736E+00  0.1010E+02  0.1010E+02
     36.037  0.1893E+00  0.1894E+00  0.1017E+02  0.1017E+02
     36.452  0.2282E+00  0.2283E+00  0.1026E+02  0.1026E+02
     36.867  0.2694E+00  0.2694E+00  0.1037E+02  0.1037E+02
     37.283  0.2750E+00  0.2750E+00  0.1048E+02  0.1048E+02
     37.698  0.2864E+00  0.2865E+00  0.1060E+02  0.1060E+02
     38.113  0.3389E+00  0.3391E+00  0.1072E+02  0.1072E+02
     38.529  0.3481E+00  0.3479E+00  0.1087E+02  0.1087E+02
     38.944  0.3001E+00  0.3004E+00  0.1100E+02  0.1100E+02
     39.359  0.3697E+00  0.3700E+00  0.1114E+02  0.1114E+02
     39.775  0.5489E+00  0.5494E+00  0.1133E+02  0.1133E+02
     40.190  0.5672E+00  0.5667E+00  0.1156E+02  0.1156E+02
     40.605  0.4708E+00  0.4708E+00  0.1177E+02  0.1178E+02
     41.020  0.4481E+00  0.4582E+00  0.1195E+02  0.1195E+02
     41.436  0.4756E+00  0.4763E+00  0.1213E+02  0.1214E+02
     41.851  0.4991E+00  0.4991E+00  0.1232E+02  0.1232E+02
     42.266  0.5907E+00  0.5923E+00  0.1252E+02  0.1252E+02
     42.682  0.6075E+00  0.6073E+00  0.1278E+02  0.1278E+02
     43.097  0.4430E+00  0.4427E+00  0.1300E+02  0.1300E+02
     43.512  0.4277E+00  0.4281E+00  0.1317E+02  0.1318E+02
     43.928  0.5236E+00  0.5241E+00  0.1337E+02  0.1337E+02
     44.343  0.3571E+00  0.3571E+00  0.1354E+02  0.1354E+02
     44.758  0.3945E+00  0.3947E+00  0.1370E+02  0.1370E+02
     45.174  0.4610E+00  0.4614E+00  0.1388E+02  0.1388E+02
     45.589  0.5125E+00  0.5123E+00  0.1408E+02  0.1408E+02
     46.004  0.5196E+00  0.5198E+00  0.1429E+02  0.1429E+02
     46.419  0.5453E+00  0.5449E+00  0.1452E+02  0.1452E+02
     46.835  0.4626E+00  0.4622E+00  0.1472E+02  0.1472E+02
     47.250  0.3970E+00  0.3969E+00  0.1490E+02  0.1490E+02
     47.665  0.4195E+00  0.4215E+00  0.1506E+02  0.1506E+02
     48.081  0.4909E+00  0.4911E+00  0.1525E+02  0.1525E+02
     48.496  0.5505E+00  0.5495E+00  0.1546E+02  0.1546E+02
     48.911  0.4897E+00  0.4892E+00  0.1569E+02  0.1569E+02
     49.327  0.4385E+00  0.4389E+00  0.1587E+02  0.1587E+02
     49.742  0.4382E+00  0.4393E+00  0.1606E+02  0.1606E+02
     50.157  0.3411E+00  0.3406E+00  0.1623E+02  0.1624E+02
     50.573  0.3789E+00  0.3795E+00  0.1637E+02  0.1638E+02
     50.988  0.5406E+00  0.5420E+00  0.1657E+02  0.1657E+02
     51.403  0.6537E+00  0.6533E+00  0.1681E+02  0.1681E+02
     51.818  0.4678E+00  0.4671E+00  0.1704E+02  0.1704E+02
     52.234  0.3884E+00  0.3885E+00  0.1721E+02  0.1721E+02
     52.649  0.4880E+00  0.4881E+00  0.1739E+02  0.1739E+02
     53.064  0.6797E+00  0.6798E+00  0.1764E+02  0.1764E+02
     53.480  0.7709E+00  0.7705E+00  0.1794E+02  0.1794E+02
     53.895  0.8731E+00  0.8720E+00  0.1827E+02  0.1827E+02
     54.310  0.9564E+00  0.9559E+00  0.1864E+02  0.1865E+02
     54.726  0.1091E+01  0.1092E+01  0.1904E+02  0.1905E+02
     55.141  0.1120E+01  0.1121E+01  0.1950E+02  0.1950E+02
     55.556  0.1104E+01  0.1102E+01  0.1998E+02  0.1998E+02
     55.972  0.1346E+01  0.1347E+01  0.2046E+02  0.2046E+02
     56.387  0.1177E+01  0.1175E+01  0.2102E+02  0.2102E+02
     56.802  0.1310E+01  0.1313E+01  0.2144E+02  0.2144E+02
     57.217  0.9457E+00  0.9455E+00  0.2193E+02  0.2194E+02
     57.633  0.8778E+00  0.8760E+00  0.2229E+02  0.2229E+02
     58.048  0.5283E+00  0.5254E+00  0.2257E+02  0.2257E+02
     58.463  0.5845E+00  0.5858E+00  0.2278E+02  0.2278E+02
     58.879  0.7892E+00  0.7897E+00  0.2306E+02  0.2306E+02
     59.294  0.1155E+01  0.1154E+01  0.2347E+02  0.2347E+02
     59.709  0.6631E+00  0.6619E+00  0.2382E+02  0.2382E+02
     60.125  0.5020E+00  0.5028E+00  0.2405E+02  0.2405E+02
     60.540  0.5117E+00  0.5115E+00  0.2426E+02  0.2427E+02
     60.955  0.5995E+00  0.5995E+00  0.2449E+02  0.2449E+02
     61.371  0.6054E+00  0.6061E+00  0.2474E+02  0.2474E+02
     61.786  0.6796E+00  0.6805E+00  0.2501E+02  0.2501E+02
     62.201  0.5638E+00  0.5630E+00  0.2527E+02  0.2528E+02
     62.616  0.5108E+00  0.5111E+00  0.2549E+02  0.2549E+02
     63.032  0.5894E+00  0.5891E+00  0.2572E+02  0.2573E+02
     63.447  0.5134E+00  0.5134E+00  0.2595E+02  0.2595E+02
     63.862  0.5161E+00  0.5163E+00  0.2616E+02  0.2616E+02
     64.278  0.4849E+00  0.4846E+00  0.2636E+02  0.2636E+02
     64.693  0.5464E+00  0.5465E+00  0.2656E+02  0.2657E+02
     65.108  0.4585E+00  0.4585E+00  0.2678E+02  0.2678E+02
     65.524  0.4856E+00  0.4854E+00  0.2698E+02  0.2698E+02
     65.939  0.4884E+00  0.4883E+00  0.2717E+02  0.2717E+02
     66.354  0.5453E+00  0.5454E+00  0.2738E+02  0.2738E+02
     66.770  0.4447E+00  0.4445E+00  0.2760E+02  0.2760E+02
     67.185  0.4074E+00  0.4074E+00  0.2777E+02  0.2777E+02
     67.600  0.4833E+00  0.4833E+00  0.2795E+02  0.2796E+02
     68.015  0.4749E+00  0.4747E+00  0.2816E+02  0.2816E+02
     68.431  0.4581E+00  0.4582E+00  0.2835E+02  0.2835E+02
     68.846  0.4584E+00  0.4584E+00  0.2855E+02  0.2855E+02
     69.261  0.4387E+00  0.4387E+00  0.2873E+02  0.2873E+02
     69.677  0.4201E+00  0.4197E+00  0.2891E+02  0.2891E+02
     70.092  0.4220E+00  0.4225E+00  0.2908E+02  0.2908E+02
     70.507  0.4574E+00  0.4572E+00  0.2927E+02  0.2927E+02
     70.923  0.4554E+00  0.4555E+00  0.2946E+02  0.2946E+02
     71.338  0.5738E+00  0.5737E+00  0.2967E+02  0.2967E+02
     71.753  0.6219E+00  0.6219E+00  0.2993E+02  0.2993E+02
     72.169  0.4878E+00  0.4879E+00  0.3015E+02  0.3015E+02
     72.584  0.5596E+00  0.5597E+00  0.3036E+02  0.3036E+02
     72.999  0.5114E+00  0.5106E+00  0.3059E+02  0.3059E+02
     73.414  0.3826E+00  0.3832E+00  0.3076E+02  0.3076E+02
     73.830  0.4020E+00  0.4021E+00  0.3093E+02  0.3093E+02
     74.245  0.4202E+00  0.4203E+00  0.3110E+02  0.3110E+02
     74.660  0.4433E+00  0.4433E+00  0.3127E+02  0.3127E+02
     75.076  0.4509E+00  0.4510E+00  0.3146E+02  0.3146E+02
     75.491  0.4590E+00  0.4588E+00  0.3165E+02  0.3165E+02
     75.906  0.4637E+00  0.4640E+00  0.3183E+02  0.3184E+02
     76.322  0.5182E+00  0.5182E+00  0.3204E+02  0.3204E+02
     76.737  0.5112E+00  0.5111E+00  0.3225E+02  0.3225E+02
     77.152  0.5535E+00  0.5530E+00  0.3248E+02  0.3248E+02
     77.568  0.4881E+00  0.4880E+00  0.3269E+02  0.3270E+02
     77.983  0.5495E+00  0.5500E+00  0.3291E+02  0.3291E+02
     78.398  0.6828E+00  0.6816E+00  0.3316E+02  0.3316E+02
     78.813  0.7339E+00  0.7328E+00  0.3346E+02  0.3346E+02
     79.229  0.3736E+00  0.3725E+00  0.3368E+02  0.3368E+02
     79.644  0.4102E+00  0.4107E+00  0.3383E+02  0.3383E+02
     80.059  0.6195E+00  0.6194E+00  0.3407E+02  0.3407E+02
     80.475  0.7014E+00  0.6996E+00  0.3436E+02  0.3436E+02
     80.890  0.5850E+00  0.5853E+00  0.3462E+02  0.3462E+02
     81.305  0.5979E+00  0.5974E+00  0.3487E+02  0.3487E+02
     81.721  0.5740E+00  0.5740E+00  0.3511E+02  0.3511E+02
     82.136  0.5588E+00  0.5587E+00  0.3535E+02  0.3535E+02
     82.551  0.4777E+00  0.4774E+00  0.3556E+02  0.3556E+02
     82.967  0.4279E+00  0.4280E+00  0.3575E+02  0.3575E+02
     83.382  0.4917E+00  0.4921E+00  0.3593E+02  0.3593E+02
     83.797  0.5910E+00  0.5909E+00  0.3617E+02  0.3617E+02
     84.212  0.5135E+00  0.5138E+00  0.3639E+02  0.3639E+02
     84.628  0.4328E+00  0.4320E+00  0.3661E+02  0.3661E+02
     85.043  0.5665E+00  0.5674E+00  0.3680E+02  0.3680E+02
     85.458  0.5674E+00  0.5665E+00  0.3704E+02  0.3704E+02
     85.874  0.5322E+00  0.5324E+00  0.3727E+02  0.3727E+02
     86.289  0.5376E+00  0.5378E+00  0.3749E+02  0.3749E+02
     86.704  0.5180E+00  0.5180E+00  0.3771E+02  0.3771E+02
     87.120  0.5770E+00  0.5776E+00  0.3793E+02  0.3793E+02
     87.535  0.6133E+00  0.6130E+00  0.3818E+02  0.3819E+02
     87.950  0.5631E+00  0.5629E+00  0.3843E+02  0.3843E+02
     88.366  0.4745E+00  0.4742E+00  0.3865E+02  0.3865E+02
     88.781  0.6794E+00  0.6793E+00  0.3887E+02  0.3887E+02
     89.196  0.6392E+00  0.6393E+00  0.3916E+02  0.3916E+02
     89.611  0.5971E+00  0.5961E+00  0.3942E+02  0.3942E+02
     90.027  0.4768E+00  0.4766E+00  0.3964E+02  0.3964E+02
     90.442  0.4626E+00  0.4626E+00  0.3983E+02  0.3983E+02
     90.857  0.4755E+00  0.4756E+00  0.4002E+02  0.4002E+02
     91.273  0.5657E+00  0.5657E+00  0.4024E+02  0.4024E+02
     91.688  0.5485E+00  0.5485E+00  0.4047E+02  0.4047E+02
     92.103  0.6186E+00  0.6183E+00  0.4070E+02  0.4071E+02
     92.519  0.6260E+00  0.6257E+00  0.4096E+02  0.4096E+02
     92.934  0.5768E+00  0.5766E+00  0.4121E+02  0.4121E+02
     93.349  0.4642E+00  0.4643E+00  0.4142E+02  0.4142E+02
     93.765  0.5405E+00  0.5402E+00  0.4163E+02  0.4163E+02
     94.180  0.5114E+00  0.5113E+00  0.4185E+02  0.4185E+02
     94.595  0.5338E+00  0.5337E+00  0.4207E+02  0.4207E+02
     95.010  0.6407E+00  0.6408E+00  0.4230E+02  0.4230E+02
     95.426  0.7794E+00  0.7806E+00  0.4259E+02  0.4259E+02
     95.841  0.7238E+00  0.7215E+00  0.4292E+02  0.4292E+02
     96.256  0.6226E+00  0.6228E+00  0.4318E+02  0.4318E+02
     96.672  0.6456E+00  0.6457E+00  0.4344E+02  0.4344E+02
     97.087  0.5395E+00  0.5393E+00  0.4368E+02  0.4368E+02
     97.502  0.4849E+00  0.4849E+00  0.4389E+02  0.4389E+02
     97.918  0.4668E+00  0.4666E+00  0.4409E+02  0.4409E+02
     98.333  0.4392E+00  0.4392E+00  0.4428E+02  0.4428E+02
     98.748  0.5010E+00  0.5015E+00  0.4446E+02  0.4446E+02
     99.164  0.5760E+00  0.5759E+00  0.4468E+02  0.4469E+02
     99.579  0.6174E+00  0.6176E+00  0.4493E+02  0.4493E+02
     99.994  0.6354E+00  0.6361E+00  0.4518E+02  0.4518E+02
    100.409  0.6517E+00  0.6515E+00  0.4547E+02  0.4547E+02
    100.825  0.6716E+00  0.6727E+00  0.4574E+02  0.4574E+02
    101.240  0.6027E+00  0.6029E+00  0.4599E+02  0.4599E+02
    101.655  0.5307E+00  0.5307E+00  0.4622E+02  0.4622E+02
    102.071  0.4963E+00  0.4962E+00  0.4644E+02  0.4644E+02
    102.486  0.5810E+00  0.5811E+00  0.4666E+02  0.4666E+02
    102.901  0.4788E+00  0.4789E+00  0.4686E+02  0.4686E+02
    103.317  0.5244E+00  0.5239E+00  0.4707E+02  0.4707E+02
    103.732  0.4287E+00  0.4283E+00  0.4727E+02  0.4727E+02
    104.147  0.3695E+00  0.3695E+00  0.4743E+02  0.4743E+02
    104.563  0.2894E+00  0.2894E+00  0.4756E+02  0.4757E+02
    104.978  0.2954E+00  0.2960E+00  0.4768E+02  0.4768E+02
    105.393  0.2930E+00  0.2925E+00  0.4781E+02  0.4781E+02
    105.809  0.1131E+00  0.1129E+00  0.4789E+02  0.4789E+02
    106.224  0.7261E-01  0.7254E-01  0.4793E+02  0.4793E+02
    106.639  0.4993E-01  0.4976E-01  0.4795E+02  0.4795E+02
    107.054  0.2841E-01  0.2866E-01  0.4797E+02  0.4797E+02
    107.470  0.1245E-01  0.1244E-01  0.4797E+02  0.4797E+02
    107.885  0.1641E-01  0.1645E-01  0.4798E+02  0.4798E+02
    108.300  0.2613E-01  0.2600E-01  0.4799E+02  0.4799E+02
    108.716  0.1116E-01  0.1112E-01  0.4800E+02  0.4800E+02
    109.131  0.3606E-02  0.3590E-02  0.4800E+02  0.4800E+02
    109.546  0.1411E-02  0.1398E-02  0.4800E+02  0.4800E+02
    109.962  0.1979E-03  0.1913E-03  0.4800E+02  0.4800E+02
    110.377  0.0000E+00  0.0000E+00  0.4800E+02  0.4800E+02
    110.792  0.0000E+00  0.0000E+00  0.4800E+02  0.4800E+02
    111.208  0.0000E+00  0.0000E+00  0.4800E+02  0.4800E+02
    111.623  0.0000E+00  0.0000E+00  0.4800E+02  0.4800E+02
    112.038  0.0000E+00  0.0000E+00  0.4800E+02  0.4800E+02
    112.453  0.0000E+00  0.0000E+00  0.4800E+02  0.4800E+02
    112.869  0.0000E+00  0.0000E+00  0.4800E+02  0.4800E+02
    113.284  0.0000E+00  0.0000E+00  0.4800E+02  0.4800E+02
    113.699  0.0000E+00  0.0000E+00  0.4800E+02  0.4800E+02
    114.115  0.0000E+00  0.0000E+00  0.4800E+02  0.4800E+02
    114.530  0.0000E+00  0.0000E+00  0.4800E+02  0.4800E+02
    114.945  0.0000E+00  0.0000E+00  0.4800E+02  0.4800E+02
    115.361  0.0000E+00  0.0000E+00  0.4800E+02  0.4800E+02
    115.776  0.0000E+00  0.0000E+00  0.4800E+02  0.4800E+02
    115.77589113     -8.81647073  301      7.99556644      1.00000000
     -8.816  0.0000E+00  0.0000E+00  0.0000E+00  0.0000E+00  0.0000E+00  0.0000E+00  0.0000E+00  0.0000E+00  0.0000E+00  0.0000E+00  0.0000E+00  0.0000E+00  0.0000E+00  0.0000E+00  0.0000E+00  0.0000E+00  0.0000E+00  0.0000E+00
     -8.401  0.0000E+00  0.0000E+00  0.0000E+00  0.0000E+00  0.0000E+00  0.0000E+00  0.0000E+00  0.0000E+00  0.0000E+00  0.0000E+00  0.0000E+00  0.0000E+00  0.0000E+00  0.0000E+00  0.0000E+00  0.0000E+00  0.0000E+00  0.0000E+00
     -7.986  0.0000E+00  0.0000E+00  0.0000E+00  0.0000E+00  0.0000E+00  0.0000E+00  0.0000E+00  0.0000E+00  0.0000E+00  0.0000E+00  0.0000E+00  0.0000E+00  0.0000E+00  0.0000E+00  0.0000E+00  0.0000E+00  0.0000E+00  0.0000E+00
     -7.571  0.0000E+00  0.0000E+00  0.0000E+00  0.0000E+00  0.0000E+00  0.0000E+00  0.0000E+00  0.0000E+00  0.0000E+00  0.0000E+00  0.0000E+00  0.0000E+00  0.0000E+00  0.0000E+00  0.0000E+00  0.0000E+00  0.0000E+00  0.0000E+00
     -7.155  0.0000E+00  0.0000E+00  0.0000E+00  0.0000E+00  0.0000E+00  0.0000E+00  0.0000E+00  0.0000E+00  0.0000E+00  0.0000E+00  0.0000E+00  0.0000E+00  0.0000E+00  0.0000E+00  0.0000E+00  0.0000E+00  0.0000E+00  0.0000E+00
     -6.740  0.0000E+00  0.0000E+00  0.0000E+00  0.0000E+00  0.0000E+00  0.0000E+00  0.0000E+00  0.0000E+00  0.0000E+00  0.0000E+00  0.0000E+00  0.0000E+00  0.0000E+00  0.0000E+00  0.0000E+00  0.0000E+00  0.0000E+00  0.0000E+00
     -6.325  0.0000E+00  0.0000E+00  0.0000E+00  0.0000E+00  0.0000E+00  0.0000E+00  0.0000E+00  0.0000E+00  0.0000E+00  0.0000E+00  0.0000E+00  0.0000E+00  0.0000E+00  0.0000E+00  0.0000E+00  0.0000E+00  0.0000E+00  0.0000E+00
     -5.909  0.0000E+00  0.0000E+00  0.0000E+00  0.0000E+00  0.0000E+00  0.0000E+00  0.0000E+00  0.0000E+00  0.0000E+00  0.0000E+00  0.0000E+00  0.0000E+00  0.0000E+00  0.0000E+00  0.0000E+00  0.0000E+00  0.0000E+00  0.0000E+00
     -5.494  0.0000E+00  0.0000E+00  0.0000E+00  0.0000E+00  0.0000E+00  0.0000E+00  0.0000E+00  0.0000E+00  0.0000E+00  0.0000E+00  0.0000E+00  0.0000E+00  0.0000E+00  0.0000E+00  0.0000E+00  0.0000E+00  0.0000E+00  0.0000E+00
     -5.079  0.0000E+00  0.0000E+00  0.0000E+00  0.0000E+00  0.0000E+00  0.0000E+00  0.0000E+00  0.0000E+00  0.0000E+00  0.0000E+00  0.0000E+00  0.0000E+00  0.0000E+00  0.0000E+00  0.0000E+00  0.0000E+00  0.0000E+00  0.0000E+00
     -4.663  0.0000E+00  0.0000E+00  0.0000E+00  0.0000E+00  0.0000E+00  0.0000E+00  0.0000E+00  0.0000E+00  0.0000E+00  0.0000E+00  0.0000E+00  0.0000E+00  0.0000E+00  0.0000E+00  0.0000E+00  0.0000E+00  0.0000E+00  0.0000E+00
     -4.248  0.0000E+00  0.0000E+00  0.0000E+00  0.0000E+00  0.0000E+00  0.0000E+00  0.0000E+00  0.0000E+00  0.0000E+00  0.0000E+00  0.0000E+00  0.0000E+00  0.0000E+00  0.0000E+00  0.0000E+00  0.0000E+00  0.0000E+00  0.0000E+00
     -3.833  0.0000E+00  0.0000E+00  0.0000E+00  0.0000E+00  0.0000E+00  0.0000E+00  0.0000E+00  0.0000E+00  0.0000E+00  0.0000E+00  0.0000E+00  0.0000E+00  0.0000E+00  0.0000E+00  0.0000E+00  0.0000E+00  0.0000E+00  0.0000E+00
     -3.417  0.0000E+00  0.0000E+00  0.0000E+00  0.0000E+00  0.0000E+00  0.0000E+00  0.0000E+00  0.0000E+00  0.0000E+00  0.0000E+00  0.0000E+00  0.0000E+00  0.0000E+00  0.0000E+00  0.0000E+00  0.0000E+00  0.0000E+00  0.0000E+00
     -3.002  0.4991E-02  0.4992E-02  0.2357E-04  0.2393E-04  0.2357E-04  0.2393E-04  0.2357E-04  0.2393E-04  0.0000E+00  0.0000E+00  0.0000E+00  0.0000E+00  0.0000E+00  0.0000E+00  0.0000E+00  0.0000E+00  0.0000E+00  0.0000E+00
     -2.587  0.1142E-01  0.1144E-01  0.1727E-03  0.1734E-03  0.1727E-03  0.1734E-03  0.1727E-03  0.1734E-03  0.0000E+00  0.0000E+00  0.0000E+00  0.0000E+00  0.0000E+00  0.0000E+00  0.0000E+00  0.0000E+00  0.0000E+00  0.0000E+00
     -2.172  0.1397E-01  0.1398E-01  0.3781E-03  0.3791E-03  0.3781E-03  0.3791E-03  0.3781E-03  0.3791E-03  0.0000E+00  0.0000E+00  0.0000E+00  0.0000E+00  0.0000E+00  0.0000E+00  0.0000E+00  0.0000E+00  0.0000E+00  0.0000E+00
     -1.756  0.1654E-01  0.1656E-01  0.6315E-03  0.6328E-03  0.6315E-03  0.6328E-03  0.6315E-03  0.6328E-03  0.0000E+00  0.0000E+00  0.0000E+00  0.0000E+00  0.0000E+00  0.0000E+00  0.0000E+00  0.0000E+00  0.0000E+00  0.0000E+00
     -1.341  0.1820E-01  0.1822E-01  0.9311E-03  0.9324E-03  0.9311E-03  0.9324E-03  0.9311E-03  0.9324E-03  0.0000E+00  0.0000E+00  0.0000E+00  0.0000E+00  0.0000E+00  0.0000E+00  0.0000E+00  0.0000E+00  0.0000E+00  0.0000E+00
     -0.926  0.1964E-01  0.1965E-01  0.1263E-02  0.1265E-02  0.1263E-02  0.1265E-02  0.1263E-02  0.1265E-02  0.0000E+00  0.0000E+00  0.0000E+00  0.0000E+00  0.0000E+00  0.0000E+00  0.0000E+00  0.0000E+00  0.0000E+00  0.0000E+00
     -0.510  0.2072E-01  0.2074E-01  0.1622E-02  0.1624E-02  0.1622E-02  0.1624E-02  0.1622E-02  0.1624E-02  0.0000E+00  0.0000E+00  0.0000E+00  0.0000E+00  0.0000E+00  0.0000E+00  0.0000E+00  0.0000E+00  0.0000E+00  0.0000E+00
     -0.095  0.2165E-01  0.2167E-01  0.2008E-02  0.2010E-02  0.2008E-02  0.2010E-02  0.2008E-02  0.2010E-02  0.0000E+00  0.0000E+00  0.0000E+00  0.0000E+00  0.0000E+00  0.0000E+00  0.0000E+00  0.0000E+00  0.0000E+00  0.0000E+00
      0.320  0.2216E-01  0.2218E-01  0.2427E-02  0.2429E-02  0.2427E-02  0.2429E-02  0.2427E-02  0.2429E-02  0.0000E+00  0.0000E+00  0.0000E+00  0.0000E+00  0.0000E+00  0.0000E+00  0.0000E+00  0.0000E+00  0.0000E+00  0.0000E+00
      0.736  0.2286E-01  0.2288E-01  0.2848E-02  0.2850E-02  0.2848E-02  0.2850E-02  0.2848E-02  0.2850E-02  0.0000E+00  0.0000E+00  0.0000E+00  0.0000E+00  0.0000E+00  0.0000E+00  0.0000E+00  0.0000E+00  0.0000E+00  0.0000E+00
      1.151  0.2291E-01  0.2293E-01  0.3326E-02  0.3328E-02  0.3326E-02  0.3328E-02  0.3326E-02  0.3328E-02  0.0000E+00  0.0000E+00  0.0000E+00  0.0000E+00  0.0000E+00  0.0000E+00  0.0000E+00  0.0000E+00  0.0000E+00  0.0000E+00
      1.566  0.2302E-01  0.2304E-01  0.3813E-02  0.3815E-02  0.3813E-02  0.3815E-02  0.3813E-02  0.3815E-02  0.0000E+00  0.0000E+00  0.0000E+00  0.0000E+00  0.0000E+00  0.0000E+00  0.0000E+00  0.0000E+00  0.0000E+00  0.0000E+00
      1.982  0.2312E-01  0.2314E-01  0.4322E-02  0.4325E-02  0.4322E-02  0.4325E-02  0.4322E-02  0.4325E-02  0.0000E+00  0.0000E+00  0.0000E+00  0.0000E+00  0.0000E+00  0.0000E+00  0.0000E+00  0.0000E+00  0.0000E+00  0.0000E+00
      2.397  0.2259E-01  0.2261E-01  0.4936E-02  0.4939E-02  0.4936E-02  0.4939E-02  0.4936E-02  0.4939E-02  0.0000E+00  0.0000E+00  0.0000E+00  0.0000E+00  0.0000E+00  0.0000E+00  0.0000E+00  0.0000E+00  0.0000E+00  0.0000E+00
      2.812  0.2273E-01  0.2276E-01  0.5830E-02  0.5833E-02  0.5830E-02  0.5833E-02  0.5830E-02  0.5833E-02  0.0000E+00  0.0000E+00  0.0000E+00  0.0000E+00  0.0000E+00  0.0000E+00  0.0000E+00  0.0000E+00  0.0000E+00  0.0000E+00
      3.227  0.2292E-01  0.2293E-01  0.6815E-02  0.6809E-02  0.6815E-02  0.6809E-02  0.6815E-02  0.6809E-02  0.0000E+00  0.0000E+00  0.0000E+00  0.0000E+00  0.0000E+00  0.0000E+00  0.0000E+00  0.0000E+00  0.0000E+00  0.0000E+00
      3.643  0.1985E-01  0.1985E-01  0.7033E-02  0.7027E-02  0.7033E-02  0.7027E-02  0.7033E-02  0.7027E-02  0.0000E+00  0.0000E+00  0.0000E+00  0.0000E+00  0.0000E+00  0.0000E+00  0.0000E+00  0.0000E+00  0.0000E+00  0.0000E+00
      4.058  0.1794E-01  0.1797E-01  0.6976E-02  0.6979E-02  0.6976E-02  0.6979E-02  0.6976E-02  0.6979E-02  0.0000E+00  0.0000E+00  0.0000E+00  0.0000E+00  0.0000E+00  0.0000E+00  0.0000E+00  0.0000E+00  0.0000E+00  0.0000E+00
      4.473  0.2001E-01  0.2005E-01  0.7823E-02  0.7834E-02  0.7823E-02  0.7834E-02  0.7823E-02  0.7834E-02  0.0000E+00  0.0000E+00  0.0000E+00  0.0000E+00  0.0000E+00  0.0000E+00  0.0000E+00  0.0000E+00  0.0000E+00  0.0000E+00
      4.889  0.2030E-01  0.1981E-01  0.9773E-02  0.9489E-02  0.9773E-02  0.9489E-02  0.9773E-02  0.9489E-02  0.0000E+00  0.0000E+00  0.0000E+00  0.0000E+00  0.0000E+00  0.0000E+00  0.0000E+00  0.0000E+00  0.0000E+00  0.0000E+00
      5.304  0.2109E-01  0.2102E-01  0.1031E-01  0.1029E-01  0.1031E-01  0.1029E-01  0.1031E-01  0.1029E-01  0.0000E+00  0.0000E+00  0.0000E+00  0.0000E+00  0.0000E+00  0.0000E+00  0.0000E+00  0.0000E+00  0.0000E+00  0.0000E+00
      5.719  0.1727E-01  0.1728E-01  0.8267E-02  0.8270E-02  0.8267E-02  0.8270E-02  0.8267E-02  0.8270E-02  0.0000E+00  0.0000E+00  0.0000E+00  0.0000E+00  0.0000E+00  0.0000E+00  0.0000E+00  0.0000E+00  0.0000E+00  0.0000E+00
      6.135  0.1558E-01  0.1558E-01  0.7388E-02  0.7390E-02  0.7388E-02  0.7390E-02  0.7388E-02  0.7390E-02  0.0000E+00  0.0000E+00  0.0000E+00  0.0000E+00  0.0000E+00  0.0000E+00  0.0000E+00  0.0000E+00  0.0000E+00  0.0000E+00
      6.550  0.1705E-01  0.1707E-01  0.9564E-02  0.9568E-02  0.9564E-02  0.9568E-02  0.9564E-02  0.9568E-02  0.0000E+00  0.0000E+00  0.0000E+00  0.0000E+00  0.0000E+00  0.0000E+00  0.0000E+00  0.0000E+00  0.0000E+00  0.0000E+00
      6.965  0.1985E-01  0.1987E-01  0.1128E-01  0.1128E-01  0.1128E-01  0.1128E-01  0.1128E-01  0.1128E-01  0.0000E+00  0.0000E+00  0.0000E+00  0.0000E+00  0.0000E+00  0.0000E+00  0.0000E+00  0.0000E+00  0.0000E+00  0.0000E+00
      7.381  0.1783E-01  0.1786E-01  0.9798E-02  0.9808E-02  0.9798E-02  0.9808E-02  0.9798E-02  0.9808E-02  0.0000E+00  0.0000E+00  0.0000E+00  0.0000E+00  0.0000E+00  0.0000E+00  0.0000E+00  0.0000E+00  0.0000E+00  0.0000E+00
      7.796  0.1386E-01  0.1389E-01  0.8539E-02  0.8543E-02  0.8539E-02  0.8543E-02  0.8539E-02  0.8543E-02  0.0000E+00  0.0000E+00  0.0000E+00  0.0000E+00  0.0000E+00  0.0000E+00  0.0000E+00  0.0000E+00  0.0000E+00  0.0000E+00
      8.211  0.2047E-01  0.2054E-01  0.9595E-02  0.9632E-02  0.9595E-02  0.9632E-02  0.9595E-02  0.9632E-02  0.0000E+00  0.0000E+00  0.0000E+00  0.0000E+00  0.0000E+00  0.0000E+00  0.0000E+00  0.0000E+00  0.0000E+00  0.0000E+00
      8.626  0.2155E-01  0.2156E-01  0.9919E-02  0.9928E-02  0.9919E-02  0.9928E-02  0.9919E-02  0.9928E-02  0.0000E+00  0.0000E+00  0.0000E+00  0.0000E+00  0.0000E+00  0.0000E+00  0.0000E+00  0.0000E+00  0.0000E+00  0.0000E+00
      9.042  0.2097E-01  0.2100E-01  0.9925E-02  0.9936E-02  0.9925E-02  0.9936E-02  0.9925E-02  0.9936E-02  0.0000E+00  0.0000E+00  0.0000E+00  0.0000E+00  0.0000E+00  0.0000E+00  0.0000E+00  0.0000E+00  0.0000E+00  0.0000E+00
      9.457  0.1901E-01  0.1903E-01  0.1010E-01  0.1011E-01  0.1010E-01  0.1011E-01  0.1010E-01  0.1011E-01  0.0000E+00  0.0000E+00  0.0000E+00  0.0000E+00  0.0000E+00  0.0000E+00  0.0000E+00  0.0000E+00  0.0000E+00  0.0000E+00
      9.872  0.2454E-01  0.2455E-01  0.1117E-01  0.1119E-01  0.1117E-01  0.1119E-01  0.1117E-01  0.1119E-01  0.0000E+00  0.0000E+00  0.0000E+00  0.0000E+00  0.0000E+00  0.0000E+00  0.0000E+00  0.0000E+00  0.0000E+00  0.0000E+00
     10.288  0.2199E-01  0.2200E-01  0.1114E-01  0.1115E-01  0.1114E-01  0.1115E-01  0.1114E-01  0.1115E-01  0.0000E+00  0.0000E+00  0.0000E+00  0.0000E+00  0.0000E+00  0.0000E+00  0.0000E+00  0.0000E+00  0.0000E+00  0.0000E+00
     10.703  0.2245E-01  0.2248E-01  0.1115E-01  0.1116E-01  0.1115E-01  0.1116E-01  0.1115E-01  0.1116E-01  0.0000E+00  0.0000E+00  0.0000E+00  0.0000E+00  0.0000E+00  0.0000E+00  0.0000E+00  0.0000E+00  0.0000E+00  0.0000E+00
     11.118  0.2502E-01  0.2500E-01  0.1247E-01  0.1247E-01  0.1247E-01  0.1247E-01  0.1247E-01  0.1247E-01  0.0000E+00  0.0000E+00  0.0000E+00  0.0000E+00  0.0000E+00  0.0000E+00  0.0000E+00  0.0000E+00  0.0000E+00  0.0000E+00
     11.534  0.2281E-01  0.2282E-01  0.1270E-01  0.1271E-01  0.1270E-01  0.1271E-01  0.1270E-01  0.1271E-01  0.0000E+00  0.0000E+00  0.0000E+00  0.0000E+00  0.0000E+00  0.0000E+00  0.0000E+00  0.0000E+00  0.0000E+00  0.0000E+00
     11.949  0.2253E-01  0.2254E-01  0.1338E-01  0.1340E-01  0.1338E-01  0.1340E-01  0.1338E-01  0.1340E-01  0.0000E+00  0.0000E+00  0.0000E+00  0.0000E+00  0.0000E+00  0.0000E+00  0.0000E+00  0.0000E+00  0.0000E+00  0.0000E+00