<?xml version="1.0" encoding="ISO-8859-1"?>
<modeling>
 <generator>
  <i name="program" type="string">vasp </i>
  <i name="version" type="string">6.2.1  </i>
  <i name="subversion" type="string">16May21 (build Aug 15 2022 14:47:30) complex                          parallel </i>
  <i name="platform" type="string">LinuxGNU </i>
  <i name="date" type="string">2023 03 30 </i>
  <i name="time" type="string">15:22:09 </i>
 </generator>
 <incar>
  <i type="string" name="SYSTEM">Al</i>
  <i type="string" name="PREC">A</i>
  <i type="string" name="ALGO">NORMAL</i>
  <i type="int" name="ISPIN">     2</i>
  <i type="int" name="IBRION">     3</i>
  <i name="EDIFF">      0.00000010</i>
  <i name="EDIFFG">     -0.05000000</i>
  <i type="int" name="NSW">   200</i>
  <i type="int" name="ISIF">     2</i>
  <i name="SYMPREC">      0.00000100</i>
  <i name="ENCUT">    400.00000000</i>
  <i name="POTIM">      0.00000000</i>
  <v name="MAGMOM">      3.00000000      3.00000000      3.00000000      3.00000000      3.00000000      3.00000000      3.00000000      3.00000000      3.00000000      3.00000000      3.00000000      3.00000000      3.00000000      3.00000000      3.00000000      3.00000000      3.00000000      3.00000000      3.00000000      3.00000000
      3.00000000      3.00000000      3.00000000      3.00000000      0.00000000      0.00000000      0.00000000      0.00000000      0.00000000      0.00000000      0.00000000      0.00000000      0.00000000      0.00000000      0.00000000      0.00000000      0.00000000      0.00000000      0.00000000      0.00000000
      0.00000000      0.00000000      0.00000000      0.00000000      0.00000000      0.00000000      0.00000000      0.00000000      0.00000000      0.00000000      0.00000000      0.00000000      0.00000000      0.00000000      0.00000000      0.00000000      0.00000000</v>
  <i type="string" name="LREAL">Auto</i>
  <i type="int" name="ISMEAR">     0</i>
  <i name="SIGMA">      0.20000000</i>
  <i type="int" name="LMAXMIX">     4</i>
  <i type="logical" name="LDAU"> T  </i>
  <i type="int" name="LDAUTYPE">     2</i>
  <v type="int" name="LDAUL">    -1     2    -1</v>
  <v name="LDAUU">      0.00000000      5.00000000      0.00000000</v>
  <v name="LDAUJ">      0.00000000      0.00000000      0.00000000</v>
  <i type="int" name="LDAUPRINT">     2</i>
  <i name="SPRING">     -5.00000000</i>
 </incar>
 <primitive_cell>
  <structure name="primitive_cell" >
   <crystal>
    <varray name="basis" >
     <v>       7.79489531       0.00000000       0.00000000 </v>
     <v>       0.00000000       7.79489531       0.00000000 </v>
     <v>       0.00000000       0.00000000      12.62522635 </v>
    </varray>
    <i name="volume">    767.11371282 </i>
    <varray name="rec_basis" >
     <v>       0.12828909       0.00000000       0.00000000 </v>
     <v>       0.00000000       0.12828909       0.00000000 </v>
     <v>       0.00000000       0.00000000       0.07920650 </v>
    </varray>
   </crystal>
   <varray name="positions" >
    <v>       0.24999979       0.25000000       0.14318502 </v>
    <v>       0.24999973       0.75000000       0.13883186 </v>
    <v>       0.75000021       0.25000000       0.14318502 </v>
    <v>       0.75000027       0.75000000       0.13883186 </v>
    <v>       0.00000000       0.00461743       0.35763461 </v>
    <v>       0.00000000       0.49538257       0.35763461 </v>
    <v>       0.50000000       0.00461760       0.35763460 </v>
    <v>       0.50000000       0.49538240       0.35763460 </v>
    <v>       0.00000000       0.99981746       0.63672155 </v>
    <v>       0.00000000       0.50018254       0.63672155 </v>
    <v>       0.50000000       0.99981762       0.63672151 </v>
    <v>       0.50000000       0.50018238       0.63672151 </v>
    <v>       0.24999942       0.25000000       0.86200103 </v>
    <v>       0.25000031       0.75000000       0.86164513 </v>
    <v>       0.75000058       0.25000000       0.86200103 </v>
    <v>       0.74999969       0.75000000       0.86164513 </v>
    <v>       0.00000000       0.99906830       0.00001904 </v>
    <v>       0.00000000       0.50093170       0.00001904 </v>
    <v>       0.50000000       0.99906831       0.00001902 </v>
    <v>       0.50000000       0.50093169       0.00001902 </v>
    <v>       0.25000043       0.25000000       0.50046328 </v>
    <v>       0.25000023       0.75000000       0.49684754 </v>
    <v>       0.74999957       0.25000000       0.50046328 </v>
    <v>       0.74999977       0.75000000       0.49684754 </v>
    <v>       0.25000014       0.00224079       0.99889811 </v>
    <v>       0.25000014       0.49775921       0.99889811 </v>
    <v>       0.74999986       0.00224079       0.99889811 </v>
    <v>       0.74999986       0.49775921       0.99889811 </v>
    <v>       0.00000000       0.25000000       0.00106391 </v>
    <v>       0.00000000       0.75000000       0.98352738 </v>
    <v>       0.50000000       0.25000000       0.00106282 </v>
    <v>       0.50000000       0.75000000       0.98352809 </v>
    <v>       0.00000000       0.97086475       0.17074367 </v>
    <v>       0.25000000       0.25000000       0.24897226 </v>
    <v>       0.00000000       0.52913525       0.17074367 </v>
    <v>       0.50000000       0.97086516       0.17074428 </v>
    <v>       0.50000000       0.52913484       0.17074428 </v>
    <v>       0.24999969       0.25000000       0.33127475 </v>
    <v>       0.25000024       0.75000000       0.32454410 </v>
    <v>       0.75000031       0.25000000       0.33127475 </v>
    <v>       0.74999976       0.75000000       0.32454410 </v>
    <v>       0.24999985       0.99942720       0.49985359 </v>
    <v>       0.24999985       0.50057280       0.49985359 </v>
    <v>       0.75000015       0.99942720       0.49985359 </v>
    <v>       0.75000015       0.50057280       0.49985359 </v>
    <v>       0.00000000       0.25000000       0.50738201 </v>
    <v>       0.00000000       0.75000000       0.50460558 </v>
    <v>       0.50000000       0.25000000       0.50738141 </v>
    <v>       0.50000000       0.75000000       0.50460588 </v>
    <v>       0.25000026       0.25000000       0.67610789 </v>
    <v>       0.24999900       0.75000000       0.67793407 </v>
    <v>       0.74999974       0.25000000       0.67610789 </v>
    <v>       0.75000100       0.75000000       0.67793407 </v>
    <v>       0.00000000       0.00847475       0.82150157 </v>
    <v>       0.00000000       0.49152525       0.82150157 </v>
    <v>       0.50000000       0.00847247       0.82150127 </v>
    <v>       0.50000000       0.49152753       0.82150127 </v>
   </varray>
  </structure>
  <varray name="primitive_index" >
   <v type="int" >        1 </v>
   <v type="int" >        2 </v>
   <v type="int" >        3 </v>
   <v type="int" >        4 </v>
   <v type="int" >        5 </v>
   <v type="int" >        6 </v>
   <v type="int" >        7 </v>
   <v type="int" >        8 </v>
   <v type="int" >        9 </v>
   <v type="int" >       10 </v>
   <v type="int" >       11 </v>
   <v type="int" >       12 </v>
   <v type="int" >       13 </v>
   <v type="int" >       14 </v>
   <v type="int" >       15 </v>
   <v type="int" >       16 </v>
   <v type="int" >       17 </v>
   <v type="int" >       18 </v>
   <v type="int" >       19 </v>
   <v type="int" >       20 </v>
   <v type="int" >       21 </v>
   <v type="int" >       22 </v>
   <v type="int" >       23 </v>
   <v type="int" >       24 </v>
   <v type="int" >       25 </v>
   <v type="int" >       26 </v>
   <v type="int" >       27 </v>
   <v type="int" >       28 </v>
   <v type="int" >       29 </v>
   <v type="int" >       30 </v>
   <v type="int" >       31 </v>
   <v type="int" >       32 </v>
   <v type="int" >       33 </v>
   <v type="int" >       34 </v>
   <v type="int" >       35 </v>
   <v type="int" >       36 </v>
   <v type="int" >       37 </v>
   <v type="int" >       38 </v>
   <v type="int" >       39 </v>
   <v type="int" >       40 </v>
   <v type="int" >       41 </v>
   <v type="int" >       42 </v>
   <v type="int" >       43 </v>
   <v type="int" >       44 </v>
   <v type="int" >       45 </v>
   <v type="int" >       46 </v>
   <v type="int" >       47 </v>
   <v type="int" >       48 </v>
   <v type="int" >       49 </v>
   <v type="int" >       50 </v>
   <v type="int" >       51 </v>
   <v type="int" >       52 </v>
   <v type="int" >       53 </v>
   <v type="int" >       54 </v>
   <v type="int" >       55 </v>
   <v type="int" >       56 </v>
   <v type="int" >       57 </v>
  </varray>
 </primitive_cell>
 <kpoints>
  <generation param="Gamma">
   <v type="int" name="divisions">       4        4        3 </v>
   <v name="usershift">      0.00000000       0.00000000       0.00000000 </v>
   <v name="genvec1">      0.25000000       0.00000000       0.00000000 </v>
   <v name="genvec2">      0.00000000       0.25000000       0.00000000 </v>
   <v name="genvec3">      0.00000000       0.00000000       0.33333333 </v>
   <v name="shift">      0.00000000       0.00000000       0.00000000 </v>
  </generation>
  <varray name="kpointlist" >
   <v>       0.00000000       0.00000000       0.00000000 </v>
   <v>       0.25000000       0.00000000       0.00000000 </v>
   <v>       0.00000000       0.25000000       0.00000000 </v>
   <v>       0.50000000       0.00000000       0.00000000 </v>
   <v>       0.00000000       0.50000000       0.00000000 </v>
   <v>       0.25000000       0.25000000       0.00000000 </v>
   <v>       0.50000000       0.25000000       0.00000000 </v>
   <v>      -0.25000000       0.50000000       0.00000000 </v>
   <v>       0.50000000       0.50000000       0.00000000 </v>
   <v>       0.00000000       0.00000000       0.33333333 </v>
   <v>       0.25000000       0.00000000       0.33333333 </v>
   <v>       0.00000000       0.25000000       0.33333333 </v>
   <v>      -0.25000000       0.00000000       0.33333333 </v>
   <v>       0.50000000       0.00000000       0.33333333 </v>
   <v>       0.00000000       0.50000000       0.33333333 </v>
   <v>       0.25000000       0.25000000       0.33333333 </v>
   <v>      -0.25000000       0.25000000       0.33333333 </v>
   <v>       0.50000000       0.25000000       0.33333333 </v>
   <v>      -0.25000000       0.50000000       0.33333333 </v>
   <v>       0.25000000       0.50000000       0.33333333 </v>
   <v>       0.50000000       0.50000000       0.33333333 </v>
  </varray>
  <varray name="weights" >
   <v>       0.02083333 </v>
   <v>       0.04166667 </v>
   <v>       0.04166667 </v>
   <v>       0.02083333 </v>
   <v>       0.02083333 </v>
   <v>       0.08333333 </v>
   <v>       0.04166667 </v>
   <v>       0.04166667 </v>
   <v>       0.02083333 </v>
   <v>       0.04166667 </v>
   <v>       0.04166667 </v>
   <v>       0.08333333 </v>
   <v>       0.04166667 </v>
   <v>       0.04166667 </v>
   <v>       0.04166667 </v>
   <v>       0.08333333 </v>
   <v>       0.08333333 </v>
   <v>       0.08333333 </v>
   <v>       0.04166667 </v>
   <v>       0.04166667 </v>
   <v>       0.04166667 </v>
  </varray>
 </kpoints>
 <parameters>
  <separator name="general" >
   <i type="string" name="SYSTEM">Al</i>
   <i type="logical" name="LCOMPAT"> F  </i>
  </separator>
  <separator name="electronic" >
   <i type="string" name="PREC">a</i>
   <i name="ENMAX">    400.00000000</i>
   <i name="ENAUG">    605.39200000</i>
   <i name="EDIFF">      0.00000010</i>
   <i type="int" name="IALGO">    38</i>
   <i type="int" name="IWAVPR">    11</i>
   <i type="int" name="NBANDS">   310</i>
   <i type="int" name="NBANDSLOW">    -1</i>
   <i type="int" name="NBANDSHIGH">    -1</i>
   <i name="NELECT">    454.00000000</i>
   <i type="int" name="TURBO">     0</i>
   <i type="int" name="IRESTART">     0</i>
   <i type="int" name="NREBOOT">     0</i>
   <i type="int" name="NMIN">     0</i>
   <i name="EREF">      0.00000000</i>
   <separator name="electronic smearing" >
    <i type="int" name="ISMEAR">     0</i>
    <i name="SIGMA">      0.20000000</i>
    <i name="KSPACING">      0.50000000</i>
    <i type="logical" name="KGAMMA"> T  </i>
    <i type="logical" name="KBLOWUP"> T  </i>
   </separator>
   <separator name="electronic projectors" >
    <i type="logical" name="LREAL"> T  </i>
    <v name="ROPT">     -0.00025000     -0.00025000     -0.00025000</v>
    <i type="int" name="LMAXPAW">  -100</i>
    <i type="int" name="LMAXMIX">     4</i>
    <i type="logical" name="NLSPLINE"> F  </i>
   </separator>
   <separator name="electronic startup" >
    <i type="int" name="ISTART">     0</i>
    <i type="int" name="ICHARG">     2</i>
    <i type="int" name="INIWAV">     1</i>
   </separator>
   <separator name="electronic spin" >
    <i type="int" name="ISPIN">     2</i>
    <i type="logical" name="LNONCOLLINEAR"> F  </i>
    <v name="MAGMOM">      3.00000000      3.00000000      3.00000000      3.00000000      3.00000000      3.00000000      3.00000000      3.00000000      3.00000000      3.00000000      3.00000000      3.00000000      3.00000000      3.00000000      3.00000000      3.00000000      3.00000000      3.00000000      3.00000000      3.00000000
      3.00000000      3.00000000      3.00000000      3.00000000      0.00000000      0.00000000      0.00000000      0.00000000      0.00000000      0.00000000      0.00000000      0.00000000      0.00000000      0.00000000      0.00000000      0.00000000      0.00000000      0.00000000      0.00000000      0.00000000
      0.00000000      0.00000000      0.00000000      0.00000000      0.00000000      0.00000000      0.00000000      0.00000000      0.00000000      0.00000000      0.00000000      0.00000000      0.00000000      0.00000000      0.00000000      0.00000000      0.00000000</v>
    <i name="NUPDOWN">     -1.00000000</i>
    <i type="logical" name="LSORBIT"> F  </i>
    <v name="SAXIS">      0.00000000      0.00000000      1.00000000</v>
    <i type="logical" name="LSPIRAL"> F  </i>
    <v name="QSPIRAL">      0.00000000      0.00000000      0.00000000</v>
    <i type="logical" name="LZEROZ"> F  </i>
   </separator>
   <separator name="electronic exchange-correlation" >
    <i type="logical" name="LASPH"> F  </i>
    <i type="logical" name="LMETAGGA"> F  </i>
   </separator>
   <separator name="electronic convergence" >
    <i type="int" name="NELM">    60</i>
    <i type="int" name="NELMDL">    -5</i>
    <i type="int" name="NELMIN">     2</i>
    <i name="ENINI">    400.00000000</i>
    <separator name="electronic convergence detail" >
     <i type="logical" name="LDIAG"> T  </i>
     <i type="logical" name="LSUBROT"> F  </i>
     <i name="WEIMIN">      0.00100000</i>
     <i name="EBREAK">      0.00000000</i>
     <i name="DEPER">      0.30000000</i>
     <i type="int" name="NRMM">     4</i>
     <i name="TIME">      0.40000000</i>
    </separator>
   </separator>
   <separator name="electronic mixer" >
    <i name="AMIX">      0.40000000</i>
    <i name="BMIX">      1.00000000</i>
    <i name="AMIN">      0.10000000</i>
    <i name="AMIX_MAG">      1.60000000</i>
    <i name="BMIX_MAG">      1.00000000</i>
    <separator name="electronic mixer details" >
     <i type="int" name="IMIX">     4</i>
     <i type="logical" name="MIXFIRST"> F  </i>
     <i type="int" name="MAXMIX">   -45</i>
     <i name="WC">    100.00000000</i>
     <i type="int" name="INIMIX">     1</i>
     <i type="int" name="MIXPRE">     1</i>
     <i type="int" name="MREMOVE">     5</i>
    </separator>
   </separator>
   <separator name="electronic dipolcorrection" >
    <i type="logical" name="LDIPOL"> F  </i>
    <i type="logical" name="LMONO"> F  </i>
    <i type="int" name="IDIPOL">     0</i>
    <i name="EPSILON">      1.00000000</i>
    <v name="DIPOL">   -100.00000000   -100.00000000   -100.00000000</v>
    <i name="EFIELD">      0.00000000</i>
   </separator>
  </separator>
  <separator name="grids" >
   <i type="int" name="NGX">    54</i>
   <i type="int" name="NGY">    54</i>
   <i type="int" name="NGZ">    84</i>
   <i type="int" name="NGXF">   108</i>
   <i type="int" name="NGYF">   108</i>
   <i type="int" name="NGZF">   168</i>
   <i type="logical" name="ADDGRID"> F  </i>
  </separator>
  <separator name="ionic" >
   <i type="int" name="NSW">   200</i>
   <i type="int" name="IBRION">     3</i>
   <i type="int" name="MDALGO">     0</i>
   <i type="int" name="ISIF">     2</i>
   <i name="PSTRESS">      0.00000000</i>
   <i name="EDIFFG">     -0.05000000</i>
   <i type="int" name="NFREE">     0</i>
   <i name="POTIM">      0.00000000</i>
   <i name="SMASS">     -3.00000000</i>
   <i name="SCALEE">      1.00000000</i>
  </separator>
  <separator name="ionic md" >
   <i name="TEBEG">      0.00010000</i>
   <i name="TEEND">      0.00010000</i>
   <i type="int" name="NBLOCK">     1</i>
   <i type="int" name="KBLOCK">   200</i>
   <i type="int" name="NPACO">   256</i>
   <i name="APACO">     16.00000000</i>
  </separator>
  <separator name="symmetry" >
   <i type="int" name="ISYM">     2</i>
   <i name="SYMPREC">      0.00000100</i>
  </separator>
  <separator name="dos" >
   <i type="int" name="LORBIT">     0</i>
   <v name="RWIGS">     -1.00000000     -1.00000000     -1.00000000</v>
   <i type="int" name="NEDOS">   301</i>
   <i name="EMIN">     10.00000000</i>
   <i name="EMAX">    -10.00000000</i>
   <i name="EFERMI">      0.00000000</i>
  </separator>
  <separator name="writing" >
   <i type="int" name="NWRITE">     2</i>
   <i type="logical" name="LWAVE"> T  </i>
   <i type="logical" name="LDOWNSAMPLE"> F  </i>
   <i type="logical" name="LCHARG"> T  </i>
   <i type="logical" name="LPARD"> F  </i>
   <i type="logical" name="LVTOT"> F  </i>
   <i type="logical" name="LVHAR"> F  </i>
   <i type="logical" name="LELF"> F  </i>
   <i type="logical" name="LOPTICS"> F  </i>
   <v name="STM">      0.00000000      0.00000000      0.00000000      0.00000000      0.00000000      0.00000000      0.00000000</v>
  </separator>
  <separator name="performance" >
   <i type="int" name="NPAR">    10</i>
   <i type="int" name="NSIM">     4</i>
   <i type="int" name="NBLK">    -1</i>
   <i type="logical" name="LPLANE"> T  </i>
   <i type="logical" name="LSCALAPACK"> T  </i>
   <i type="logical" name="LSCAAWARE"> F  </i>
   <i type="logical" name="LSCALU"> F  </i>
   <i type="logical" name="LASYNC"> F  </i>
   <i type="logical" name="LORBITALREAL"> F  </i>
  </separator>
  <separator name="miscellaneous" >
   <i type="int" name="IDIOT">     3</i>
   <i type="int" name="PHON_NSTRUCT">    -1</i>
   <i type="logical" name="LMUSIC"> F  </i>
   <v name="POMASS">    138.90000000     58.69000000     16.00000000</v>
   <v name="DARWINR">      0.00000000      0.00000000      0.00000000</v>
   <v name="DARWINV">      1.00000000      1.00000000      1.00000000</v>
   <i type="logical" name="LCORR"> T  </i>
  </separator>
  <i type="logical" name="GGA_COMPAT"> T  </i>
  <i type="logical" name="LBERRY"> F  </i>
  <i type="int" name="ICORELEVEL">     0</i>
  <i type="logical" name="LDAU"> T  </i>
  <v type="int" name="LDAUTYPE">     2</v>
  <v type="int" name="LDAUL">    -1</v>
  <v name="LDAUU">      0.00000000</v>
  <v name="LDAUJ">      0.00000000</v>
  <i type="int" name="LDAUPRINT">     2</i>
  <i type="int" name="I_CONSTRAINED_M">     0</i>
  <separator name="electronic exchange-correlation" >
   <i type="string" name="GGA">--</i>
   <i type="int" name="VOSKOWN">     0</i>
   <i type="logical" name="LHFCALC"> F  </i>
   <i type="string" name="PRECFOCK"></i>
   <i type="logical" name="LSYMGRAD"> F  </i>
   <i type="logical" name="LHFONE"> F  </i>
   <i type="logical" name="LRHFCALC"> F  </i>
   <i type="logical" name="LTHOMAS"> F  </i>
   <i type="logical" name="LMODELHF"> F  </i>
   <i type="logical" name="LFOCKACE"> F  </i>
   <i name="ENCUT4O">     -1.00000000</i>
   <i type="int" name="EXXOEP">     0</i>
   <i type="int" name="FOURORBIT">     0</i>
   <i name="AEXX">      0.00000000</i>
   <i name="HFALPHA">      0.00000000</i>
   <i name="MCALPHA">      0.00000000</i>
   <i name="ALDAX">      1.00000000</i>
   <i name="AGGAX">      1.00000000</i>
   <i name="ALDAC">      1.00000000</i>
   <i name="AGGAC">      1.00000000</i>
   <i type="int" name="NKREDX">     1</i>
   <i type="int" name="NKREDY">     1</i>
   <i type="int" name="NKREDZ">     1</i>
   <i type="logical" name="SHIFTRED"> F  </i>
   <i type="logical" name="ODDONLY"> F  </i>
   <i type="logical" name="EVENONLY"> F  </i>
   <i type="int" name="LMAXFOCK">     0</i>
   <i type="int" name="NMAXFOCKAE">     0</i>
   <i type="logical" name="LFOCKAEDFT"> F  </i>
   <i name="HFSCREEN">      0.00000000</i>
   <i name="HFSCREENC">      0.00000000</i>
   <i type="int" name="NBANDSGWLOW">     0</i>
  </separator>
  <separator name="vdW DFT" >
   <i type="logical" name="LUSE_VDW"> F  </i>
   <i name="Zab_VDW">     -0.84910000</i>
   <i name="PARAM1">      0.12340000</i>
   <i name="PARAM2">      1.00000000</i>
   <i name="PARAM3">      0.00000000</i>
  </separator>
  <separator name="model GW" >
   <i type="int" name="MODEL_GW">     0</i>
   <i name="MODEL_EPS0">      8.07488119</i>
   <i name="MODEL_ALPHA">      1.00000000</i>
  </separator>
  <separator name="linear response parameters" >
   <i type="logical" name="LEPSILON"> F  </i>
   <i type="logical" name="LRPA"> F  </i>
   <i type="logical" name="LNABLA"> F  </i>
   <i type="logical" name="LVEL"> F  </i>
   <i type="int" name="KINTER">     0</i>
   <i name="CSHIFT">      0.10000000</i>
   <i name="OMEGAMAX">     -1.00000000</i>
   <i name="DEG_THRESHOLD">      0.00200000</i>
   <i name="RTIME">     -0.10000000</i>
   <i name="WPLASMAI">      0.00000000</i>
   <v name="DFIELD">      0.00000000      0.00000000      0.00000000</v>
   <v name="WPLASMA">      0.00000000      0.00000000      0.00000000      0.00000000      0.00000000      0.00000000      0.00000000      0.00000000      0.00000000</v>
  </separator>
  <separator name="orbital magnetization" >
   <i type="logical" name="NUCIND"> F  </i>
   <v name="MAGPOS">      0.00000000      0.00000000      0.00000000</v>
   <i type="logical" name="LNICSALL"> T  </i>
   <i type="logical" name="ORBITALMAG"> F  </i>
   <i type="logical" name="LMAGBLOCH"> F  </i>
   <i type="logical" name="LCHIMAG"> F  </i>
   <i type="logical" name="LGAUGE"> T  </i>
   <i type="int" name="MAGATOM">     0</i>
   <v name="MAGDIPOL">      0.00000000      0.00000000      0.00000000</v>
   <v name="AVECCONST">      0.00000000      0.00000000      0.00000000</v>
  </separator>
  <separator name="response functions" >
   <i type="logical" name="LFINITE_TEMPERATURE"> F  </i>
   <i type="logical" name="LADDER"> F  </i>
   <i type="logical" name="LRPAFORCE"> F  </i>
   <i type="logical" name="LFXC"> F  </i>
   <i type="logical" name="LHARTREE"> T  </i>
   <i type="int" name="IBSE">     0</i>
   <v type="int" name="KPOINT">    -1     0     0     0</v>
   <i type="logical" name="LTCTC"> F  </i>
   <i type="logical" name="LTCTE"> F  </i>
   <i type="logical" name="LTETE"> F  </i>
   <i type="logical" name="LTRIPLET"> F  </i>
   <i type="logical" name="LFXCEPS"> F  </i>
   <i type="logical" name="LFXHEG"> F  </i>
   <i type="int" name="NATURALO">     2</i>
   <i type="logical" name="LHOLEGF"> F  </i>
   <i type="logical" name="L2ORDER"> F  </i>
   <i type="logical" name="LDMP1"> F  </i>
   <i type="logical" name="LMP2LT"> F  </i>
   <i type="logical" name="LSMP2LT"> F  </i>
   <i type="logical" name="LGWLF"> F  </i>
   <i name="ENCUTGW">     -2.00000000</i>
   <i name="ENCUTGWSOFT">     -2.00000000</i>
   <i name="ENCUTLF">     -1.00000000</i>
   <i type="logical" name="LESF_SPLINES"> F  </i>
   <i type="int" name="LMAXMP2">    -1</i>
   <i name="SCISSOR">      0.00000000</i>
   <i type="int" name="NOMEGA">     0</i>
   <i type="int" name="NOMEGAR">     0</i>
   <i type="int" name="NBANDSGW">    -1</i>
   <i type="int" name="NBANDSO">    -1</i>
   <i type="int" name="NBANDSV">    -1</i>
   <i type="int" name="NELM">     1</i>
   <i type="int" name="NELMHF">     1</i>
   <i type="int" name="DIM">     3</i>
   <i type="int" name="IESPILON">     4</i>
   <i type="int" name="ANTIRES">     0</i>
   <i name="OMEGAMAX">    -30.00000000</i>
   <i name="OMEGAMIN">    -30.00000000</i>
   <i name="OMEGATL">   -200.00000000</i>
   <i type="int" name="OMEGAGRID">     0</i>
   <i name="CSHIFT">     -0.10000000</i>
   <i type="logical" name="LSELFENERGY"> F  </i>
   <i type="logical" name="LSPECTRAL"> F  </i>
   <i type="logical" name="LSPECTRALGW"> F  </i>
   <i type="logical" name="LSINGLES"> F  </i>
   <i type="logical" name="LFERMIGW"> F  </i>
   <i type="logical" name="ODDONLYGW"> F  </i>
   <i type="logical" name="EVENONLYGW"> F  </i>
   <i type="int" name="NKREDLFX">     1</i>
   <i type="int" name="NKREDLFY">     1</i>
   <i type="int" name="NKREDLFZ">     1</i>
   <i type="int" name="MAXMEM">  2800</i>
   <i type="int" name="TELESCOPE">     0</i>
   <i type="int" name="NTAUPAR">    -1</i>
   <i type="int" name="NOMEGAPAR">    -1</i>
   <i name="DAMP_NEWTON">      0.80000001</i>
   <i name="LAMBDA">      1.00000000</i>
  </separator>
  <separator name="External order field" >
   <i name="OFIELD_KAPPA">      0.00000000</i>
   <v name="OFIELD_K">      0.00000000      0.00000000      0.00000000</v>
   <i name="OFIELD_Q6_NEAR">      0.00000000</i>
   <i name="OFIELD_Q6_FAR">      0.00000000</i>
   <i name="OFIELD_A">      0.00000000</i>
  </separator>
 </parameters>
 <atominfo>
  <atoms>      57 </atoms>
  <types>       3 </types>
  <array name="atoms" >
   <dimension dim="1">ion</dimension>
   <field type="string">element</field>
   <field type="int">atomtype</field>
   <set>
    <rc><c>La</c><c>   1</c></rc>
    <rc><c>La</c><c>   1</c></rc>
    <rc><c>La</c><c>   1</c></rc>
    <rc><c>La</c><c>   1</c></rc>
    <rc><c>La</c><c>   1</c></rc>
    <rc><c>La</c><c>   1</c></rc>
    <rc><c>La</c><c>   1</c></rc>
    <rc><c>La</c><c>   1</c></rc>
    <rc><c>La</c><c>   1</c></rc>
    <rc><c>La</c><c>   1</c></rc>
    <rc><c>La</c><c>   1</c></rc>
    <rc><c>La</c><c>   1</c></rc>
    <rc><c>La</c><c>   1</c></rc>
    <rc><c>La</c><c>   1</c></rc>
    <rc><c>La</c><c>   1</c></rc>
    <rc><c>La</c><c>   1</c></rc>
    <rc><c>Ni</c><c>   2</c></rc>
    <rc><c>Ni</c><c>   2</c></rc>
    <rc><c>Ni</c><c>   2</c></rc>
    <rc><c>Ni</c><c>   2</c></rc>
    <rc><c>Ni</c><c>   2</c></rc>
    <rc><c>Ni</c><c>   2</c></rc>
    <rc><c>Ni</c><c>   2</c></rc>
    <rc><c>Ni</c><c>   2</c></rc>
    <rc><c>O </c><c>   3</c></rc>
    <rc><c>O </c><c>   3</c></rc>
    <rc><c>O </c><c>   3</c></rc>
    <rc><c>O </c><c>   3</c></rc>
    <rc><c>O </c><c>   3</c></rc>
    <rc><c>O </c><c>   3</c></rc>
    <rc><c>O </c><c>   3</c></rc>
    <rc><c>O </c><c>   3</c></rc>
    <rc><c>O </c><c>   3</c></rc>
    <rc><c>O </c><c>   3</c></rc>
    <rc><c>O </c><c>   3</c></rc>
    <rc><c>O </c><c>   3</c></rc>
    <rc><c>O </c><c>   3</c></rc>
    <rc><c>O </c><c>   3</c></rc>
    <rc><c>O </c><c>   3</c></rc>
    <rc><c>O </c><c>   3</c></rc>
    <rc><c>O </c><c>   3</c></rc>
    <rc><c>O </c><c>   3</c></rc>
    <rc><c>O </c><c>   3</c></rc>
    <rc><c>O </c><c>   3</c></rc>
    <rc><c>O </c><c>   3</c></rc>
    <rc><c>O </c><c>   3</c></rc>
    <rc><c>O </c><c>   3</c></rc>
    <rc><c>O </c><c>   3</c></rc>
    <rc><c>O </c><c>   3</c></rc>
    <rc><c>O </c><c>   3</c></rc>
    <rc><c>O </c><c>   3</c></rc>
    <rc><c>O </c><c>   3</c></rc>
    <rc><c>O </c><c>   3</c></rc>
    <rc><c>O </c><c>   3</c></rc>
    <rc><c>O </c><c>   3</c></rc>
    <rc><c>O </c><c>   3</c></rc>
    <rc><c>O </c><c>   3</c></rc>
   </set>
  </array>
  <array name="atomtypes" >
   <dimension dim="1">type</dimension>
   <field type="int">atomspertype</field>
   <field type="string">element</field>
   <field>mass</field>
   <field>valence</field>
   <field type="string">pseudopotential</field>
   <set>
    <rc><c>  16</c><c>La</c><c>    138.90000000</c><c>     11.00000000</c><c> PAW_PBE La 06Sep2000                   </c></rc>
    <rc><c>   8</c><c>Ni</c><c>     58.69000000</c><c>     10.00000000</c><c> PAW_PBE Ni 06Sep2000                   </c></rc>
    <rc><c>  33</c><c>O </c><c>     16.00000000</c><c>      6.00000000</c><c> PAW_PBE O 08Apr2002                    </c></rc>
   </set>
  </array>
 </atominfo>
 <structure name="initialpos" >
  <crystal>
   <varray name="basis" >
    <v>       7.79489531       0.00000000       0.00000000 </v>
    <v>       0.00000000       7.79489531       0.00000000 </v>
    <v>       0.00000000       0.00000000      12.62522635 </v>
   </varray>
   <i name="volume">    767.11371282 </i>
   <varray name="rec_basis" >
    <v>       0.12828909       0.00000000       0.00000000 </v>
    <v>       0.00000000       0.12828909       0.00000000 </v>
    <v>       0.00000000       0.00000000       0.07920650 </v>
   </varray>
  </crystal>
  <varray name="positions" >
   <v>       0.24999979       0.25000000       0.14318502 </v>
   <v>       0.24999973       0.75000000       0.13883186 </v>
   <v>       0.75000021       0.25000000       0.14318502 </v>
   <v>       0.75000027       0.75000000       0.13883186 </v>
   <v>       0.00000000       0.00461743       0.35763461 </v>
   <v>       0.00000000       0.49538257       0.35763461 </v>
   <v>       0.50000000       0.00461760       0.35763460 </v>
   <v>       0.50000000       0.49538240       0.35763460 </v>
   <v>       0.00000000       0.99981746       0.63672155 </v>
   <v>       0.00000000       0.50018254       0.63672155 </v>
   <v>       0.50000000       0.99981762       0.63672151 </v>
   <v>       0.50000000       0.50018238       0.63672151 </v>
   <v>       0.24999942       0.25000000       0.86200103 </v>
   <v>       0.25000031       0.75000000       0.86164513 </v>
   <v>       0.75000058       0.25000000       0.86200103 </v>
   <v>       0.74999969       0.75000000       0.86164513 </v>
   <v>       0.00000000       0.99906830       0.00001904 </v>
   <v>       0.00000000       0.50093170       0.00001904 </v>
   <v>       0.50000000       0.99906831       0.00001902 </v>
   <v>       0.50000000       0.50093169       0.00001902 </v>
   <v>       0.25000043       0.25000000       0.50046328 </v>
   <v>       0.25000023       0.75000000       0.49684754 </v>
   <v>       0.74999957       0.25000000       0.50046328 </v>
   <v>       0.74999977       0.75000000       0.49684754 </v>
   <v>       0.25000014       0.00224079       0.99889811 </v>
   <v>       0.25000014       0.49775921       0.99889811 </v>
   <v>       0.74999986       0.00224079       0.99889811 </v>
   <v>       0.74999986       0.49775921       0.99889811 </v>
   <v>       0.00000000       0.25000000       0.00106391 </v>
   <v>       0.00000000       0.75000000       0.98352738 </v>
   <v>       0.50000000       0.25000000       0.00106282 </v>
   <v>       0.50000000       0.75000000       0.98352809 </v>
   <v>       0.00000000       0.97086475       0.17074367 </v>
   <v>       0.25000000       0.25000000       0.24897226 </v>
   <v>       0.00000000       0.52913525       0.17074367 </v>
   <v>       0.50000000       0.97086516       0.17074428 </v>
   <v>       0.50000000       0.52913484       0.17074428 </v>
   <v>       0.24999969       0.25000000       0.33127475 </v>
   <v>       0.25000024       0.75000000       0.32454410 </v>
   <v>       0.75000031       0.25000000       0.33127475 </v>
   <v>       0.74999976       0.75000000       0.32454410 </v>
   <v>       0.24999985       0.99942720       0.49985359 </v>
   <v>       0.24999985       0.50057280       0.49985359 </v>
   <v>       0.75000015       0.99942720       0.49985359 </v>
   <v>       0.75000015       0.50057280       0.49985359 </v>
   <v>       0.00000000       0.25000000       0.50738201 </v>
   <v>       0.00000000       0.75000000       0.50460558 </v>
   <v>       0.50000000       0.25000000       0.50738141 </v>
   <v>       0.50000000       0.75000000       0.50460588 </v>
   <v>       0.25000026       0.25000000       0.67610789 </v>
   <v>       0.24999900       0.75000000       0.67793407 </v>
   <v>       0.74999974       0.25000000       0.67610789 </v>
   <v>       0.75000100       0.75000000       0.67793407 </v>
   <v>       0.00000000       0.00847475       0.82150157 </v>
   <v>       0.00000000       0.49152525       0.82150157 </v>
   <v>       0.50000000       0.00847247       0.82150127 </v>
   <v>       0.50000000       0.49152753       0.82150127 </v>
  </varray>
 </structure>
 <calculation>
  <scstep>
   <time name="dav">   57.84   57.91</time>
   <time name="total">   58.27   58.34</time>
   <energy>
    <i name="alphaZ">   2080.38273532 </i>
    <i name="ewald"> -30785.24832762 </i>
    <i name="hartreedc">  -8272.91902786 </i>
    <i name="XCdc">   1685.64656384 </i>
    <i name="pawpsdc">  22625.27853936 </i>
    <i name="pawaedc"> -23055.47404522 </i>
    <i name="eentropy">     -0.18658207 </i>
    <i name="bandstr">   5564.10748496 </i>
    <i name="atom">  36731.30151241 </i>
    <i name="e_fr_energy">   6572.88885312 </i>
    <i name="e_wo_entrp">   6573.07543519 </i>
    <i name="e_0_energy">   6572.98214416 </i>
   </energy>
  </scstep>
  <scstep>
   <time name="dav">   62.49   62.57</time>
   <time name="total">   62.49   62.58</time>
   <energy>
    <i name="e_fr_energy">   2439.10345684 </i>
    <i name="e_wo_entrp">   2439.94979526 </i>
    <i name="e_0_energy">   2439.52662605 </i>
   </energy>
  </scstep>
  <scstep>
   <time name="dav">   61.68   61.78</time>
   <time name="total">   61.68   61.78</time>
   <energy>
    <i name="e_fr_energy">    571.92946995 </i>
    <i name="e_wo_entrp">    573.53520472 </i>
    <i name="e_0_energy">    572.73233734 </i>
   </energy>
  </scstep>
  <scstep>
   <time name="dav">   81.70   81.80</time>
   <time name="total">   81.71   81.80</time>
   <energy>
    <i name="e_fr_energy">   -263.05839487 </i>
    <i name="e_wo_entrp">   -261.51458895 </i>
    <i name="e_0_energy">   -262.28649191 </i>
   </energy>
  </scstep>
  <scstep>
   <time name="dav">   99.20   99.39</time>
   <time name="total">  101.62  101.82</time>
   <energy>
    <i name="e_fr_energy">   -423.67022110 </i>
    <i name="e_wo_entrp">   -422.70972452 </i>
    <i name="e_0_energy">   -423.18997281 </i>
   </energy>
  </scstep>
  <scstep>
   <time name="dav">   81.23   81.34</time>
   <time name="total">   83.78   83.90</time>
   <energy>
    <i name="e_fr_energy">   -504.66688819 </i>
    <i name="e_wo_entrp">   -504.36936764 </i>
    <i name="e_0_energy">   -504.51812792 </i>
   </energy>
  </scstep>
  <scstep>
   <time name="dav">   87.15   87.23</time>
   <time name="total">   89.61   89.70</time>
   <energy>
    <i name="e_fr_energy">   -413.12554468 </i>
    <i name="e_wo_entrp">   -412.83335996 </i>
    <i name="e_0_energy">   -412.97945232 </i>
   </energy>
  </scstep>
  <scstep>
   <time name="dav">   81.16   81.24</time>
   <time name="total">   83.60   83.69</time>
   <energy>
    <i name="e_fr_energy">   -374.21312770 </i>
    <i name="e_wo_entrp">   -373.99700899 </i>
    <i name="e_0_energy">   -374.10506835 </i>
   </energy>
  </scstep>
  <scstep>
   <time name="dav">   95.71   95.87</time>
   <time name="total">   98.82   98.99</time>
   <energy>
    <i name="e_fr_energy">   -382.80891728 </i>
    <i name="e_wo_entrp">   -382.75179718 </i>
    <i name="e_0_energy">   -382.78035723 </i>
   </energy>
  </scstep>
  <scstep>
   <time name="dav">   93.58   93.75</time>
   <time name="total">   96.01   96.19</time>
   <energy>
    <i name="e_fr_energy">   -386.05385970 </i>
    <i name="e_wo_entrp">   -386.00382641 </i>
    <i name="e_0_energy">   -386.02884306 </i>
   </energy>
  </scstep>
  <scstep>
   <time name="dav">   91.01   91.13</time>
   <time name="total">   93.45   93.58</time>
   <energy>
    <i name="e_fr_energy">   -390.15342398 </i>
    <i name="e_wo_entrp">   -390.11337212 </i>
    <i name="e_0_energy">   -390.13339805 </i>
   </energy>
  </scstep>
  <scstep>
   <time name="dav">   94.96   95.16</time>
   <time name="total">   97.40   97.60</time>
   <energy>
    <i name="e_fr_energy">   -391.69119910 </i>
    <i name="e_wo_entrp">   -391.64494198 </i>
    <i name="e_0_energy">   -391.66807054 </i>
   </energy>
  </scstep>
  <scstep>
   <time name="dav">   91.25   91.37</time>
   <time name="total">   93.70   93.82</time>
   <energy>
    <i name="e_fr_energy">   -391.81452948 </i>
    <i name="e_wo_entrp">   -391.75521720 </i>
    <i name="e_0_energy">   -391.78487334 </i>
   </energy>
  </scstep>
  <scstep>
   <time name="dav">   93.40   93.55</time>
   <time name="total">   95.84   96.00</time>
   <energy>
    <i name="e_fr_energy">   -392.06788073 </i>
    <i name="e_wo_entrp">   -392.00066867 </i>
    <i name="e_0_energy">   -392.03427470 </i>
   </energy>
  </scstep>
  <scstep>
   <time name="dav">   89.67   89.77</time>
   <time name="total">   92.11   92.21</time>
   <energy>
    <i name="e_fr_energy">   -392.08240785 </i>
    <i name="e_wo_entrp">   -392.01178356 </i>
    <i name="e_0_energy">   -392.04709570 </i>
   </energy>
  </scstep>
  <scstep>
   <time name="dav">   95.67   95.76</time>
   <time name="total">   98.11   98.21</time>
   <energy>
    <i name="e_fr_energy">   -392.13198097 </i>
    <i name="e_wo_entrp">   -392.05905058 </i>
    <i name="e_0_energy">   -392.09551577 </i>
   </energy>
  </scstep>
  <scstep>
   <time name="dav">   84.11   84.25</time>
   <time name="total">   86.55   86.69</time>
   <energy>
    <i name="e_fr_energy">   -392.12746885 </i>
    <i name="e_wo_entrp">   -392.05311897 </i>
    <i name="e_0_energy">   -392.09029391 </i>
   </energy>
  </scstep>
  <scstep>
   <time name="dav">   93.96   94.12</time>
   <time name="total">   96.64   96.81</time>
   <energy>
    <i name="e_fr_energy">   -392.12911301 </i>
    <i name="e_wo_entrp">   -392.05395014 </i>
    <i name="e_0_energy">   -392.09153158 </i>
   </energy>
  </scstep>
  <scstep>
   <time name="dav">   90.15   90.32</time>
   <time name="total">   92.59   92.77</time>
   <energy>
    <i name="e_fr_energy">   -392.13256526 </i>
    <i name="e_wo_entrp">   -392.05778012 </i>
    <i name="e_0_energy">   -392.09517269 </i>
   </energy>
  </scstep>
  <scstep>
   <time name="dav">   93.50   93.60</time>
   <time name="total">   95.97   96.08</time>
   <energy>
    <i name="e_fr_energy">   -392.13208099 </i>
    <i name="e_wo_entrp">   -392.05775525 </i>
    <i name="e_0_energy">   -392.09491812 </i>
   </energy>
  </scstep>
  <scstep>
   <time name="dav">   97.91   98.14</time>
   <time name="total">  100.35  100.58</time>
   <energy>
    <i name="e_fr_energy">   -392.13184546 </i>
    <i name="e_wo_entrp">   -392.05753091 </i>
    <i name="e_0_energy">   -392.09468818 </i>
   </energy>
  </scstep>
  <scstep>
   <time name="dav">   91.55   91.71</time>
   <time name="total">   93.99   94.15</time>
   <energy>
    <i name="e_fr_energy">   -392.13252941 </i>
    <i name="e_wo_entrp">   -392.05823532 </i>
    <i name="e_0_energy">   -392.09538237 </i>
   </energy>
  </scstep>
  <scstep>
   <time name="dav">   83.53   83.68</time>
   <time name="total">   85.95   86.11</time>
   <energy>
    <i name="e_fr_energy">   -392.13259552 </i>
    <i name="e_wo_entrp">   -392.05831523 </i>
    <i name="e_0_energy">   -392.09545537 </i>
   </energy>
  </scstep>
  <scstep>
   <time name="dav">   92.16   92.38</time>
   <time name="total">   94.61   94.83</time>
   <energy>
    <i name="e_fr_energy">   -392.13276316 </i>
    <i name="e_wo_entrp">   -392.05848478 </i>
    <i name="e_0_energy">   -392.09562397 </i>
   </energy>
  </scstep>
  <scstep>
   <time name="dav">   96.87   96.97</time>
   <time name="total">   99.30   99.40</time>
   <energy>
    <i name="e_fr_energy">   -392.13282743 </i>
    <i name="e_wo_entrp">   -392.05858208 </i>
    <i name="e_0_energy">   -392.09570475 </i>
   </energy>
  </scstep>
  <scstep>
   <time name="dav">   95.47   95.63</time>
   <time name="total">   97.90   98.06</time>
   <energy>
    <i name="e_fr_energy">   -392.13286867 </i>
    <i name="e_wo_entrp">   -392.05861204 </i>
    <i name="e_0_energy">   -392.09574036 </i>
   </energy>
  </scstep>
  <scstep>
   <time name="dav">   97.10   97.23</time>
   <time name="total">   99.53   99.66</time>
   <energy>
    <i name="e_fr_energy">   -392.13286465 </i>
    <i name="e_wo_entrp">   -392.05861073 </i>
    <i name="e_0_energy">   -392.09573769 </i>
   </energy>
  </scstep>
  <scstep>
   <time name="dav">   96.44   96.61</time>
   <time name="total">   98.86   99.04</time>
   <energy>
    <i name="e_fr_energy">   -392.13287025 </i>
    <i name="e_wo_entrp">   -392.05861977 </i>
    <i name="e_0_energy">   -392.09574501 </i>
   </energy>
  </scstep>
  <scstep>
   <time name="dav">   98.00   98.12</time>
   <time name="total">  100.43  100.56</time>
   <energy>
    <i name="e_fr_energy">   -392.13287052 </i>
    <i name="e_wo_entrp">   -392.05861929 </i>
    <i name="e_0_energy">   -392.09574491 </i>
   </energy>
  </scstep>
  <scstep>
   <time name="dav">   97.05   97.16</time>
   <time name="total">   99.49   99.60</time>
   <energy>
    <i name="e_fr_energy">   -392.13286998 </i>
    <i name="e_wo_entrp">   -392.05859974 </i>
    <i name="e_0_energy">   -392.09573486 </i>
   </energy>
  </scstep>
  <scstep>
   <time name="dav">   95.07   95.19</time>
   <time name="total">   97.56   97.69</time>
   <energy>
    <i name="e_fr_energy">   -392.13286973 </i>
    <i name="e_wo_entrp">   -392.05859460 </i>
    <i name="e_0_energy">   -392.09573217 </i>
   </energy>
  </scstep>
  <scstep>
   <time name="dav">   89.59   89.72</time>
   <time name="total">   92.03   92.16</time>
   <energy>
    <i name="e_fr_energy">   -392.13287002 </i>
    <i name="e_wo_entrp">   -392.05859848 </i>
    <i name="e_0_energy">   -392.09573425 </i>
   </energy>
  </scstep>
  <scstep>
   <time name="dav">   81.86   81.96</time>
   <time name="total">   84.30   84.41</time>
   <energy>
    <i name="e_fr_energy">   -392.13287032 </i>
    <i name="e_wo_entrp">   -392.05860423 </i>
    <i name="e_0_energy">   -392.09573728 </i>
   </energy>
  </scstep>
  <scstep>
   <time name="dav">   68.15   68.23</time>
   <time name="total">   70.56   70.65</time>
   <energy>
    <i name="e_fr_energy">   -392.13287047 </i>
    <i name="e_wo_entrp">   -392.05860631 </i>
    <i name="e_0_energy">   -392.09573839 </i>
   </energy>
  </scstep>
  <scstep>
   <time name="dav">   54.92   55.09</time>
   <time name="total">   57.34   57.51</time>
   <energy>
    <i name="e_fr_energy">   -392.13287060 </i>
    <i name="e_wo_entrp">   -392.05860636 </i>
    <i name="e_0_energy">   -392.09573848 </i>
   </energy>
  </scstep>
  <scstep>
   <time name="dav">   58.96   59.01</time>
   <time name="total">   61.40   61.46</time>
   <energy>
    <i name="e_fr_energy">   -392.13287072 </i>
    <i name="e_wo_entrp">   -392.05860669 </i>
    <i name="e_0_energy">   -392.09573871 </i>
   </energy>
  </scstep>
  <scstep>
   <time name="dav">   55.49   55.64</time>
   <time name="total">   57.94   58.09</time>
   <energy>
    <i name="e_fr_energy">   -392.13287084 </i>
    <i name="e_wo_entrp">   -392.05860755 </i>
    <i name="e_0_energy">   -392.09573920 </i>
   </energy>
  </scstep>
  <scstep>
   <time name="dav">   52.31   52.36</time>
   <time name="total">   52.74   52.79</time>
   <energy>
    <i name="alphaZ">   2080.38273532 </i>
    <i name="ewald"> -30785.24832762 </i>
    <i name="hartreedc">  -8523.85326424 </i>
    <i name="XCdc">   1699.98747399 </i>
    <i name="pawpsdc">  25503.21467502 </i>
    <i name="pawaedc"> -25999.24011304 </i>
    <i name="eentropy">     -0.07426317 </i>
    <i name="bandstr">  -1098.60329956 </i>
    <i name="atom">  36731.30151241 </i>
    <i name="e_fr_energy">   -392.13287090 </i>
    <i name="e_wo_entrp">   -392.05860773 </i>
    <i name="e_0_energy">   -392.09573931 </i>
   </energy>
  </scstep>
  <structure>
   <crystal>
    <varray name="basis" >
     <v>       7.79489531       0.00000000       0.00000000 </v>
     <v>       0.00000000       7.79489531       0.00000000 </v>
     <v>       0.00000000       0.00000000      12.62522635 </v>
    </varray>
    <i name="volume">    767.11371282 </i>
    <varray name="rec_basis" >
     <v>       0.12828909       0.00000000       0.00000000 </v>
     <v>       0.00000000       0.12828909       0.00000000 </v>
     <v>       0.00000000       0.00000000       0.07920650 </v>
    </varray>
   </crystal>
   <varray name="positions" >
    <v>       0.24999979       0.25000000       0.14318502 </v>
    <v>       0.24999973       0.75000000       0.13883186 </v>
    <v>       0.75000021       0.25000000       0.14318502 </v>
    <v>       0.75000027       0.75000000       0.13883186 </v>
    <v>       0.00000000       0.00461743       0.35763461 </v>
    <v>       0.00000000       0.49538257       0.35763461 </v>
    <v>       0.50000000       0.00461760       0.35763460 </v>
    <v>       0.50000000       0.49538240       0.35763460 </v>
    <v>       0.00000000       0.99981746       0.63672155 </v>
    <v>       0.00000000       0.50018254       0.63672155 </v>
    <v>       0.50000000       0.99981762       0.63672151 </v>
    <v>       0.50000000       0.50018238       0.63672151 </v>
    <v>       0.24999942       0.25000000       0.86200103 </v>
    <v>       0.25000031       0.75000000       0.86164513 </v>
    <v>       0.75000058       0.25000000       0.86200103 </v>
    <v>       0.74999969       0.75000000       0.86164513 </v>
    <v>       0.00000000       0.99906830       0.00001904 </v>
    <v>       0.00000000       0.50093170       0.00001904 </v>
    <v>       0.50000000       0.99906831       0.00001902 </v>
    <v>       0.50000000       0.50093169       0.00001902 </v>
    <v>       0.25000043       0.25000000       0.50046328 </v>
    <v>       0.25000023       0.75000000       0.49684754 </v>
    <v>       0.74999957       0.25000000       0.50046328 </v>
    <v>       0.74999977       0.75000000       0.49684754 </v>
    <v>       0.25000014       0.00224079       0.99889811 </v>
    <v>       0.25000014       0.49775921       0.99889811 </v>
    <v>       0.74999986       0.00224079       0.99889811 </v>
    <v>       0.74999986       0.49775921       0.99889811 </v>
    <v>       0.00000000       0.25000000       0.00106391 </v>
    <v>       0.00000000       0.75000000       0.98352738 </v>
    <v>       0.50000000       0.25000000       0.00106282 </v>
    <v>       0.50000000       0.75000000       0.98352809 </v>
    <v>       0.00000000       0.97086475       0.17074367 </v>
    <v>       0.25000000       0.25000000       0.24897226 </v>
    <v>       0.00000000       0.52913525       0.17074367 </v>
    <v>       0.50000000       0.97086516       0.17074428 </v>
    <v>       0.50000000       0.52913484       0.17074428 </v>
    <v>       0.24999969       0.25000000       0.33127475 </v>
    <v>       0.25000024       0.75000000       0.32454410 </v>
    <v>       0.75000031       0.25000000       0.33127475 </v>
    <v>       0.74999976       0.75000000       0.32454410 </v>
    <v>       0.24999985       0.99942720       0.49985359 </v>
    <v>       0.24999985       0.50057280       0.49985359 </v>
    <v>       0.75000015       0.99942720       0.49985359 </v>
    <v>       0.75000015       0.50057280       0.49985359 </v>
    <v>       0.00000000       0.25000000       0.50738201 </v>
    <v>       0.00000000       0.75000000       0.50460558 </v>
    <v>       0.50000000       0.25000000       0.50738141 </v>
    <v>       0.50000000       0.75000000       0.50460588 </v>
    <v>       0.25000026       0.25000000       0.67610789 </v>
    <v>       0.24999900       0.75000000       0.67793407 </v>
    <v>       0.74999974       0.25000000       0.67610789 </v>
    <v>       0.75000100       0.75000000       0.67793407 </v>
    <v>       0.00000000       0.00847475       0.82150157 </v>
    <v>       0.00000000       0.49152525       0.82150157 </v>
    <v>       0.50000000       0.00847247       0.82150127 </v>
    <v>       0.50000000       0.49152753       0.82150127 </v>
   </varray>
  </structure>
  <varray name="forces" >
   <v>      -0.00008260       0.00000000     -85.45002158 </v>
   <v>       0.00003534       0.00000000      -1.29517740 </v>
   <v>      -0.00001371       0.00000000      -2.67653463 </v>
   <v>      -0.00003145       0.00000000      -0.97016805 </v>
   <v>      -0.95834858      -1.79703879       1.42211001 </v>
   <v>      -0.95834858       1.79703879       1.42211001 </v>
   <v>       0.95834838      -1.79705444       1.42208292 </v>
   <v>       0.95834838       1.79705444       1.42208292 </v>
   <v>      -0.08017163      -0.04697232       0.32917284 </v>
   <v>      -0.08017163       0.04697232       0.32917284 </v>
   <v>       0.08017272      -0.04695901       0.32918675 </v>
   <v>       0.08017272       0.04695901       0.32918675 </v>
   <v>       0.00002449       0.00000000       0.90273058 </v>
   <v>       0.00001509       0.00000000       0.41690678 </v>
   <v>      -0.00001685       0.00000000       0.23761061 </v>
   <v>      -0.00001998       0.00000000       0.18713848 </v>
   <v>       0.22389655       0.11074850      -0.27053475 </v>
   <v>       0.22389655      -0.11074850      -0.27053475 </v>
   <v>      -0.22389897       0.11075798      -0.27052357 </v>
   <v>      -0.22389897      -0.11075798      -0.27052357 </v>
   <v>      -0.00006140       0.00000000       2.27423312 </v>
   <v>      -0.00004448       0.00000000       0.20227704 </v>
   <v>       0.00008618       0.00000000       0.49274775 </v>
   <v>       0.00004465       0.00000000       0.21765616 </v>
   <v>      -0.00001963      -0.83045383      -0.31371121 </v>
   <v>      -0.00001963       0.83045383      -0.31371121 </v>
   <v>       0.00001872       0.04201221       0.45364631 </v>
   <v>       0.00001872      -0.04201221       0.45364631 </v>
   <v>      -0.97383251       0.00000000       0.26714162 </v>
   <v>      -0.09828702       0.00000000       0.30535597 </v>
   <v>       0.97380653       0.00000000       0.26714657 </v>
   <v>       0.09828593       0.00000000       0.30536893 </v>
   <v>      -0.30816172       0.49795298       1.35988608 </v>
   <v>       0.00023079       0.00000000      37.52108741 </v>
   <v>      -0.30816172      -0.49795298       1.35988608 </v>
   <v>       0.30816767       0.49797236       1.35983499 </v>
   <v>       0.30816767      -0.49797236       1.35983499 </v>
   <v>      -0.00010997       0.00000000      44.62242325 </v>
   <v>      -0.00001391       0.00000000      -0.02846327 </v>
   <v>       0.00000991       0.00000000      -1.12793039 </v>
   <v>      -0.00001603       0.00000000      -0.04667454 </v>
   <v>       0.00000819       0.49245730      -0.84095589 </v>
   <v>       0.00000819      -0.49245730      -0.84095589 </v>
   <v>      -0.00000645       0.14551348      -0.61420429 </v>
   <v>      -0.00000645      -0.14551348      -0.61420429 </v>
   <v>       0.33803333       0.00000000      -1.03048524 </v>
   <v>       0.04096066       0.00000000      -0.64786259 </v>
   <v>      -0.33804529       0.00000000      -1.03047273 </v>
   <v>      -0.04095562       0.00000000      -0.64780362 </v>
   <v>       0.00001075       0.00000000      -0.31136515 </v>
   <v>       0.00001225       0.00000000      -0.24662200 </v>
   <v>      -0.00002832       0.00000000      -0.13291673 </v>
   <v>       0.00000666       0.00000000      -0.09792726 </v>
   <v>      -0.04767416       0.02299412      -0.30284294 </v>
   <v>      -0.04767416      -0.02299412      -0.30284294 </v>
   <v>       0.04766719       0.02298456      -0.30284681 </v>
   <v>       0.04766719      -0.02298456      -0.30284681 </v>
  </varray>
  <varray name="stress" >
   <v>     -33.92133057       0.00000000       0.00006311 </v>
   <v>       0.00000000     -33.95449940       0.00000000 </v>
   <v>       0.00007003       0.00000000     284.30379041 </v>
  </varray>
  <energy>
   <i name="e_fr_energy">   -392.13287090 </i>
   <i name="e_wo_entrp">   -392.05860773 </i>
   <i name="e_0_energy">   -392.09573931 </i>
  </energy>
  <time name="totalsc"> 3371.72 3377.22</time>
 </calculation>
 <calculation>
  <scstep>
   <time name="dav">   75.19   75.31</time>
   <time name="total">   77.61   77.73</time>
   <energy>
    <i name="alphaZ">   2080.38273532 </i>
    <i name="ewald"> -30787.04654630 </i>
    <i name="hartreedc">  -8523.39792111 </i>
    <i name="XCdc">   1699.95581013 </i>
    <i name="pawpsdc">  25503.21422805 </i>
    <i name="pawaedc"> -25999.23950473 </i>
    <i name="eentropy">     -0.07409147 </i>
    <i name="bandstr">  -1097.74064837 </i>
    <i name="atom">  36731.30151241 </i>
    <i name="e_fr_energy">   -392.64442607 </i>
    <i name="e_wo_entrp">   -392.57033460 </i>
    <i name="e_0_energy">   -392.60738033 </i>
   </energy>
  </scstep>
  <scstep>
   <time name="dav">   96.20   96.30</time>
   <time name="total">   98.63   98.74</time>
   <energy>
    <i name="e_fr_energy">   -392.64559591 </i>
    <i name="e_wo_entrp">   -392.57145218 </i>
    <i name="e_0_energy">   -392.60852404 </i>
   </energy>
  </scstep>
  <scstep>
   <time name="dav">   96.23   96.45</time>
   <time name="total">   98.67   98.89</time>
   <energy>
    <i name="e_fr_energy">   -392.64558783 </i>
    <i name="e_wo_entrp">   -392.57142274 </i>
    <i name="e_0_energy">   -392.60850529 </i>
   </energy>
  </scstep>
  <scstep>
   <time name="dav">   93.05   93.18</time>
   <time name="total">   95.48   95.61</time>
   <energy>
    <i name="e_fr_energy">   -392.64552610 </i>
    <i name="e_wo_entrp">   -392.57132202 </i>
    <i name="e_0_energy">   -392.60842406 </i>
   </energy>
  </scstep>
  <scstep>
   <time name="dav">   86.22   86.32</time>
   <time name="total">   88.67   88.77</time>
   <energy>
    <i name="e_fr_energy">   -392.64554001 </i>
    <i name="e_wo_entrp">   -392.57132779 </i>
    <i name="e_0_energy">   -392.60843390 </i>
   </energy>
  </scstep>
  <scstep>
   <time name="dav">   92.32   92.48</time>
   <time name="total">   95.16   95.32</time>
   <energy>
    <i name="e_fr_energy">   -392.64552882 </i>
    <i name="e_wo_entrp">   -392.57132907 </i>
    <i name="e_0_energy">   -392.60842894 </i>
   </energy>
  </scstep>
  <scstep>
   <time name="dav">   93.51   93.60</time>
   <time name="total">   95.92   96.02</time>
   <energy>
    <i name="e_fr_energy">   -392.64552458 </i>
    <i name="e_wo_entrp">   -392.57133029 </i>
    <i name="e_0_energy">   -392.60842743 </i>
   </energy>
  </scstep>
  <scstep>
   <time name="dav">   93.58   93.88</time>
   <time name="total">   96.00   96.30</time>
   <energy>
    <i name="e_fr_energy">   -392.64552554 </i>
    <i name="e_wo_entrp">   -392.57134260 </i>
    <i name="e_0_energy">   -392.60843407 </i>
   </energy>
  </scstep>
  <scstep>
   <time name="dav">   90.29   90.49</time>
   <time name="total">   92.72   92.92</time>
   <energy>
    <i name="e_fr_energy">   -392.64552506 </i>
    <i name="e_wo_entrp">   -392.57133495 </i>
    <i name="e_0_energy">   -392.60843001 </i>
   </energy>
  </scstep>
  <scstep>
   <time name="dav">   82.31   82.42</time>
   <time name="total">   84.74   84.86</time>
   <energy>
    <i name="e_fr_energy">   -392.64552516 </i>
    <i name="e_wo_entrp">   -392.57133674 </i>
    <i name="e_0_energy">   -392.60843095 </i>
   </energy>
  </scstep>
  <scstep>
   <time name="dav">   70.01   70.08</time>
   <time name="total">   70.43   70.50</time>
   <energy>
    <i name="alphaZ">   2080.38273532 </i>
    <i name="ewald"> -30787.04654630 </i>
    <i name="hartreedc">  -8523.52412346 </i>
    <i name="XCdc">   1699.95806879 </i>
    <i name="pawpsdc">  25496.63098727 </i>
    <i name="pawaedc"> -25992.58166889 </i>
    <i name="eentropy">     -0.07418799 </i>
    <i name="bandstr">  -1097.69230230 </i>
    <i name="atom">  36731.30151241 </i>
    <i name="e_fr_energy">   -392.64552515 </i>
    <i name="e_wo_entrp">   -392.57133716 </i>
    <i name="e_0_energy">   -392.60843116 </i>
   </energy>
  </scstep>
  <structure>
   <crystal>
    <varray name="basis" >
     <v>       7.79489531       0.00000000       0.00000000 </v>
     <v>       0.00000000       7.79489531       0.00000000 </v>
     <v>       0.00000000       0.00000000      12.62522635 </v>
    </varray>
    <i name="volume">    767.11371282 </i>
    <varray name="rec_basis" >
     <v>       0.12828909       0.00000000       0.00000000 </v>
     <v>       0.00000000       0.12828909       0.00000000 </v>
     <v>       0.00000000       0.00000000       0.07920650 </v>
    </varray>
   </crystal>
   <varray name="positions" >
    <v>       0.24999979       0.25000000       0.14285883 </v>
    <v>       0.24999973       0.75000000       0.13882692 </v>
    <v>       0.75000021       0.25000000       0.14317480 </v>
    <v>       0.75000027       0.75000000       0.13882816 </v>
    <v>      -0.00000593       0.00460632       0.35764004 </v>
    <v>      -0.00000593       0.49539368       0.35764004 </v>
    <v>       0.50000593       0.00460649       0.35764003 </v>
    <v>       0.50000593       0.49539351       0.35764003 </v>
    <v>      -0.00000050       0.99981717       0.63672280 </v>
    <v>      -0.00000050       0.50018283       0.63672280 </v>
    <v>       0.50000050       0.99981733       0.63672277 </v>
    <v>       0.50000050       0.50018267       0.63672277 </v>
    <v>       0.24999942       0.25000000       0.86200448 </v>
    <v>       0.25000031       0.75000000       0.86164672 </v>
    <v>       0.75000058       0.25000000       0.86200194 </v>
    <v>       0.74999969       0.75000000       0.86164584 </v>
    <v>       0.00000138       0.99906898       0.00001800 </v>
    <v>       0.00000138       0.50093102       0.00001800 </v>
    <v>       0.49999862       0.99906900       0.00001799 </v>
    <v>       0.49999862       0.50093100       0.00001799 </v>
    <v>       0.25000043       0.25000000       0.50047196 </v>
    <v>       0.25000023       0.75000000       0.49684831 </v>
    <v>       0.74999957       0.25000000       0.50046516 </v>
    <v>       0.74999977       0.75000000       0.49684837 </v>
    <v>       0.25000014       0.00223566       0.99889691 </v>
    <v>       0.25000014       0.49776434       0.99889691 </v>
    <v>       0.74999986       0.00224105       0.99889984 </v>
    <v>       0.74999986       0.49775895       0.99889984 </v>
    <v>      -0.00000602       0.25000000       0.00106493 </v>
    <v>      -0.00000061       0.75000000       0.98352855 </v>
    <v>       0.50000602       0.25000000       0.00106384 </v>
    <v>       0.50000061       0.75000000       0.98352926 </v>
    <v>      -0.00000191       0.97086783       0.17074886 </v>
    <v>       0.25000000       0.25000000       0.24911548 </v>
    <v>      -0.00000191       0.52913217       0.17074886 </v>
    <v>       0.50000191       0.97086824       0.17074947 </v>
    <v>       0.50000191       0.52913176       0.17074947 </v>
    <v>       0.24999969       0.25000000       0.33144509 </v>
    <v>       0.25000024       0.75000000       0.32454399 </v>
    <v>       0.75000031       0.25000000       0.33127045 </v>
    <v>       0.74999976       0.75000000       0.32454392 </v>
    <v>       0.24999985       0.99943025       0.49985038 </v>
    <v>       0.24999985       0.50056975       0.49985038 </v>
    <v>       0.75000015       0.99942810       0.49985125 </v>
    <v>       0.75000015       0.50057190       0.49985125 </v>
    <v>       0.00000209       0.25000000       0.50737807 </v>
    <v>       0.00000025       0.75000000       0.50460311 </v>
    <v>       0.49999791       0.25000000       0.50737747 </v>
    <v>       0.49999975       0.75000000       0.50460341 </v>
    <v>       0.25000026       0.25000000       0.67610670 </v>
    <v>       0.24999900       0.75000000       0.67793313 </v>
    <v>       0.74999974       0.25000000       0.67610738 </v>
    <v>       0.75000100       0.75000000       0.67793370 </v>
    <v>      -0.00000029       0.00847490       0.82150041 </v>
    <v>      -0.00000029       0.49152510       0.82150041 </v>
    <v>       0.50000029       0.00847261       0.82150012 </v>
    <v>       0.50000029       0.49152739       0.82150012 </v>
   </varray>
  </structure>
  <varray name="forces" >
   <v>      -0.00007087       0.00000000     -83.40850493 </v>
   <v>       0.00002899       0.00000000      -1.29560828 </v>
   <v>      -0.00000865       0.00000000      -2.67783206 </v>
   <v>      -0.00002900       0.00000000      -0.97207550 </v>
   <v>      -0.95076441      -1.78988016       1.42628977 </v>
   <v>      -0.95076441       1.78988016       1.42628977 </v>
   <v>       0.95076494      -1.78989943       1.42626312 </v>
   <v>       0.95076494       1.78989943       1.42626312 </v>
   <v>      -0.07903407      -0.04581756       0.32716223 </v>
   <v>      -0.07903407       0.04581756       0.32716223 </v>
   <v>       0.07903444      -0.04581157       0.32717471 </v>
   <v>       0.07903444       0.04581157       0.32717471 </v>
   <v>       0.00001578       0.00000000       0.89261447 </v>
   <v>       0.00000855       0.00000000       0.41540074 </v>
   <v>      -0.00001448       0.00000000       0.23603220 </v>
   <v>      -0.00000934       0.00000000       0.18674293 </v>
   <v>       0.22100603       0.10790524      -0.27259246 </v>
   <v>       0.22100603      -0.10790524      -0.27259246 </v>
   <v>      -0.22100697       0.10791471      -0.27258153 </v>
   <v>      -0.22100697      -0.10791471      -0.27258153 </v>
   <v>      -0.00007454       0.00000000       2.26927777 </v>
   <v>      -0.00004319       0.00000000       0.20329193 </v>
   <v>       0.00008672       0.00000000       0.49350947 </v>
   <v>       0.00004318       0.00000000       0.21834857 </v>
   <v>      -0.00001728      -0.83660528      -0.31527661 </v>
   <v>      -0.00001728       0.83660528      -0.31527661 </v>
   <v>       0.00001793       0.04211844       0.45497564 </v>
   <v>       0.00001793      -0.04211844       0.45497564 </v>
   <v>      -0.98039074       0.00000000       0.26540416 </v>
   <v>      -0.09828150       0.00000000       0.30618313 </v>
   <v>       0.98036540       0.00000000       0.26541022 </v>
   <v>       0.09828110       0.00000000       0.30619650 </v>
   <v>      -0.30247065       0.50500901       1.35793943 </v>
   <v>       0.00021793       0.00000000      35.54655167 </v>
   <v>      -0.30247065      -0.50500901       1.35793943 </v>
   <v>       0.30247101       0.50502646       1.35788844 </v>
   <v>       0.30247101      -0.50502646       1.35788844 </v>
   <v>      -0.00011941       0.00000000      44.56932477 </v>
   <v>      -0.00000919       0.00000000      -0.03118238 </v>
   <v>       0.00000343       0.00000000      -1.13059943 </v>
   <v>       0.00000189       0.00000000      -0.04920623 </v>
   <v>       0.00000684       0.48752026      -0.83790965 </v>
   <v>       0.00000684      -0.48752026      -0.83790965 </v>
   <v>      -0.00000622       0.14486546      -0.61481774 </v>
   <v>      -0.00000622      -0.14486546      -0.61481774 </v>
   <v>       0.33384871       0.00000000      -1.02767882 </v>
   <v>       0.04028574       0.00000000      -0.64849257 </v>
   <v>      -0.33385243       0.00000000      -1.02765933 </v>
   <v>      -0.04028455       0.00000000      -0.64844753 </v>
   <v>       0.00001726       0.00000000      -0.30696412 </v>
   <v>       0.00001012       0.00000000      -0.24508275 </v>
   <v>      -0.00002214       0.00000000      -0.13147739 </v>
   <v>      -0.00000568       0.00000000      -0.09733761 </v>
   <v>      -0.04735692       0.02333883      -0.30129148 </v>
   <v>      -0.04735692      -0.02333883      -0.30129148 </v>
   <v>       0.04735579       0.02332941      -0.30129367 </v>
   <v>       0.04735579      -0.02332941      -0.30129367 </v>
  </varray>
  <varray name="stress" >
   <v>     -33.89190640       0.00000000       0.00015464 </v>
   <v>       0.00000000     -33.98514427       0.00000000 </v>
   <v>       0.00014938       0.00000000     279.78074127 </v>
  </varray>
  <energy>
   <i name="e_fr_energy">   -392.64552515 </i>
   <i name="e_wo_entrp">   -392.57133716 </i>
   <i name="e_0_energy">   -392.60843116 </i>
  </energy>
  <time name="totalsc"> 1057.67 1059.42</time>
 </calculation>
 <calculation>
  <scstep>
   <time name="dav">   73.13   73.20</time>
   <time name="total">   75.55   75.62</time>
   <energy>
    <i name="alphaZ">   2080.38273532 </i>
    <i name="ewald"> -30816.10400575 </i>
    <i name="hartreedc">  -8517.42670807 </i>
    <i name="XCdc">   1699.35646186 </i>
    <i name="pawpsdc">  25496.62736666 </i>
    <i name="pawaedc"> -25992.57800328 </i>
    <i name="eentropy">     -0.06827467 </i>
    <i name="bandstr">  -1082.13511174 </i>
    <i name="atom">  36731.30151241 </i>
    <i name="e_fr_energy">   -400.64402726 </i>
    <i name="e_wo_entrp">   -400.57575259 </i>
    <i name="e_0_energy">   -400.60988993 </i>
   </energy>
  </scstep>
  <scstep>
   <time name="dav">   93.70   93.89</time>
   <time name="total">   96.13   96.31</time>
   <energy>
    <i name="e_fr_energy">   -401.10408594 </i>
    <i name="e_wo_entrp">   -401.03486761 </i>
    <i name="e_0_energy">   -401.06947677 </i>
   </energy>
  </scstep>
  <scstep>
   <time name="dav">   95.74   95.85</time>
   <time name="total">   98.18   98.29</time>
   <energy>
    <i name="e_fr_energy">   -401.10048664 </i>
    <i name="e_wo_entrp">   -401.03079443 </i>
    <i name="e_0_energy">   -401.06564053 </i>
   </energy>
  </scstep>
  <scstep>
   <time name="dav">   90.96   91.06</time>
   <time name="total">   93.39   93.50</time>
   <energy>
    <i name="e_fr_energy">   -401.08028229 </i>
    <i name="e_wo_entrp">   -401.00841579 </i>
    <i name="e_0_energy">   -401.04434904 </i>
   </energy>
  </scstep>
  <scstep>
   <time name="dav">   86.64   86.75</time>
   <time name="total">   89.13   89.24</time>
   <energy>
    <i name="e_fr_energy">   -401.08411441 </i>
    <i name="e_wo_entrp">   -401.01324207 </i>
    <i name="e_0_energy">   -401.04867824 </i>
   </energy>
  </scstep>
  <scstep>
   <time name="dav">   91.52   91.63</time>
   <time name="total">   93.97   94.08</time>
   <energy>
    <i name="e_fr_energy">   -401.08029750 </i>
    <i name="e_wo_entrp">   -401.00996565 </i>
    <i name="e_0_energy">   -401.04513157 </i>
   </energy>
  </scstep>
  <scstep>
   <time name="dav">   92.93   93.04</time>
   <time name="total">   95.38   95.49</time>
   <energy>
    <i name="e_fr_energy">   -401.07897377 </i>
    <i name="e_wo_entrp">   -401.00862492 </i>
    <i name="e_0_energy">   -401.04379934 </i>
   </energy>
  </scstep>
  <scstep>
   <time name="dav">   94.61   94.71</time>
   <time name="total">   97.02   97.13</time>
   <energy>
    <i name="e_fr_energy">   -401.07930327 </i>
    <i name="e_wo_entrp">   -401.00935736 </i>
    <i name="e_0_energy">   -401.04433031 </i>
   </energy>
  </scstep>
  <scstep>
   <time name="dav">   89.71   89.87</time>
   <time name="total">   92.12   92.29</time>
   <energy>
    <i name="e_fr_energy">   -401.07910188 </i>
    <i name="e_wo_entrp">   -401.00902216 </i>
    <i name="e_0_energy">   -401.04406202 </i>
   </energy>
  </scstep>
  <scstep>
   <time name="dav">   98.02   98.11</time>
   <time name="total">  100.50  100.72</time>
   <energy>
    <i name="e_fr_energy">   -401.07916458 </i>
    <i name="e_wo_entrp">   -401.00900917 </i>
    <i name="e_0_energy">   -401.04408687 </i>
   </energy>
  </scstep>
  <scstep>
   <time name="dav">   90.57   90.65</time>
   <time name="total">   93.00   93.10</time>
   <energy>
    <i name="e_fr_energy">   -401.07915603 </i>
    <i name="e_wo_entrp">   -401.00901614 </i>
    <i name="e_0_energy">   -401.04408608 </i>
   </energy>
  </scstep>
  <scstep>
   <time name="dav">   99.61   99.74</time>
   <time name="total">  102.04  102.18</time>
   <energy>
    <i name="e_fr_energy">   -401.07917043 </i>
    <i name="e_wo_entrp">   -401.00901662 </i>
    <i name="e_0_energy">   -401.04409352 </i>
   </energy>
  </scstep>
  <scstep>
   <time name="dav">   93.68   93.80</time>
   <time name="total">   96.10   96.22</time>
   <energy>
    <i name="e_fr_energy">   -401.07916946 </i>
    <i name="e_wo_entrp">   -401.00898867 </i>
    <i name="e_0_energy">   -401.04407907 </i>
   </energy>
  </scstep>
  <scstep>
   <time name="dav">   98.57   98.81</time>
   <time name="total">  101.00  101.24</time>
   <energy>
    <i name="e_fr_energy">   -401.07916761 </i>
    <i name="e_wo_entrp">   -401.00898928 </i>
    <i name="e_0_energy">   -401.04407845 </i>
   </energy>
  </scstep>
  <scstep>
   <time name="dav">   95.94   96.05</time>
   <time name="total">   98.38   98.51</time>
   <energy>
    <i name="e_fr_energy">   -401.07916935 </i>
    <i name="e_wo_entrp">   -401.00899982 </i>
    <i name="e_0_energy">   -401.04408458 </i>
   </energy>
  </scstep>
  <scstep>
   <time name="dav">   96.39   96.48</time>
   <time name="total">   98.80   98.90</time>
   <energy>
    <i name="e_fr_energy">   -401.07916893 </i>
    <i name="e_wo_entrp">   -401.00900464 </i>
    <i name="e_0_energy">   -401.04408678 </i>
   </energy>
  </scstep>
  <scstep>
   <time name="dav">   99.89  100.05</time>
   <time name="total">  102.40  102.56</time>
   <energy>
    <i name="e_fr_energy">   -401.07916892 </i>
    <i name="e_wo_entrp">   -401.00900779 </i>
    <i name="e_0_energy">   -401.04408835 </i>
   </energy>
  </scstep>
  <scstep>
   <time name="dav">   83.49   83.68</time>
   <time name="total">   85.91   86.10</time>
   <energy>
    <i name="e_fr_energy">   -401.07916911 </i>
    <i name="e_wo_entrp">   -401.00900722 </i>
    <i name="e_0_energy">   -401.04408816 </i>
   </energy>
  </scstep>
  <scstep>
   <time name="dav">   75.99   76.09</time>
   <time name="total">   76.39   76.49</time>
   <energy>
    <i name="alphaZ">   2080.38273532 </i>
    <i name="ewald"> -30816.10400575 </i>
    <i name="hartreedc">  -8519.47404605 </i>
    <i name="XCdc">   1699.36370550 </i>
    <i name="pawpsdc">  25355.89158485 </i>
    <i name="pawaedc"> -25850.55146495 </i>
    <i name="eentropy">     -0.07016369 </i>
    <i name="bandstr">  -1081.81902668 </i>
    <i name="atom">  36731.30151241 </i>
    <i name="e_fr_energy">   -401.07916905 </i>
    <i name="e_wo_entrp">   -401.00900536 </i>
    <i name="e_0_energy">   -401.04408720 </i>
   </energy>
  </scstep>
  <structure>
   <crystal>
    <varray name="basis" >
     <v>       7.79489531       0.00000000       0.00000000 </v>
     <v>       0.00000000       7.79489531       0.00000000 </v>
     <v>       0.00000000       0.00000000      12.62522635 </v>
    </varray>
    <i name="volume">    767.11371282 </i>
    <varray name="rec_basis" >
     <v>       0.12828909       0.00000000       0.00000000 </v>
     <v>       0.00000000       0.12828909       0.00000000 </v>
     <v>       0.00000000       0.00000000       0.07920650 </v>
    </varray>
   </crystal>
   <varray name="positions" >
    <v>       0.24999978       0.25000000       0.13603146 </v>
    <v>       0.24999973       0.75000000       0.13872087 </v>
    <v>       0.75000021       0.25000000       0.14295561 </v>
    <v>       0.75000027       0.75000000       0.13874859 </v>
    <v>      -0.00013198       0.00436902       0.35775679 </v>
    <v>      -0.00013198       0.49563098       0.35775679 </v>
    <v>       0.50013198       0.00436919       0.35775678 </v>
    <v>       0.50013198       0.49563081       0.35775678 </v>
    <v>      -0.00001097       0.99981109       0.63674958 </v>
    <v>      -0.00001097       0.50018891       0.63674958 </v>
    <v>       0.50001097       0.99981125       0.63674955 </v>
    <v>       0.50001097       0.50018875       0.63674955 </v>
    <v>       0.24999942       0.25000000       0.86207754 </v>
    <v>       0.25000031       0.75000000       0.86168072 </v>
    <v>       0.75000058       0.25000000       0.86202126 </v>
    <v>       0.74999969       0.75000000       0.86166113 </v>
    <v>       0.00003068       0.99908329      -0.00000431 </v>
    <v>       0.00003068       0.50091671      -0.00000431 </v>
    <v>       0.49996931       0.99908331      -0.00000432 </v>
    <v>       0.49996931       0.50091669      -0.00000432 </v>
    <v>       0.25000042       0.25000000       0.50065771 </v>
    <v>       0.25000023       0.75000000       0.49686495 </v>
    <v>       0.74999958       0.25000000       0.50050555 </v>
    <v>       0.74999977       0.75000000       0.49686624 </v>
    <v>       0.25000014       0.00212474       0.99887110 </v>
    <v>       0.25000014       0.49787526       0.99887110 </v>
    <v>       0.74999986       0.00224664       0.99893708 </v>
    <v>       0.74999986       0.49775336       0.99893708 </v>
    <v>      -0.00013600       0.25000000       0.00108666 </v>
    <v>      -0.00001364       0.75000000       0.98355361 </v>
    <v>       0.50013600       0.25000000       0.00108556 </v>
    <v>       0.50001364       0.75000000       0.98355432 </v>
    <v>      -0.00004201       0.97093478       0.17086001 </v>
    <v>       0.24999997       0.25000000       0.25202514 </v>
    <v>      -0.00004201       0.52906522       0.17086001 </v>
    <v>       0.50004201       0.97093520       0.17086062 </v>
    <v>       0.50004201       0.52906480       0.17086062 </v>
    <v>       0.24999969       0.25000000       0.33509330 </v>
    <v>       0.25000024       0.75000000       0.32454144 </v>
    <v>       0.75000030       0.25000000       0.33117790 </v>
    <v>       0.74999976       0.75000000       0.32453989 </v>
    <v>       0.24999985       0.99949488       0.49978180 </v>
    <v>       0.24999985       0.50050512       0.49978180 </v>
    <v>       0.75000015       0.99944731       0.49980092 </v>
    <v>       0.75000015       0.50055269       0.49980092 </v>
    <v>       0.00004635       0.25000000       0.50729395 </v>
    <v>       0.00000559       0.75000000       0.50455002 </v>
    <v>       0.49995365       0.25000000       0.50729336 </v>
    <v>       0.49999441       0.75000000       0.50455033 </v>
    <v>       0.25000026       0.25000000       0.67608157 </v>
    <v>       0.24999900       0.75000000       0.67791307 </v>
    <v>       0.74999974       0.25000000       0.67609662 </v>
    <v>       0.75000100       0.75000000       0.67792573 </v>
    <v>      -0.00000657       0.00847799       0.82147575 </v>
    <v>      -0.00000657       0.49152201       0.82147575 </v>
    <v>       0.50000657       0.00847570       0.82147546 </v>
    <v>       0.50000657       0.49152430       0.82147546 </v>
   </varray>
  </structure>
  <varray name="forces" >
   <v>      -0.00000365       0.00000000     -50.73914118 </v>
   <v>       0.00003233       0.00000000      -1.24302153 </v>
   <v>      -0.00001420       0.00000000      -2.66189980 </v>
   <v>      -0.00003208       0.00000000      -0.99650797 </v>
   <v>      -0.76669748      -1.62486065       1.45367630 </v>
   <v>      -0.76669748       1.62486065       1.45367630 </v>
   <v>       0.76669872      -1.62487927       1.45364504 </v>
   <v>       0.76669872       1.62487927       1.45364504 </v>
   <v>      -0.05835728      -0.02455984       0.27061015 </v>
   <v>      -0.05835728       0.02455984       0.27061015 </v>
   <v>       0.05835806      -0.02455317       0.27062570 </v>
   <v>       0.05835806       0.02455317       0.27062570 </v>
   <v>       0.00001845       0.00000000       0.56961529 </v>
   <v>       0.00001132       0.00000000       0.36811302 </v>
   <v>      -0.00001650       0.00000000       0.18482196 </v>
   <v>      -0.00001183       0.00000000       0.18681352 </v>
   <v>       0.13770656       0.02321576      -0.30614473 </v>
   <v>       0.13770656      -0.02321576      -0.30614473 </v>
   <v>      -0.13770537       0.02321509      -0.30613270 </v>
   <v>      -0.13770537      -0.02321509      -0.30613270 </v>
   <v>      -0.00007473       0.00000000       2.19154059 </v>
   <v>      -0.00004129       0.00000000       0.21595240 </v>
   <v>       0.00008458       0.00000000       0.50319825 </v>
   <v>       0.00004204       0.00000000       0.22618409 </v>
   <v>      -0.00007419      -0.85648545      -0.31357170 </v>
   <v>      -0.00007419       0.85648545      -0.31357170 </v>
   <v>       0.00007256       0.06111917       0.47050971 </v>
   <v>       0.00007256      -0.06111917       0.47050971 </v>
   <v>      -1.01039892       0.00000000       0.26538533 </v>
   <v>      -0.08482062       0.00000000       0.30257651 </v>
   <v>       1.01036468       0.00000000       0.26539833 </v>
   <v>       0.08481980       0.00000000       0.30257931 </v>
   <v>      -0.22823949       0.60239450       1.27148262 </v>
   <v>       0.00013741       0.00000000       5.68336770 </v>
   <v>      -0.22823949      -0.60239450       1.27148262 </v>
   <v>       0.22823968       0.60240376       1.27146616 </v>
   <v>       0.22823968      -0.60240376       1.27146616 </v>
   <v>      -0.00010288       0.00000000      42.29673787 </v>
   <v>      -0.00000792       0.00000000      -0.08315559 </v>
   <v>       0.00000301       0.00000000      -1.18433429 </v>
   <v>       0.00000709       0.00000000      -0.08911918 </v>
   <v>       0.00000635       0.38423468      -0.76521169 </v>
   <v>       0.00000635      -0.38423468      -0.76521169 </v>
   <v>      -0.00000553       0.13300729      -0.61728446 </v>
   <v>      -0.00000553      -0.13300729      -0.61728446 </v>
   <v>       0.24557804       0.00000000      -0.96154881 </v>
   <v>       0.02716546       0.00000000      -0.65616553 </v>
   <v>      -0.24557821       0.00000000      -0.96153044 </v>
   <v>      -0.02716506       0.00000000      -0.65612474 </v>
   <v>       0.00002004       0.00000000      -0.20054350 </v>
   <v>       0.00000988       0.00000000      -0.20143042 </v>
   <v>      -0.00002045       0.00000000      -0.09059709 </v>
   <v>      -0.00000905       0.00000000      -0.08240568 </v>
   <v>      -0.03466142       0.03842482      -0.26551291 </v>
   <v>      -0.03466142      -0.03842482      -0.26551291 </v>
   <v>       0.03466044       0.03841683      -0.26553669 </v>
   <v>       0.03466044      -0.03841683      -0.26553669 </v>
  </varray>
  <varray name="stress" >
   <v>     -33.43170091       0.00000000       0.00009008 </v>
   <v>       0.00000000     -34.28343842       0.00000000 </v>
   <v>       0.00008917       0.00000000     201.77853945 </v>
  </varray>
  <energy>
   <i name="e_fr_energy">   -401.07916905 </i>
   <i name="e_wo_entrp">   -401.00900536 </i>
   <i name="e_0_energy">   -401.04408720 </i>
  </energy>
  <time name="totalsc"> 1848.97 1851.63</time>
 </calculation>
 <calculation>
  <scstep>
   <time name="dav">   71.57   71.72</time>
   <time name="total">   73.97   74.13</time>
   <energy>
    <i name="alphaZ">   2080.38273532 </i>
    <i name="ewald"> -30847.27787561 </i>
    <i name="hartreedc">  -8519.90022813 </i>
    <i name="XCdc">   1698.38016229 </i>
    <i name="pawpsdc">  25355.89417198 </i>
    <i name="pawaedc"> -25850.55462588 </i>
    <i name="eentropy">     -0.05049201 </i>
    <i name="bandstr">  -1057.88092970 </i>
    <i name="atom">  36731.30151241 </i>
    <i name="e_fr_energy">   -409.70556932 </i>
    <i name="e_wo_entrp">   -409.65507731 </i>
    <i name="e_0_energy">   -409.68032332 </i>
   </energy>
  </scstep>
  <scstep>
   <time name="dav">   95.97   96.10</time>
   <time name="total">   98.42   98.55</time>
   <energy>
    <i name="e_fr_energy">   -410.75292176 </i>
    <i name="e_wo_entrp">   -410.70568534 </i>
    <i name="e_0_energy">   -410.72930355 </i>
   </energy>
  </scstep>
[...]
       <r>    10.9331   112.6732   289.4157 </r>
       <r>    11.0638    90.8314   301.2929 </r>
       <r>    11.1946    48.7047   307.6615 </r>
       <r>    11.3254    15.1968   309.6487 </r>
       <r>    11.4561     2.4809   309.9731 </r>
       <r>    11.5869     0.1983   309.9990 </r>
       <r>    11.7177     0.0075   310.0000 </r>
       <r>    11.8484     0.0001   310.0000 </r>
       <r>    11.9792     0.0000   310.0000 </r>
       <r>    12.1099     0.0000   310.0000 </r>
       <r>    12.2407     0.0000   310.0000 </r>
       <r>    12.3715     0.0000   310.0000 </r>
       <r>    12.5022     0.0000   310.0000 </r>
       <r>    12.6330     0.0000   310.0000 </r>
       <r>    12.7637     0.0000   310.0000 </r>
       <r>    12.8945     0.0000   310.0000 </r>
       <r>    13.0253     0.0000   310.0000 </r>
       <r>    13.1560     0.0000   310.0000 </r>
      </set>
      <set comment="spin 2">
       <r>   -26.0722     0.0000     0.0000 </r>
       <r>   -25.9415     0.0000     0.0000 </r>
       <r>   -25.8107     0.0000     0.0000 </r>
       <r>   -25.6800     0.0000     0.0000 </r>
       <r>   -25.5492     0.0000     0.0000 </r>
       <r>   -25.4184     0.0000     0.0000 </r>
       <r>   -25.2877     0.0000     0.0000 </r>
       <r>   -25.1569     0.0000     0.0000 </r>
       <r>   -25.0262     0.0000     0.0000 </r>
       <r>   -24.8954     0.0000     0.0000 </r>
       <r>   -24.7646     0.0000     0.0000 </r>
       <r>   -24.6339     0.0002     0.0000 </r>
       <r>   -24.5031     0.0089     0.0012 </r>
       <r>   -24.3723     0.1689     0.0233 </r>
       <r>   -24.2416     1.5190     0.2219 </r>
       <r>   -24.1108     6.7275     1.1016 </r>
       <r>   -23.9801    15.9631     3.1889 </r>
       <r>   -23.8493    23.5430     6.2675 </r>
       <r>   -23.7185    25.3356     9.5804 </r>
       <r>   -23.5878    21.4376    12.3836 </r>
       <r>   -23.4570    15.0744    14.3547 </r>
       <r>   -23.3263     8.6230    15.4823 </r>
       <r>   -23.1955     3.2417    15.9061 </r>
       <r>   -23.0647     0.6519    15.9914 </r>
       <r>   -22.9340     0.0630    15.9996 </r>
       <r>   -22.8032     0.0028    16.0000 </r>
       <r>   -22.6725     0.0001    16.0000 </r>
       <r>   -22.5417     0.0000    16.0000 </r>
       <r>   -22.4109     0.0000    16.0000 </r>
       <r>   -22.2802     0.0000    16.0000 </r>
       <r>   -22.1494     0.0000    16.0000 </r>
       <r>   -22.0187     0.0000    16.0000 </r>
       <r>   -21.8879     0.0000    16.0000 </r>
       <r>   -21.7571     0.0000    16.0000 </r>
       <r>   -21.6264     0.0000    16.0000 </r>
       <r>   -21.4956     0.0000    16.0000 </r>
       <r>   -21.3648     0.0000    16.0000 </r>
       <r>   -21.2341     0.0000    16.0000 </r>
       <r>   -21.1033     0.0000    16.0000 </r>
       <r>   -20.9726     0.0000    16.0000 </r>
       <r>   -20.8418     0.0000    16.0000 </r>
       <r>   -20.7110     0.0000    16.0000 </r>
       <r>   -20.5803     0.0000    16.0000 </r>
       <r>   -20.4495     0.0000    16.0000 </r>
       <r>   -20.3188     0.0000    16.0000 </r>
       <r>   -20.1880     0.0000    16.0000 </r>
       <r>   -20.0572     0.0000    16.0000 </r>
       <r>   -19.9265     0.0000    16.0000 </r>
       <r>   -19.7957     0.0000    16.0000 </r>
       <r>   -19.6650     0.0000    16.0000 </r>
       <r>   -19.5342     0.0000    16.0000 </r>
       <r>   -19.4034     0.0000    16.0000 </r>
       <r>   -19.2727     0.0000    16.0000 </r>
       <r>   -19.1419     0.0000    16.0000 </r>
       <r>   -19.0112     0.0000    16.0000 </r>
       <r>   -18.8804     0.0000    16.0000 </r>
       <r>   -18.7496     0.0000    16.0000 </r>
       <r>   -18.6189     0.0000    16.0000 </r>
       <r>   -18.4881     0.0000    16.0000 </r>
       <r>   -18.3573     0.0000    16.0000 </r>
       <r>   -18.2266     0.0000    16.0000 </r>
       <r>   -18.0958     0.0000    16.0000 </r>
       <r>   -17.9651     0.0000    16.0000 </r>
       <r>   -17.8343     0.0000    16.0000 </r>
       <r>   -17.7035     0.0000    16.0000 </r>
       <r>   -17.5728     0.0000    16.0000 </r>
       <r>   -17.4420     0.0000    16.0000 </r>
       <r>   -17.3113     0.0000    16.0000 </r>
       <r>   -17.1805     0.0000    16.0000 </r>
       <r>   -17.0497     0.0000    16.0000 </r>
       <r>   -16.9190     0.0000    16.0000 </r>
       <r>   -16.7882     0.0000    16.0000 </r>
       <r>   -16.6575     0.0000    16.0000 </r>
       <r>   -16.5267     0.0000    16.0000 </r>
       <r>   -16.3959     0.0000    16.0000 </r>
       <r>   -16.2652     0.0001    16.0000 </r>
       <r>   -16.1344     0.0027    16.0004 </r>
       <r>   -16.0037     0.0513    16.0071 </r>
       <r>   -15.8729     0.4286    16.0631 </r>
       <r>   -15.7421     1.6031    16.2727 </r>
       <r>   -15.6114     2.6980    16.6255 </r>
       <r>   -15.4806     2.0483    16.8934 </r>
       <r>   -15.3498     0.7005    16.9850 </r>
       <r>   -15.2191     0.1074    16.9990 </r>
       <r>   -15.0883     0.0073    17.0000 </r>
       <r>   -14.9576     0.0002    17.0000 </r>
       <r>   -14.8268     0.0000    17.0000 </r>
       <r>   -14.6960     0.0000    17.0000 </r>
       <r>   -14.5653     0.0000    17.0000 </r>
       <r>   -14.4345     0.0000    17.0000 </r>
       <r>   -14.3038     0.0000    17.0000 </r>
       <r>   -14.1730     0.0000    17.0000 </r>
       <r>   -14.0422     0.0000    17.0000 </r>
       <r>   -13.9115     0.0000    17.0000 </r>
       <r>   -13.7807     0.0000    17.0000 </r>
       <r>   -13.6500     0.0000    17.0000 </r>
       <r>   -13.5192     0.0000    17.0000 </r>
       <r>   -13.3884     0.0000    17.0000 </r>
       <r>   -13.2577     0.0000    17.0000 </r>
       <r>   -13.1269     0.0000    17.0000 </r>
       <r>   -12.9962     0.0000    17.0000 </r>
       <r>   -12.8654     0.0000    17.0000 </r>
       <r>   -12.7346     0.0000    17.0000 </r>
       <r>   -12.6039     0.0000    17.0000 </r>
       <r>   -12.4731     0.0000    17.0000 </r>
       <r>   -12.3423     0.0000    17.0000 </r>
       <r>   -12.2116     0.0002    17.0000 </r>
       <r>   -12.0808     0.0075    17.0010 </r>
       <r>   -11.9501     0.1050    17.0147 </r>
       <r>   -11.8193     0.6812    17.1038 </r>
       <r>   -11.6885     2.1892    17.3901 </r>
       <r>   -11.5578     4.2453    17.9452 </r>
       <r>   -11.4270     6.9852    18.8586 </r>
       <r>   -11.2963    10.2353    20.1970 </r>
       <r>   -11.1655    11.5899    21.7125 </r>
       <r>   -11.0347    11.1808    23.1745 </r>
       <r>   -10.9040    11.3019    24.6523 </r>
       <r>   -10.7732    12.5782    26.2971 </r>
       <r>   -10.6425    13.6201    28.0780 </r>
       <r>   -10.5117    13.4707    29.8395 </r>
       <r>   -10.3809    13.0192    31.5419 </r>
       <r>   -10.2502    14.7741    33.4738 </r>
       <r>   -10.1194    18.4611    35.8877 </r>
       <r>    -9.9887    20.6640    38.5898 </r>
       <r>    -9.8579    20.9570    41.3301 </r>
       <r>    -9.7271    19.7517    43.9129 </r>
       <r>    -9.5964    15.8542    45.9860 </r>
       <r>    -9.4656    10.8029    47.3986 </r>
       <r>    -9.3348     6.8246    48.2910 </r>
       <r>    -9.2041     3.7335    48.7792 </r>
       <r>    -9.0733     1.3778    48.9593 </r>
       <r>    -8.9426     0.2808    48.9961 </r>
       <r>    -8.8118     0.0287    48.9998 </r>
       <r>    -8.6810     0.0015    49.0000 </r>
       <r>    -8.5503     0.0025    49.0003 </r>
       <r>    -8.4195     0.0436    49.0060 </r>
       <r>    -8.2888     0.3937    49.0575 </r>
       <r>    -8.1580     1.9466    49.3121 </r>
       <r>    -8.0272     6.0522    50.1035 </r>
       <r>    -7.8965    13.6808    51.8924 </r>
       <r>    -7.7657    23.6062    54.9791 </r>
       <r>    -7.6350    31.3577    59.0795 </r>
       <r>    -7.5042    34.8112    63.6314 </r>
       <r>    -7.3734    35.1994    68.2341 </r>
       <r>    -7.2427    32.1130    72.4333 </r>
       <r>    -7.1119    26.0297    75.8369 </r>
       <r>    -6.9812    19.9011    78.4392 </r>
       <r>    -6.8504    16.3021    80.5709 </r>
       <r>    -6.7196    17.4616    82.8542 </r>
       <r>    -6.5889    22.9373    85.8535 </r>
       <r>    -6.4581    26.7972    89.3575 </r>
       <r>    -6.3273    23.9935    92.4949 </r>
       <r>    -6.1966    16.1296    94.6040 </r>
       <r>    -6.0658     7.8693    95.6330 </r>
       <r>    -5.9351     2.6959    95.9856 </r>
       <r>    -5.8043     1.6737    96.2044 </r>
       <r>    -5.6735     2.5814    96.5420 </r>
       <r>    -5.5428     2.3307    96.8467 </r>
       <r>    -5.4120     0.9718    96.9738 </r>
       <r>    -5.2813     0.1841    96.9979 </r>
       <r>    -5.1505     0.0157    96.9999 </r>
       <r>    -5.0197     0.0006    97.0000 </r>
       <r>    -4.8890     0.0000    97.0000 </r>
       <r>    -4.7582     0.0000    97.0000 </r>
       <r>    -4.6275     0.0000    97.0000 </r>
       <r>    -4.4967     0.0000    97.0000 </r>
       <r>    -4.3659     0.0000    97.0000 </r>
       <r>    -4.2352     0.0000    97.0000 </r>
       <r>    -4.1044     0.0000    97.0000 </r>
       <r>    -3.9737     0.0000    97.0000 </r>
       <r>    -3.8429     0.0000    97.0000 </r>
       <r>    -3.7121     0.0000    97.0000 </r>
       <r>    -3.5814     0.0000    97.0000 </r>
       <r>    -3.4506     0.0000    97.0000 </r>
       <r>    -3.3198     0.0000    97.0000 </r>
       <r>    -3.1891     0.0000    97.0000 </r>
       <r>    -3.0583     0.0000    97.0000 </r>
       <r>    -2.9276     0.0000    97.0000 </r>
       <r>    -2.7968     0.0000    97.0000 </r>
       <r>    -2.6660     0.0000    97.0000 </r>
       <r>    -2.5353     0.0000    97.0000 </r>
       <r>    -2.4045     0.0000    97.0000 </r>
       <r>    -2.2738     0.0000    97.0000 </r>
       <r>    -2.1430     0.0000    97.0000 </r>
       <r>    -2.0122     0.0000    97.0000 </r>
       <r>    -1.8815     0.0000    97.0000 </r>
       <r>    -1.7507     0.0000    97.0000 </r>
       <r>    -1.6200     0.0000    97.0000 </r>
       <r>    -1.4892     0.0000    97.0000 </r>
       <r>    -1.3584     0.0000    97.0000 </r>
       <r>    -1.2277     0.0000    97.0000 </r>
       <r>    -1.0969     0.0000    97.0000 </r>
       <r>    -0.9662     0.0000    97.0000 </r>
       <r>    -0.8354     0.0000    97.0000 </r>
       <r>    -0.7046     0.0000    97.0000 </r>
       <r>    -0.5739     0.0000    97.0000 </r>
       <r>    -0.4431     0.0001    97.0000 </r>
       <r>    -0.3123     0.0045    97.0006 </r>
       <r>    -0.1816     0.0716    97.0100 </r>
       <r>    -0.0508     0.5205    97.0780 </r>
       <r>     0.0799     1.7340    97.3048 </r>
       <r>     0.2107     2.6696    97.6538 </r>
       <r>     0.3415     1.9086    97.9034 </r>
       <r>     0.4722     0.6343    97.9864 </r>
       <r>     0.6030     0.1030    97.9998 </r>
       <r>     0.7337     0.0563    98.0072 </r>
       <r>     0.8645     0.2701    98.0425 </r>
       <r>     0.9953     1.0834    98.1842 </r>
       <r>     1.1260     3.2264    98.6060 </r>
       <r>     1.2568     6.1545    99.4108 </r>
       <r>     1.3875     7.0080   100.3272 </r>
       <r>     1.5183     5.5159   101.0485 </r>
       <r>     1.6491     4.2562   101.6050 </r>
       <r>     1.7798     3.6862   102.0870 </r>
       <r>     1.9106     3.6615   102.5658 </r>
       <r>     2.0413     4.5382   103.1592 </r>
       <r>     2.1721     6.5214   104.0120 </r>
       <r>     2.3029    10.3248   105.3620 </r>
       <r>     2.4336    15.1274   107.3401 </r>
       <r>     2.5644    18.7321   109.7895 </r>
       <r>     2.6952    21.5776   112.6110 </r>
       <r>     2.8259    24.5301   115.8186 </r>
       <r>     2.9567    25.1735   119.1103 </r>
       <r>     3.0874    22.7755   122.0885 </r>
       <r>     3.2182    20.0569   124.7111 </r>
       <r>     3.3490    19.0922   127.2077 </r>
       <r>     3.4797    20.5056   129.8890 </r>
       <r>     3.6105    22.7063   132.8581 </r>
       <r>     3.7412    24.0292   136.0002 </r>
       <r>     3.8720    23.8160   139.1144 </r>
       <r>     4.0028    22.9029   142.1092 </r>
       <r>     4.1335    23.0681   145.1256 </r>
       <r>     4.2643    25.1070   148.4086 </r>
       <r>     4.3950    28.3742   152.1188 </r>
       <r>     4.5258    31.2571   156.2060 </r>
       <r>     4.6566    32.6556   160.4761 </r>
       <r>     4.7873    33.5776   164.8668 </r>
       <r>     4.9181    34.1095   169.3269 </r>
       <r>     5.0488    33.6448   173.7264 </r>
       <r>     5.1796    33.2845   178.0787 </r>
       <r>     5.3104    33.4940   182.4584 </r>
       <r>     5.4411    34.3092   186.9447 </r>
       <r>     5.5719    35.4100   191.5749 </r>
       <r>     5.7027    35.1278   196.1683 </r>
       <r>     5.8334    33.1253   200.4998 </r>
       <r>     5.9642    31.5075   204.6197 </r>
       <r>     6.0949    31.1116   208.6879 </r>
       <r>     6.2257    28.6496   212.4341 </r>
       <r>     6.3565    21.9322   215.3020 </r>
       <r>     6.4872    14.6299   217.2150 </r>
       <r>     6.6180     8.7576   218.3602 </r>
       <r>     6.7487     3.8011   218.8572 </r>
       <r>     6.8795     0.9580   218.9825 </r>
       <r>     7.0103     0.1257   218.9989 </r>
       <r>     7.1410     0.0081   219.0000 </r>
       <r>     7.2718     0.0003   219.0000 </r>
       <r>     7.4025     0.0000   219.0000 </r>
       <r>     7.5333     0.0000   219.0000 </r>
       <r>     7.6641     0.0000   219.0000 </r>
       <r>     7.7948     0.0000   219.0000 </r>
       <r>     7.9256     0.0000   219.0000 </r>
       <r>     8.0563     0.0000   219.0000 </r>
       <r>     8.1871     0.0000   219.0000 </r>
       <r>     8.3179     0.0000   219.0000 </r>
       <r>     8.4486     0.0000   219.0000 </r>
       <r>     8.5794     0.0010   219.0001 </r>
       <r>     8.7102     0.0108   219.0015 </r>
       <r>     8.8409     0.0577   219.0091 </r>
       <r>     8.9717     0.1827   219.0330 </r>
       <r>     9.1024     0.4288   219.0891 </r>
       <r>     9.2332     0.8571   219.2011 </r>
       <r>     9.3640     1.5854   219.4084 </r>
       <r>     9.4947     3.1373   219.8187 </r>
       <r>     9.6255     5.8630   220.5853 </r>
       <r>     9.7562     9.5538   221.8346 </r>
       <r>     9.8870    14.8186   223.7723 </r>
       <r>    10.0178    20.7173   226.4813 </r>
       <r>    10.1485    24.8804   229.7347 </r>
       <r>    10.2793    29.9432   233.6501 </r>
       <r>    10.4100    39.9176   238.8697 </r>
       <r>    10.5408    54.8410   246.0408 </r>
       <r>    10.6716    77.6533   256.1948 </r>
       <r>    10.8023   105.0276   269.9283 </r>
       <r>    10.9331   117.7261   285.3223 </r>
       <r>    11.0638   101.1430   298.5478 </r>
       <r>    11.1946    60.6843   306.4830 </r>
       <r>    11.3254    22.1110   309.3742 </r>
       <r>    11.4561     4.3395   309.9416 </r>
       <r>    11.5869     0.4258   309.9973 </r>
       <r>    11.7177     0.0200   309.9999 </r>
       <r>    11.8484     0.0004   310.0000 </r>
       <r>    11.9792     0.0000   310.0000 </r>
       <r>    12.1099     0.0000   310.0000 </r>
       <r>    12.2407     0.0000   310.0000 </r>
       <r>    12.3715     0.0000   310.0000 </r>
       <r>    12.5022     0.0000   310.0000 </r>
       <r>    12.6330     0.0000   310.0000 </r>
       <r>    12.7637     0.0000   310.0000 </r>
       <r>    12.8945     0.0000   310.0000 </r>
       <r>    13.0253     0.0000   310.0000 </r>
       <r>    13.1560     0.0000   310.0000 </r>
      </set>
     </set>
    </array>
   </total>
  </dos>
 </calculation>
 <structure name="finalpos" >
  <crystal>
   <varray name="basis" >
    <v>       7.79489531       0.00000000       0.00000000 </v>
    <v>       0.00000000       7.79489531       0.00000000 </v>
    <v>       0.00000000       0.00000000      12.62522635 </v>
   </varray>
   <i name="volume">    767.11371282 </i>
   <varray name="rec_basis" >
    <v>       0.12828909       0.00000000       0.00000000 </v>
    <v>       0.00000000       0.12828909       0.00000000 </v>
    <v>       0.00000000       0.00000000       0.07920650 </v>
   </varray>
  </crystal>
  <varray name="positions" >
   <v>       0.25000139       0.25000000       0.10017989 </v>
   <v>       0.24999892       0.75000000       0.13753686 </v>
   <v>       0.75000007       0.25000000       0.13320873 </v>
   <v>       0.75000049       0.75000000       0.13915679 </v>
   <v>       0.00033075      -0.00182823       0.36206245 </v>
   <v>       0.00033075       0.50182823       0.36206245 </v>
   <v>       0.49967023      -0.00182953       0.36206253 </v>
   <v>       0.49967023       0.50182953       0.36206253 </v>
   <v>      -0.00439499       0.99767569       0.63527769 </v>
   <v>      -0.00439499       0.50232431       0.63527769 </v>
   <v>       0.50439555       0.99767608       0.63527764 </v>
   <v>       0.50439555       0.50232392       0.63527764 </v>
   <v>       0.24999902       0.25000000       0.85292429 </v>
   <v>       0.25000081       0.75000000       0.86135486 </v>
   <v>       0.75000071       0.25000000       0.85929985 </v>
   <v>       0.74999907       0.75000000       0.86424116 </v>
   <v>      -0.00219323       0.99729364      -0.00478235 </v>
   <v>      -0.00219323       0.50270636      -0.00478235 </v>
   <v>       0.50219330       0.99729335      -0.00478159 </v>
   <v>       0.50219330       0.50270665      -0.00478159 </v>
   <v>       0.25000082       0.25000000       0.52800443 </v>
   <v>       0.25000002       0.75000000       0.50862715 </v>
   <v>       0.75000004       0.25000000       0.50628840 </v>
   <v>       0.75000016       0.75000000       0.49682015 </v>
   <v>       0.25000025      -0.00485922       0.99262559 </v>
   <v>       0.25000025       0.50485922       0.99262559 </v>
   <v>       0.75000003      -0.00066251       0.99581076 </v>
   <v>       0.75000003       0.50066251       0.99581076 </v>
   <v>      -0.00888580       0.25000000      -0.00021443 </v>
   <v>       0.00083687       0.75000000       0.98370014 </v>
   <v>       0.50888627       0.25000000      -0.00021660 </v>
   <v>       0.49916302       0.75000000       0.98370255 </v>
   <v>      -0.00849727       0.97630616       0.17577455 </v>
   <v>       0.24999510       0.25000000       0.26302300 </v>
   <v>      -0.00849727       0.52369384       0.17577455 </v>
   <v>       0.50849646       0.97631053       0.17577453 </v>
   <v>       0.50849646       0.52368947       0.17577453 </v>
   <v>       0.24999325       0.25000000       0.37441769 </v>
   <v>       0.25000146       0.75000000       0.32204061 </v>
   <v>       0.75000030       0.25000000       0.31797298 </v>
   <v>       0.74999766       0.75000000       0.32469385 </v>
   <v>       0.25000031       0.99880215       0.51081666 </v>
   <v>       0.25000031       0.50119785       0.51081666 </v>
   <v>       0.75000026       1.00029155       0.49374840 </v>
   <v>       0.75000026       0.49970845       0.49374840 </v>
   <v>      -0.00117232       0.25000000       0.50983442 </v>
   <v>       0.00025925       0.75000000       0.49409993 </v>
   <v>       0.50117240       0.25000000       0.50983179 </v>
   <v>       0.49974098       0.75000000       0.49410140 </v>
   <v>       0.25000161       0.25000000       0.68173971 </v>
   <v>       0.24999828       0.75000000       0.67819761 </v>
   <v>       0.74999838       0.25000000       0.67569053 </v>
   <v>       0.75000077       0.75000000       0.67548639 </v>
   <v>      -0.00007930       0.01251929       0.81855249 </v>
   <v>      -0.00007930       0.48748071       0.81855249 </v>
   <v>       0.50007986       0.01251474       0.81855247 </v>
   <v>       0.50007986       0.48748526       0.81855247 </v>
  </varray>
 </structure>
</modeling>
