   4   4   1   0
  0.1133154E+02  0.3577431E-09  0.3577431E-09  0.3541656E-09  0.5000000E-15
   1.0000000000000000E-004
  CAR 
 unknown system                          
     24.85661378    -66.80261920  301      7.41114959      1.00000000
    -66.803  0.0000E+00  0.0000E+00
    -66.497  0.0000E+00  0.0000E+00
    -66.192  0.0000E+00  0.0000E+00
    -65.886  0.0000E+00  0.0000E+00
    -65.580  0.0000E+00  0.0000E+00
    -65.275  0.0000E+00  0.0000E+00
    -64.969  0.0000E+00  0.0000E+00
    -64.664  0.0000E+00  0.0000E+00
    -64.358 -0.5556E-31 -0.1697E-31
    -64.053 -0.1591E-20 -0.4860E-21
    -63.747 -0.4158E-12 -0.1270E-12
    -63.442 -0.1028E-05 -0.3140E-06
    -63.136 -0.2256E-01 -0.6893E-02
    -62.831 -0.2411E+01 -0.7437E+00
    -62.525  0.5402E+02  0.1576E+02
    -62.220  0.2838E+02  0.2443E+02
    -61.914 -0.1415E+01  0.2400E+02
    -61.609 -0.2438E-02  0.2400E+02
    -61.303 -0.2696E-07  0.2400E+02
    -60.998 -0.1274E-14  0.2400E+02
    -60.692  0.0000E+00  0.2400E+02
    -60.386  0.0000E+00  0.2400E+02
    -60.081  0.0000E+00  0.2400E+02
    -59.775  0.0000E+00  0.2400E+02
    -59.470  0.0000E+00  0.2400E+02
    -59.164  0.0000E+00  0.2400E+02
    -58.859  0.0000E+00  0.2400E+02
    -58.553  0.0000E+00  0.2400E+02
    -58.248  0.0000E+00  0.2400E+02
    -57.942  0.0000E+00  0.2400E+02
    -57.637  0.0000E+00  0.2400E+02
    -57.331  0.0000E+00  0.2400E+02
    -57.026  0.0000E+00  0.2400E+02
    -56.720  0.0000E+00  0.2400E+02
    -56.415  0.0000E+00  0.2400E+02
    -56.109  0.0000E+00  0.2400E+02
    -55.804  0.0000E+00  0.2400E+02
    -55.498  0.0000E+00  0.2400E+02
    -55.192  0.0000E+00  0.2400E+02
    -54.887  0.0000E+00  0.2400E+02
    -54.581  0.0000E+00  0.2400E+02
    -54.276  0.0000E+00  0.2400E+02
    -53.970  0.0000E+00  0.2400E+02
    -53.665  0.0000E+00  0.2400E+02
    -53.359  0.0000E+00  0.2400E+02
    -53.054  0.0000E+00  0.2400E+02
    -52.748  0.0000E+00  0.2400E+02
    -52.443  0.0000E+00  0.2400E+02
    -52.137  0.0000E+00  0.2400E+02
    -51.832  0.0000E+00  0.2400E+02
    -51.526  0.0000E+00  0.2400E+02
    -51.221  0.0000E+00  0.2400E+02
    -50.915  0.0000E+00  0.2400E+02
    -50.609  0.0000E+00  0.2400E+02
    -50.304  0.0000E+00  0.2400E+02
    -49.998  0.0000E+00  0.2400E+02
    -49.693  0.0000E+00  0.2400E+02
    -49.387  0.0000E+00  0.2400E+02
    -49.082  0.0000E+00  0.2400E+02
    -48.776  0.0000E+00  0.2400E+02
    -48.471  0.0000E+00  0.2400E+02
    -48.165  0.0000E+00  0.2400E+02
    -47.860  0.0000E+00  0.2400E+02
    -47.554  0.0000E+00  0.2400E+02
    -47.249  0.0000E+00  0.2400E+02
    -46.943  0.0000E+00  0.2400E+02
    -46.638  0.0000E+00  0.2400E+02
    -46.332  0.0000E+00  0.2400E+02
    -46.027  0.0000E+00  0.2400E+02
    -45.721  0.0000E+00  0.2400E+02
    -45.415  0.0000E+00  0.2400E+02
    -45.110  0.0000E+00  0.2400E+02
    -44.804  0.0000E+00  0.2400E+02
    -44.499  0.0000E+00  0.2400E+02
    -44.193  0.0000E+00  0.2400E+02
    -43.888  0.0000E+00  0.2400E+02
    -43.582  0.0000E+00  0.2400E+02
    -43.277  0.0000E+00  0.2400E+02
    -42.971  0.0000E+00  0.2400E+02
    -42.666  0.0000E+00  0.2400E+02
    -42.360  0.0000E+00  0.2400E+02
    -42.055  0.0000E+00  0.2400E+02
    -41.749  0.0000E+00  0.2400E+02
    -41.444  0.0000E+00  0.2400E+02
    -41.138  0.0000E+00  0.2400E+02
    -40.833  0.0000E+00  0.2400E+02
    -40.527  0.0000E+00  0.2400E+02
    -40.221  0.0000E+00  0.2400E+02
    -39.916  0.0000E+00  0.2400E+02
    -39.610  0.0000E+00  0.2400E+02
    -39.305  0.0000E+00  0.2400E+02
    -38.999  0.0000E+00  0.2400E+02
    -38.694  0.0000E+00  0.2400E+02
    -38.388  0.0000E+00  0.2400E+02
    -38.083  0.0000E+00  0.2400E+02
    -37.777  0.0000E+00  0.2400E+02
    -37.472  0.0000E+00  0.2400E+02
    -37.166  0.0000E+00  0.2400E+02
    -36.861  0.0000E+00  0.2400E+02
    -36.555  0.0000E+00  0.2400E+02
    -36.250  0.0000E+00  0.2400E+02
    -35.944  0.0000E+00  0.2400E+02
    -35.638  0.0000E+00  0.2400E+02
    -35.333  0.0000E+00  0.2400E+02
    -35.027  0.0000E+00  0.2400E+02
    -34.722  0.0000E+00  0.2400E+02
    -34.416  0.0000E+00  0.2400E+02
    -34.111  0.0000E+00  0.2400E+02
    -33.805  0.0000E+00  0.2400E+02
    -33.500  0.0000E+00  0.2400E+02
    -33.194  0.0000E+00  0.2400E+02
    -32.889  0.0000E+00  0.2400E+02
    -32.583  0.0000E+00  0.2400E+02
    -32.278  0.0000E+00  0.2400E+02
    -31.972  0.0000E+00  0.2400E+02
    -31.667  0.0000E+00  0.2400E+02
    -31.361  0.0000E+00  0.2400E+02
    -31.056  0.0000E+00  0.2400E+02
    -30.750  0.0000E+00  0.2400E+02
    -30.444  0.0000E+00  0.2400E+02
    -30.139  0.0000E+00  0.2400E+02
    -29.833  0.0000E+00  0.2400E+02
    -29.528  0.0000E+00  0.2400E+02
    -29.222  0.0000E+00  0.2400E+02
    -28.917  0.0000E+00  0.2400E+02
    -28.611  0.0000E+00  0.2400E+02
    -28.306  0.0000E+00  0.2400E+02
    -28.000  0.0000E+00  0.2400E+02
    -27.695  0.0000E+00  0.2400E+02
    -27.389  0.0000E+00  0.2400E+02
    -27.084  0.0000E+00  0.2400E+02
    -26.778  0.0000E+00  0.2400E+02
    -26.473  0.0000E+00  0.2400E+02
    -26.167  0.0000E+00  0.2400E+02
    -25.861  0.0000E+00  0.2400E+02
    -25.556  0.0000E+00  0.2400E+02
    -25.250  0.0000E+00  0.2400E+02
    -24.945  0.0000E+00  0.2400E+02
    -24.639  0.0000E+00  0.2400E+02
    -24.334  0.0000E+00  0.2400E+02
    -24.028  0.0000E+00  0.2400E+02
    -23.723  0.0000E+00  0.2400E+02
    -23.417  0.0000E+00  0.2400E+02
    -23.112  0.0000E+00  0.2400E+02
    -22.806  0.0000E+00  0.2400E+02
    -22.501  0.0000E+00  0.2400E+02
    -22.195  0.0000E+00  0.2400E+02
    -21.890  0.0000E+00  0.2400E+02
    -21.584  0.0000E+00  0.2400E+02
    -21.279  0.0000E+00  0.2400E+02
    -20.973  0.0000E+00  0.2400E+02
    -20.667  0.0000E+00  0.2400E+02
    -20.362  0.0000E+00  0.2400E+02
    -20.056  0.0000E+00  0.2400E+02
    -19.751  0.0000E+00  0.2400E+02
    -19.445  0.0000E+00  0.2400E+02
    -19.140  0.0000E+00  0.2400E+02
    -18.834  0.0000E+00  0.2400E+02
    -18.529  0.0000E+00  0.2400E+02
    -18.223  0.0000E+00  0.2400E+02
    -17.918  0.0000E+00  0.2400E+02
    -17.612  0.0000E+00  0.2400E+02
    -17.307  0.0000E+00  0.2400E+02
    -17.001  0.0000E+00  0.2400E+02
    -16.696  0.0000E+00  0.2400E+02
    -16.390  0.0000E+00  0.2400E+02
    -16.085  0.0000E+00  0.2400E+02
    -15.779  0.0000E+00  0.2400E+02
    -15.473  0.0000E+00  0.2400E+02
    -15.168  0.0000E+00  0.2400E+02
    -14.862  0.0000E+00  0.2400E+02
    -14.557  0.0000E+00  0.2400E+02
    -14.251  0.0000E+00  0.2400E+02
    -13.946  0.0000E+00  0.2400E+02
    -13.640  0.0000E+00  0.2400E+02
    -13.335  0.0000E+00  0.2400E+02
    -13.029  0.0000E+00  0.2400E+02
    -12.724  0.0000E+00  0.2400E+02
    -12.418  0.0000E+00  0.2400E+02
    -12.113  0.0000E+00  0.2400E+02
    -11.807  0.0000E+00  0.2400E+02
    -11.502  0.0000E+00  0.2400E+02
    -11.196  0.0000E+00  0.2400E+02
    -10.890  0.0000E+00  0.2400E+02
    -10.585  0.0000E+00  0.2400E+02
    -10.279  0.0000E+00  0.2400E+02
     -9.974  0.0000E+00  0.2400E+02
     -9.668  0.0000E+00  0.2400E+02
     -9.363  0.0000E+00  0.2400E+02
     -9.057  0.0000E+00  0.2400E+02
     -8.752  0.0000E+00  0.2400E+02
     -8.446  0.0000E+00  0.2400E+02
     -8.141  0.0000E+00  0.2400E+02
     -7.835  0.0000E+00  0.2400E+02
     -7.530  0.0000E+00  0.2400E+02
     -7.224  0.0000E+00  0.2400E+02
     -6.919  0.0000E+00  0.2400E+02
     -6.613  0.0000E+00  0.2400E+02
     -6.308  0.0000E+00  0.2400E+02
     -6.002  0.0000E+00  0.2400E+02
     -5.696  0.0000E+00  0.2400E+02
     -5.391  0.0000E+00  0.2400E+02
     -5.085  0.0000E+00  0.2400E+02
     -4.780  0.0000E+00  0.2400E+02
     -4.474  0.0000E+00  0.2400E+02
     -4.169 -0.1539E-39  0.2400E+02
     -3.863 -0.3018E-28  0.2400E+02
     -3.558 -0.5405E-19  0.2400E+02
     -3.252 -0.8574E-12  0.2400E+02
     -2.947 -0.1348E-06  0.2400E+02
     -2.641 -0.2317E-03  0.2400E+02
     -2.336  0.7431E-03  0.2400E+02
     -2.030  0.8467E-01  0.2403E+02
     -1.725  0.1957E+00  0.2409E+02
     -1.419  0.2518E+00  0.2416E+02
     -1.114  0.3111E+00  0.2426E+02
     -0.808  0.3396E+00  0.2436E+02
     -0.502  0.4554E+00  0.2450E+02
     -0.197  0.3955E+00  0.2462E+02
      0.109  0.6010E+00  0.2481E+02
      0.414  0.5198E+00  0.2496E+02
      0.720  0.6690E+00  0.2517E+02
      1.025  0.8099E+00  0.2542E+02
      1.331  0.8112E+00  0.2566E+02
      1.636  0.1188E+01  0.2603E+02
      1.942  0.1362E+01  0.2644E+02
      2.247  0.2811E+01  0.2730E+02
      2.553  0.4367E+01  0.2864E+02
      2.858  0.5507E+01  0.3032E+02
      3.164  0.8376E+01  0.3288E+02
      3.469  0.8073E+01  0.3534E+02
      3.775  0.8409E+01  0.3791E+02
      4.081  0.1150E+02  0.4143E+02
      4.386  0.1464E+02  0.4590E+02
      4.692  0.1270E+02  0.4978E+02
      4.997  0.1126E+02  0.5322E+02
      5.303  0.1298E+02  0.5718E+02
      5.608  0.1343E+02  0.6129E+02
      5.914  0.1485E+02  0.6582E+02
      6.219  0.1970E+01  0.6643E+02
      6.525  0.1388E+01  0.6685E+02
      6.830  0.1358E+01  0.6726E+02
      7.136  0.1337E+01  0.6767E+02
      7.441  0.1153E+01  0.6803E+02
      7.747  0.1053E+01  0.6835E+02
      8.052  0.1290E+01  0.6874E+02
      8.358  0.9893E+00  0.6904E+02
      8.663  0.9227E+00  0.6933E+02
      8.969  0.1180E+01  0.6969E+02
      9.275  0.1020E+01  0.7000E+02
      9.580  0.7711E+00  0.7023E+02
      9.886  0.9786E+00  0.7053E+02
     10.191  0.8135E+00  0.7078E+02
     10.497  0.7102E+00  0.7100E+02
     10.802  0.6780E+00  0.7121E+02
     11.108  0.6400E+00  0.7140E+02
     11.413  0.5684E+00  0.7157E+02
     11.719  0.9335E+00  0.7186E+02
     12.024  0.1268E+01  0.7225E+02
     12.330  0.1046E+01  0.7257E+02
     12.635  0.1165E+01  0.7292E+02
     12.941  0.1195E+01  0.7329E+02
     13.246  0.9733E+00  0.7358E+02
     13.552  0.1026E+01  0.7390E+02
     13.858  0.1015E+01  0.7421E+02
     14.163  0.9263E+00  0.7449E+02
     14.469  0.9372E+00  0.7478E+02
     14.774  0.8178E+00  0.7503E+02
     15.080  0.1039E+01  0.7535E+02
     15.385  0.1237E+01  0.7572E+02
     15.691  0.1432E+01  0.7616E+02
     15.996  0.1249E+01  0.7654E+02
     16.302  0.1126E+01  0.7689E+02
     16.607  0.1695E+01  0.7740E+02
     16.913  0.1328E+01  0.7781E+02
     17.218  0.1101E+01  0.7815E+02
     17.524  0.1291E+01  0.7854E+02
     17.829  0.1337E+01  0.7895E+02
     18.135  0.1286E+01  0.7934E+02
     18.440  0.7660E+00  0.7958E+02
     18.746  0.5499E+00  0.7974E+02
     19.052  0.4339E+00  0.7988E+02
     19.357  0.2900E+00  0.7997E+02
     19.663  0.6035E-01  0.7998E+02
     19.968 -0.4889E-02  0.7998E+02
     20.274  0.3835E-01  0.7999E+02
     20.579  0.1738E-01  0.8000E+02
     20.885  0.2669E-02  0.8000E+02
     21.190 -0.8214E-04  0.8000E+02
     21.496 -0.4390E-05  0.8000E+02
     21.801 -0.3653E-09  0.8000E+02
     22.107 -0.2280E-15  0.8000E+02
     22.412  0.0000E+00  0.8000E+02
     22.718  0.0000E+00  0.8000E+02
     23.023  0.0000E+00  0.8000E+02
     23.329  0.0000E+00  0.8000E+02
     23.634  0.0000E+00  0.8000E+02
     23.940  0.0000E+00  0.8000E+02
     24.246  0.0000E+00  0.8000E+02
     24.551  0.0000E+00  0.8000E+02
     24.857  0.0000E+00  0.8000E+02
     24.85661378    -66.80261920  301      7.41114959      1.00000000
    -66.803  0.0000E+00  0.0000E+00  0.0000E+00  0.0000E+00  0.0000E+00  0.0000E+00  0.0000E+00  0.0000E+00  0.0000E+00
    -66.497  0.0000E+00  0.0000E+00  0.0000E+00  0.0000E+00  0.0000E+00  0.0000E+00  0.0000E+00  0.0000E+00  0.0000E+00
    -66.192  0.0000E+00  0.0000E+00  0.0000E+00  0.0000E+00  0.0000E+00  0.0000E+00  0.0000E+00  0.0000E+00  0.0000E+00
    -65.886  0.0000E+00  0.0000E+00  0.0000E+00  0.0000E+00  0.0000E+00  0.0000E+00  0.0000E+00  0.0000E+00  0.0000E+00
    -65.580  0.0000E+00  0.0000E+00  0.0000E+00  0.0000E+00  0.0000E+00  0.0000E+00  0.0000E+00  0.0000E+00  0.0000E+00
    -65.275  0.0000E+00  0.0000E+00  0.0000E+00  0.0000E+00  0.0000E+00  0.0000E+00  0.0000E+00  0.0000E+00  0.0000E+00
    -64.969  0.0000E+00  0.0000E+00  0.0000E+00  0.0000E+00  0.0000E+00  0.0000E+00  0.0000E+00  0.0000E+00  0.0000E+00
    -64.664  0.0000E+00  0.0000E+00  0.0000E+00  0.0000E+00  0.0000E+00  0.0000E+00  0.0000E+00  0.0000E+00  0.0000E+00
    -64.358 -0.2525E-37 -0.4543E-32 -0.4738E-32 -0.4543E-32 -0.8214E-38 -0.9008E-38 -0.3719E-38 -0.9008E-38 -0.4018E-38
    -64.053 -0.7960E-27 -0.1302E-21 -0.1353E-21 -0.1302E-21 -0.2523E-27 -0.2772E-27 -0.1127E-27 -0.2772E-27 -0.1222E-27
    -63.747 -0.2266E-18 -0.3411E-13 -0.3525E-13 -0.3411E-13 -0.7103E-19 -0.7831E-19 -0.3147E-19 -0.7831E-19 -0.3427E-19
    -63.442 -0.5922E-12 -0.8455E-07 -0.8669E-07 -0.8455E-07 -0.1894E-12 -0.2100E-12 -0.8432E-13 -0.2100E-12 -0.9232E-13
    -63.136 -0.1275E-07 -0.1864E-02 -0.1890E-02 -0.1864E-02 -0.4418E-08 -0.4941E-08 -0.2048E-08 -0.4941E-08 -0.2261E-08
    -62.831 -0.1038E-05 -0.2005E+00 -0.1999E+00 -0.2005E+00 -0.4696E-06 -0.5347E-06 -0.2500E-06 -0.5347E-06 -0.2799E-06
    -62.525  0.2434E-04  0.4486E+01  0.4488E+01  0.4486E+01  0.1047E-04  0.1189E-04  0.5461E-05  0.1189E-04  0.6102E-05
    -62.220  0.8789E-05  0.2359E+01  0.2356E+01  0.2359E+01  0.4963E-05  0.5700E-05  0.2932E-05  0.5700E-05  0.3303E-05
    -61.914 -0.4375E-06 -0.1176E+00 -0.1175E+00 -0.1176E+00 -0.2468E-06 -0.2835E-06 -0.1459E-06 -0.2835E-06 -0.1644E-06
    -61.609 -0.4890E-09 -0.2019E-03 -0.2040E-03 -0.2019E-03 -0.3630E-09 -0.4199E-09 -0.2357E-09 -0.4199E-09 -0.2670E-09
    -61.303 -0.3954E-14 -0.2222E-08 -0.2277E-08 -0.2222E-08 -0.3535E-14 -0.4101E-14 -0.2388E-14 -0.4101E-14 -0.2714E-14
    -60.998 -0.6746E-22 -0.1023E-15 -0.1134E-15 -0.1023E-15 -0.9330E-22 -0.1068E-21 -0.5031E-22 -0.1068E-21 -0.5386E-22
    -60.692  0.0000E+00  0.0000E+00  0.0000E+00  0.0000E+00  0.0000E+00  0.0000E+00  0.0000E+00  0.0000E+00  0.0000E+00
    -60.386  0.0000E+00  0.0000E+00  0.0000E+00  0.0000E+00  0.0000E+00  0.0000E+00  0.0000E+00  0.0000E+00  0.0000E+00
    -60.081  0.0000E+00  0.0000E+00  0.0000E+00  0.0000E+00  0.0000E+00  0.0000E+00  0.0000E+00  0.0000E+00  0.0000E+00
    -59.775  0.0000E+00  0.0000E+00  0.0000E+00  0.0000E+00  0.0000E+00  0.0000E+00  0.0000E+00  0.0000E+00  0.0000E+00
    -59.470  0.0000E+00  0.0000E+00  0.0000E+00  0.0000E+00  0.0000E+00  0.0000E+00  0.0000E+00  0.0000E+00  0.0000E+00
    -59.164  0.0000E+00  0.0000E+00  0.0000E+00  0.0000E+00  0.0000E+00  0.0000E+00  0.0000E+00  0.0000E+00  0.0000E+00
    -58.859  0.0000E+00  0.0000E+00  0.0000E+00  0.0000E+00  0.0000E+00  0.0000E+00  0.0000E+00  0.0000E+00  0.0000E+00
    -58.553  0.0000E+00  0.0000E+00  0.0000E+00  0.0000E+00  0.0000E+00  0.0000E+00  0.0000E+00  0.0000E+00  0.0000E+00
    -58.248  0.0000E+00  0.0000E+00  0.0000E+00  0.0000E+00  0.0000E+00  0.0000E+00  0.0000E+00  0.0000E+00  0.0000E+00
    -57.942  0.0000E+00  0.0000E+00  0.0000E+00  0.0000E+00  0.0000E+00  0.0000E+00  0.0000E+00  0.0000E+00  0.0000E+00
    -57.637  0.0000E+00  0.0000E+00  0.0000E+00  0.0000E+00  0.0000E+00  0.0000E+00  0.0000E+00  0.0000E+00  0.0000E+00
    -57.331  0.0000E+00  0.0000E+00  0.0000E+00  0.0000E+00  0.0000E+00  0.0000E+00  0.0000E+00  0.0000E+00  0.0000E+00
    -57.026  0.0000E+00  0.0000E+00  0.0000E+00  0.0000E+00  0.0000E+00  0.0000E+00  0.0000E+00  0.0000E+00  0.0000E+00
    -56.720  0.0000E+00  0.0000E+00  0.0000E+00  0.0000E+00  0.0000E+00  0.0000E+00  0.0000E+00  0.0000E+00  0.0000E+00
    -56.415  0.0000E+00  0.0000E+00  0.0000E+00  0.0000E+00  0.0000E+00  0.0000E+00  0.0000E+00  0.0000E+00  0.0000E+00
    -56.109  0.0000E+00  0.0000E+00  0.0000E+00  0.0000E+00  0.0000E+00  0.0000E+00  0.0000E+00  0.0000E+00  0.0000E+00
    -55.804  0.0000E+00  0.0000E+00  0.0000E+00  0.0000E+00  0.0000E+00  0.0000E+00  0.0000E+00  0.0000E+00  0.0000E+00
    -55.498  0.0000E+00  0.0000E+00  0.0000E+00  0.0000E+00  0.0000E+00  0.0000E+00  0.0000E+00  0.0000E+00  0.0000E+00
    -55.192  0.0000E+00  0.0000E+00  0.0000E+00  0.0000E+00  0.0000E+00  0.0000E+00  0.0000E+00  0.0000E+00  0.0000E+00
    -54.887  0.0000E+00  0.0000E+00  0.0000E+00  0.0000E+00  0.0000E+00  0.0000E+00  0.0000E+00  0.0000E+00  0.0000E+00
    -54.581  0.0000E+00  0.0000E+00  0.0000E+00  0.0000E+00  0.0000E+00  0.0000E+00  0.0000E+00  0.0000E+00  0.0000E+00
    -54.276  0.0000E+00  0.0000E+00  0.0000E+00  0.0000E+00  0.0000E+00  0.0000E+00  0.0000E+00  0.0000E+00  0.0000E+00
    -53.970  0.0000E+00  0.0000E+00  0.0000E+00  0.0000E+00  0.0000E+00  0.0000E+00  0.0000E+00  0.0000E+00  0.0000E+00
    -53.665  0.0000E+00  0.0000E+00  0.0000E+00  0.0000E+00  0.0000E+00  0.0000E+00  0.0000E+00  0.0000E+00  0.0000E+00
    -53.359  0.0000E+00  0.0000E+00  0.0000E+00  0.0000E+00  0.0000E+00  0.0000E+00  0.0000E+00  0.0000E+00  0.0000E+00
    -53.054  0.0000E+00  0.0000E+00  0.0000E+00  0.0000E+00  0.0000E+00  0.0000E+00  0.0000E+00  0.0000E+00  0.0000E+00
    -52.748  0.0000E+00  0.0000E+00  0.0000E+00  0.0000E+00  0.0000E+00  0.0000E+00  0.0000E+00  0.0000E+00  0.0000E+00
    -52.443  0.0000E+00  0.0000E+00  0.0000E+00  0.0000E+00  0.0000E+00  0.0000E+00  0.0000E+00  0.0000E+00  0.0000E+00
    -52.137  0.0000E+00  0.0000E+00  0.0000E+00  0.0000E+00  0.0000E+00  0.0000E+00  0.0000E+00  0.0000E+00  0.0000E+00
    -51.832  0.0000E+00  0.0000E+00  0.0000E+00  0.0000E+00  0.0000E+00  0.0000E+00  0.0000E+00  0.0000E+00  0.0000E+00
    -51.526  0.0000E+00  0.0000E+00  0.0000E+00  0.0000E+00  0.0000E+00  0.0000E+00  0.0000E+00  0.0000E+00  0.0000E+00
    -51.221  0.0000E+00  0.0000E+00  0.0000E+00  0.0000E+00  0.0000E+00  0.0000E+00  0.0000E+00  0.0000E+00  0.0000E+00
    -50.915  0.0000E+00  0.0000E+00  0.0000E+00  0.0000E+00  0.0000E+00  0.0000E+00  0.0000E+00  0.0000E+00  0.0000E+00
    -50.609  0.0000E+00  0.0000E+00  0.0000E+00  0.0000E+00  0.0000E+00  0.0000E+00  0.0000E+00  0.0000E+00  0.0000E+00
    -50.304  0.0000E+00  0.0000E+00  0.0000E+00  0.0000E+00  0.0000E+00  0.0000E+00  0.0000E+00  0.0000E+00  0.0000E+00
    -49.998  0.0000E+00  0.0000E+00  0.0000E+00  0.0000E+00  0.0000E+00  0.0000E+00  0.0000E+00  0.0000E+00  0.0000E+00
    -49.693  0.0000E+00  0.0000E+00  0.0000E+00  0.0000E+00  0.0000E+00  0.0000E+00  0.0000E+00  0.0000E+00  0.0000E+00
    -49.387  0.0000E+00  0.0000E+00  0.0000E+00  0.0000E+00  0.0000E+00  0.0000E+00  0.0000E+00  0.0000E+00  0.0000E+00
    -49.082  0.0000E+00  0.0000E+00  0.0000E+00  0.0000E+00  0.0000E+00  0.0000E+00  0.0000E+00  0.0000E+00  0.0000E+00
    -48.776  0.0000E+00  0.0000E+00  0.0000E+00  0.0000E+00  0.0000E+00  0.0000E+00  0.0000E+00  0.0000E+00  0.0000E+00
    -48.471  0.0000E+00  0.0000E+00  0.0000E+00  0.0000E+00  0.0000E+00  0.0000E+00  0.0000E+00  0.0000E+00  0.0000E+00
    -48.165  0.0000E+00  0.0000E+00  0.0000E+00  0.0000E+00  0.0000E+00  0.0000E+00  0.0000E+00  0.0000E+00  0.0000E+00
    -47.860  0.0000E+00  0.0000E+00  0.0000E+00  0.0000E+00  0.0000E+00  0.0000E+00  0.0000E+00  0.0000E+00  0.0000E+00
    -47.554  0.0000E+00  0.0000E+00  0.0000E+00  0.0000E+00  0.0000E+00  0.0000E+00  0.0000E+00  0.0000E+00  0.0000E+00
    -47.249  0.0000E+00  0.0000E+00  0.0000E+00  0.0000E+00  0.0000E+00  0.0000E+00  0.0000E+00  0.0000E+00  0.0000E+00
    -46.943  0.0000E+00  0.0000E+00  0.0000E+00  0.0000E+00  0.0000E+00  0.0000E+00  0.0000E+00  0.0000E+00  0.0000E+00
    -46.638  0.0000E+00  0.0000E+00  0.0000E+00  0.0000E+00  0.0000E+00  0.0000E+00  0.0000E+00  0.0000E+00  0.0000E+00
    -46.332  0.0000E+00  0.0000E+00  0.0000E+00  0.0000E+00  0.0000E+00  0.0000E+00  0.0000E+00  0.0000E+00  0.0000E+00
    -46.027  0.0000E+00  0.0000E+00  0.0000E+00  0.0000E+00  0.0000E+00  0.0000E+00  0.0000E+00  0.0000E+00  0.0000E+00
    -45.721  0.0000E+00  0.0000E+00  0.0000E+00  0.0000E+00  0.0000E+00  0.0000E+00  0.0000E+00  0.0000E+00  0.0000E+00
    -45.415  0.0000E+00  0.0000E+00  0.0000E+00  0.0000E+00  0.0000E+00  0.0000E+00  0.0000E+00  0.0000E+00  0.0000E+00
    -45.110  0.0000E+00  0.0000E+00  0.0000E+00  0.0000E+00  0.0000E+00  0.0000E+00  0.0000E+00  0.0000E+00  0.0000E+00
    -44.804  0.0000E+00  0.0000E+00  0.0000E+00  0.0000E+00  0.0000E+00  0.0000E+00  0.0000E+00  0.0000E+00  0.0000E+00
    -44.499  0.0000E+00  0.0000E+00  0.0000E+00  0.0000E+00  0.0000E+00  0.0000E+00  0.0000E+00  0.0000E+00  0.0000E+00
    -44.193  0.0000E+00  0.0000E+00  0.0000E+00  0.0000E+00  0.0000E+00  0.0000E+00  0.0000E+00  0.0000E+00  0.0000E+00
    -43.888  0.0000E+00  0.0000E+00  0.0000E+00  0.0000E+00  0.0000E+00  0.0000E+00  0.0000E+00  0.0000E+00  0.0000E+00
    -43.582  0.0000E+00  0.0000E+00  0.0000E+00  0.0000E+00  0.0000E+00  0.0000E+00  0.0000E+00  0.0000E+00  0.0000E+00
    -43.277  0.0000E+00  0.0000E+00  0.0000E+00  0.0000E+00  0.0000E+00  0.0000E+00  0.0000E+00  0.0000E+00  0.0000E+00
    -42.971  0.0000E+00  0.0000E+00  0.0000E+00  0.0000E+00  0.0000E+00  0.0000E+00  0.0000E+00  0.0000E+00  0.0000E+00
    -42.666  0.0000E+00  0.0000E+00  0.0000E+00  0.0000E+00  0.0000E+00  0.0000E+00  0.0000E+00  0.0000E+00  0.0000E+00
    -42.360  0.0000E+00  0.0000E+00  0.0000E+00  0.0000E+00  0.0000E+00  0.0000E+00  0.0000E+00  0.0000E+00  0.0000E+00
    -42.055  0.0000E+00  0.0000E+00  0.0000E+00  0.0000E+00  0.0000E+00  0.0000E+00  0.0000E+00  0.0000E+00  0.0000E+00
    -41.749  0.0000E+00  0.0000E+00  0.0000E+00  0.0000E+00  0.0000E+00  0.0000E+00  0.0000E+00  0.0000E+00  0.0000E+00
    -41.444  0.0000E+00  0.0000E+00  0.0000E+00  0.0000E+00  0.0000E+00  0.0000E+00  0.0000E+00  0.0000E+00  0.0000E+00
    -41.138  0.0000E+00  0.0000E+00  0.0000E+00  0.0000E+00  0.0000E+00  0.0000E+00  0.0000E+00  0.0000E+00  0.0000E+00
    -40.833  0.0000E+00  0.0000E+00  0.0000E+00  0.0000E+00  0.0000E+00  0.0000E+00  0.0000E+00  0.0000E+00  0.0000E+00
    -40.527  0.0000E+00  0.0000E+00  0.0000E+00  0.0000E+00  0.0000E+00  0.0000E+00  0.0000E+00  0.0000E+00  0.0000E+00
    -40.221  0.0000E+00  0.0000E+00  0.0000E+00  0.0000E+00  0.0000E+00  0.0000E+00  0.0000E+00  0.0000E+00  0.0000E+00
    -39.916  0.0000E+00  0.0000E+00  0.0000E+00  0.0000E+00  0.0000E+00  0.0000E+00  0.0000E+00  0.0000E+00  0.0000E+00
    -39.610  0.0000E+00  0.0000E+00  0.0000E+00  0.0000E+00  0.0000E+00  0.0000E+00  0.0000E+00  0.0000E+00  0.0000E+00
    -39.305  0.0000E+00  0.0000E+00  0.0000E+00  0.0000E+00  0.0000E+00  0.0000E+00  0.0000E+00  0.0000E+00  0.0000E+00
    -38.999  0.0000E+00  0.0000E+00  0.0000E+00  0.0000E+00  0.0000E+00  0.0000E+00  0.0000E+00  0.0000E+00  0.0000E+00
    -38.694  0.0000E+00  0.0000E+00  0.0000E+00  0.0000E+00  0.0000E+00  0.0000E+00  0.0000E+00  0.0000E+00  0.0000E+00
    -38.388  0.0000E+00  0.0000E+00  0.0000E+00  0.0000E+00  0.0000E+00  0.0000E+00  0.0000E+00  0.0000E+00  0.0000E+00
    -38.083  0.0000E+00  0.0000E+00  0.0000E+00  0.0000E+00  0.0000E+00  0.0000E+00  0.0000E+00  0.0000E+00  0.0000E+00
    -37.777  0.0000E+00  0.0000E+00  0.0000E+00  0.0000E+00  0.0000E+00  0.0000E+00  0.0000E+00  0.0000E+00  0.0000E+00
    -37.472  0.0000E+00  0.0000E+00  0.0000E+00  0.0000E+00  0.0000E+00  0.0000E+00  0.0000E+00  0.0000E+00  0.0000E+00
    -37.166  0.0000E+00  0.0000E+00  0.0000E+00  0.0000E+00  0.0000E+00  0.0000E+00  0.0000E+00  0.0000E+00  0.0000E+00
    -36.861  0.0000E+00  0.0000E+00  0.0000E+00  0.0000E+00  0.0000E+00  0.0000E+00  0.0000E+00  0.0000E+00  0.0000E+00
    -36.555  0.0000E+00  0.0000E+00  0.0000E+00  0.0000E+00  0.0000E+00  0.0000E+00  0.0000E+00  0.0000E+00  0.0000E+00
    -36.250  0.0000E+00  0.0000E+00  0.0000E+00  0.0000E+00  0.0000E+00  0.0000E+00  0.0000E+00  0.0000E+00  0.0000E+00
    -35.944  0.0000E+00  0.0000E+00  0.0000E+00  0.0000E+00  0.0000E+00  0.0000E+00  0.0000E+00  0.0000E+00  0.0000E+00
    -35.638  0.0000E+00  0.0000E+00  0.0000E+00  0.0000E+00  0.0000E+00  0.0000E+00  0.0000E+00  0.0000E+00  0.0000E+00
    -35.333  0.0000E+00  0.0000E+00  0.0000E+00  0.0000E+00  0.0000E+00  0.0000E+00  0.0000E+00  0.0000E+00  0.0000E+00
    -35.027  0.0000E+00  0.0000E+00  0.0000E+00  0.0000E+00  0.0000E+00  0.0000E+00  0.0000E+00  0.0000E+00  0.0000E+00
    -34.722  0.0000E+00  0.0000E+00  0.0000E+00  0.0000E+00  0.0000E+00  0.0000E+00  0.0000E+00  0.0000E+00  0.0000E+00
    -34.416  0.0000E+00  0.0000E+00  0.0000E+00  0.0000E+00  0.0000E+00  0.0000E+00  0.0000E+00  0.0000E+00  0.0000E+00
    -34.111  0.0000E+00  0.0000E+00  0.0000E+00  0.0000E+00  0.0000E+00  0.0000E+00  0.0000E+00  0.0000E+00  0.0000E+00
    -33.805  0.0000E+00  0.0000E+00  0.0000E+00  0.0000E+00  0.0000E+00  0.0000E+00  0.0000E+00  0.0000E+00  0.0000E+00
    -33.500  0.0000E+00  0.0000E+00  0.0000E+00  0.0000E+00  0.0000E+00  0.0000E+00  0.0000E+00  0.0000E+00  0.0000E+00
    -33.194  0.0000E+00  0.0000E+00  0.0000E+00  0.0000E+00  0.0000E+00  0.0000E+00  0.0000E+00  0.0000E+00  0.0000E+00
    -32.889  0.0000E+00  0.0000E+00  0.0000E+00  0.0000E+00  0.0000E+00  0.0000E+00  0.0000E+00  0.0000E+00  0.0000E+00
    -32.583  0.0000E+00  0.0000E+00  0.0000E+00  0.0000E+00  0.0000E+00  0.0000E+00  0.0000E+00  0.0000E+00  0.0000E+00
    -32.278  0.0000E+00  0.0000E+00  0.0000E+00  0.0000E+00  0.0000E+00  0.0000E+00  0.0000E+00  0.0000E+00  0.0000E+00
    -31.972  0.0000E+00  0.0000E+00  0.0000E+00  0.0000E+00  0.0000E+00  0.0000E+00  0.0000E+00  0.0000E+00  0.0000E+00
    -31.667  0.0000E+00  0.0000E+00  0.0000E+00  0.0000E+00  0.0000E+00  0.0000E+00  0.0000E+00  0.0000E+00  0.0000E+00
    -31.361  0.0000E+00  0.0000E+00  0.0000E+00  0.0000E+00  0.0000E+00  0.0000E+00  0.0000E+00  0.0000E+00  0.0000E+00
    -31.056  0.0000E+00  0.0000E+00  0.0000E+00  0.0000E+00  0.0000E+00  0.0000E+00  0.0000E+00  0.0000E+00  0.0000E+00
    -30.750  0.0000E+00  0.0000E+00  0.0000E+00  0.0000E+00  0.0000E+00  0.0000E+00  0.0000E+00  0.0000E+00  0.0000E+00
    -30.444  0.0000E+00  0.0000E+00  0.0000E+00  0.0000E+00  0.0000E+00  0.0000E+00  0.0000E+00  0.0000E+00  0.0000E+00
    -30.139  0.0000E+00  0.0000E+00  0.0000E+00  0.0000E+00  0.0000E+00  0.0000E+00  0.0000E+00  0.0000E+00  0.0000E+00
    -29.833  0.0000E+00  0.0000E+00  0.0000E+00  0.0000E+00  0.0000E+00  0.0000E+00  0.0000E+00  0.0000E+00  0.0000E+00
    -29.528  0.0000E+00  0.0000E+00  0.0000E+00  0.0000E+00  0.0000E+00  0.0000E+00  0.0000E+00  0.0000E+00  0.0000E+00
    -29.222  0.0000E+00  0.0000E+00  0.0000E+00  0.0000E+00  0.0000E+00  0.0000E+00  0.0000E+00  0.0000E+00  0.0000E+00
    -28.917  0.0000E+00  0.0000E+00  0.0000E+00  0.0000E+00  0.0000E+00  0.0000E+00  0.0000E+00  0.0000E+00  0.0000E+00
    -28.611  0.0000E+00  0.0000E+00  0.0000E+00  0.0000E+00  0.0000E+00  0.0000E+00  0.0000E+00  0.0000E+00  0.0000E+00
    -28.306  0.0000E+00  0.0000E+00  0.0000E+00  0.0000E+00  0.0000E+00  0.0000E+00  0.0000E+00  0.0000E+00  0.0000E+00
    -28.000  0.0000E+00  0.0000E+00  0.0000E+00  0.0000E+00  0.0000E+00  0.0000E+00  0.0000E+00  0.0000E+00  0.0000E+00
    -27.695  0.0000E+00  0.0000E+00  0.0000E+00  0.0000E+00  0.0000E+00  0.0000E+00  0.0000E+00  0.0000E+00  0.0000E+00
    -27.389  0.0000E+00  0.0000E+00  0.0000E+00  0.0000E+00  0.0000E+00  0.0000E+00  0.0000E+00  0.0000E+00  0.0000E+00
    -27.084  0.0000E+00  0.0000E+00  0.0000E+00  0.0000E+00  0.0000E+00  0.0000E+00  0.0000E+00  0.0000E+00  0.0000E+00
    -26.778  0.0000E+00  0.0000E+00  0.0000E+00  0.0000E+00  0.0000E+00  0.0000E+00  0.0000E+00  0.0000E+00  0.0000E+00
    -26.473  0.0000E+00  0.0000E+00  0.0000E+00  0.0000E+00  0.0000E+00  0.0000E+00  0.0000E+00  0.0000E+00  0.0000E+00
    -26.167  0.0000E+00  0.0000E+00  0.0000E+00  0.0000E+00  0.0000E+00  0.0000E+00  0.0000E+00  0.0000E+00  0.0000E+00
    -25.861  0.0000E+00  0.0000E+00  0.0000E+00  0.0000E+00  0.0000E+00  0.0000E+00  0.0000E+00  0.0000E+00  0.0000E+00
    -25.556  0.0000E+00  0.0000E+00  0.0000E+00  0.0000E+00  0.0000E+00  0.0000E+00  0.0000E+00  0.0000E+00  0.0000E+00
    -25.250  0.0000E+00  0.0000E+00  0.0000E+00  0.0000E+00  0.0000E+00  0.0000E+00  0.0000E+00  0.0000E+00  0.0000E+00
    -24.945  0.0000E+00  0.0000E+00  0.0000E+00  0.0000E+00  0.0000E+00  0.0000E+00  0.0000E+00  0.0000E+00  0.0000E+00
    -24.639  0.0000E+00  0.0000E+00  0.0000E+00  0.0000E+00  0.0000E+00  0.0000E+00  0.0000E+00  0.0000E+00  0.0000E+00
    -24.334  0.0000E+00  0.0000E+00  0.0000E+00  0.0000E+00  0.0000E+00  0.0000E+00  0.0000E+00  0.0000E+00  0.0000E+00
    -24.028  0.0000E+00  0.0000E+00  0.0000E+00  0.0000E+00  0.0000E+00  0.0000E+00  0.0000E+00  0.0000E+00  0.0000E+00
    -23.723  0.0000E+00  0.0000E+00  0.0000E+00  0.0000E+00  0.0000E+00  0.0000E+00  0.0000E+00  0.0000E+00  0.0000E+00
    -23.417  0.0000E+00  0.0000E+00  0.0000E+00  0.0000E+00  0.0000E+00  0.0000E+00  0.0000E+00  0.0000E+00  0.0000E+00
    -23.112  0.0000E+00  0.0000E+00  0.0000E+00  0.0000E+00  0.0000E+00  0.0000E+00  0.0000E+00  0.0000E+00  0.0000E+00
    -22.806  0.0000E+00  0.0000E+00  0.0000E+00  0.0000E+00  0.0000E+00  0.0000E+00  0.0000E+00  0.0000E+00  0.0000E+00
    -22.501  0.0000E+00  0.0000E+00  0.0000E+00  0.0000E+00  0.0000E+00  0.0000E+00  0.0000E+00  0.0000E+00  0.0000E+00
    -22.195  0.0000E+00  0.0000E+00  0.0000E+00  0.0000E+00  0.0000E+00  0.0000E+00  0.0000E+00  0.0000E+00  0.0000E+00
    -21.890  0.0000E+00  0.0000E+00  0.0000E+00  0.0000E+00  0.0000E+00  0.0000E+00  0.0000E+00  0.0000E+00  0.0000E+00
    -21.584  0.0000E+00  0.0000E+00  0.0000E+00  0.0000E+00  0.0000E+00  0.0000E+00  0.0000E+00  0.0000E+00  0.0000E+00
    -21.279  0.0000E+00  0.0000E+00  0.0000E+00  0.0000E+00  0.0000E+00  0.0000E+00  0.0000E+00  0.0000E+00  0.0000E+00
    -20.973  0.0000E+00  0.0000E+00  0.0000E+00  0.0000E+00  0.0000E+00  0.0000E+00  0.0000E+00  0.0000E+00  0.0000E+00
    -20.667  0.0000E+00  0.0000E+00  0.0000E+00  0.0000E+00  0.0000E+00  0.0000E+00  0.0000E+00  0.0000E+00  0.0000E+00
    -20.362  0.0000E+00  0.0000E+00  0.0000E+00  0.0000E+00  0.0000E+00  0.0000E+00  0.0000E+00  0.0000E+00  0.0000E+00
    -20.056  0.0000E+00  0.0000E+00  0.0000E+00  0.0000E+00  0.0000E+00  0.0000E+00  0.0000E+00  0.0000E+00  0.0000E+00
    -19.751  0.0000E+00  0.0000E+00  0.0000E+00  0.0000E+00  0.0000E+00  0.0000E+00  0.0000E+00  0.0000E+00  0.0000E+00
    -19.445  0.0000E+00  0.0000E+00  0.0000E+00  0.0000E+00  0.0000E+00  0.0000E+00  0.0000E+00  0.0000E+00  0.0000E+00
    -19.140  0.0000E+00  0.0000E+00  0.0000E+00  0.0000E+00  0.0000E+00  0.0000E+00  0.0000E+00  0.0000E+00  0.0000E+00