<?xml version="1.0" encoding="ISO-8859-1"?>
<modeling>
 <generator>
  <i name="program" type="string">vasp </i>
  <i name="version" type="string">6.2.1  </i>
  <i name="subversion" type="string">16May21 (build Aug 15 2022 14:47:30) complex                          parallel </i>
  <i name="platform" type="string">LinuxGNU </i>
  <i name="date" type="string">2025 12 24 </i>
  <i name="time" type="string">15:19:29 </i>
 </generator>
 <incar>
  <i type="string" name="PREC">Accurate</i>
  <i type="string" name="ALGO">Fast</i>
  <i type="int" name="NELM">   100</i>
  <i name="EDIFF">      0.00000001</i>
  <i type="int" name="NSW">     0</i>
  <i name="ENCUT">    520.00000000</i>
  <i type="logical" name="LREAL"> F  </i>
  <i type="int" name="ISMEAR">     1</i>
  <i type="logical" name="LWAVE"> F  </i>
  <i type="logical" name="LCHARG"> T  </i>
  <i type="int" name="LORBIT">    11</i>
  <i type="logical" name="LASPH"> T  </i>
 </incar>
 <primitive_cell>
  <structure name="primitive_cell" >
   <crystal>
    <varray name="basis" >
     <v>       1.78871534       0.00000000      -1.77082818 </v>
     <v>      -1.78871534       0.00000000      -1.77082818 </v>
     <v>       0.00000000       1.78871534       1.77082818 </v>
    </varray>
    <i name="volume">     11.33153858 </i>
    <varray name="rec_basis" >
     <v>       0.27953022       0.27953022      -0.28235376 </v>
     <v>      -0.27953022       0.27953022      -0.28235376 </v>
     <v>       0.00000000       0.55906045       0.00000000 </v>
    </varray>
   </crystal>
   <varray name="positions" >
    <v>       0.00000000       0.00000000       0.00000000 </v>
   </varray>
  </structure>
  <varray name="primitive_index" >
   <v type="int" >        1 </v>
  </varray>
 </primitive_cell>
 <kpoints>
  <generation param="Gamma">
   <v type="int" name="divisions">      12       12       12 </v>
   <v name="usershift">      0.00000000       0.00000000       0.00000000 </v>
   <v name="genvec1">      0.08333333      -0.00000000       0.00000000 </v>
   <v name="genvec2">      0.00000000       0.08333333       0.00000000 </v>
   <v name="genvec3">     -0.00000000      -0.00000000       0.08333333 </v>
   <v name="shift">      0.00000000       0.00000000       0.00000000 </v>
  </generation>
  <varray name="kpointlist" >
   <v>       0.00000000       0.00000000       0.00000000 </v>
   <v>       0.08333333       0.00000000       0.00000000 </v>
   <v>       0.16666667       0.00000000       0.00000000 </v>
   <v>       0.25000000       0.00000000       0.00000000 </v>
   <v>       0.33333333       0.00000000       0.00000000 </v>
   <v>       0.41666667       0.00000000       0.00000000 </v>
   <v>       0.50000000       0.00000000       0.00000000 </v>
   <v>       0.08333333       0.08333333       0.00000000 </v>
   <v>       0.16666667       0.08333333       0.00000000 </v>
   <v>       0.25000000       0.08333333       0.00000000 </v>
   <v>       0.33333333       0.08333333       0.00000000 </v>
   <v>       0.41666667       0.08333333       0.00000000 </v>
   <v>       0.50000000       0.08333333       0.00000000 </v>
   <v>       0.16666667       0.16666667       0.00000000 </v>
   <v>       0.25000000       0.16666667       0.00000000 </v>
   <v>       0.33333333       0.16666667       0.00000000 </v>
   <v>       0.41666667       0.16666667       0.00000000 </v>
   <v>       0.50000000       0.16666667       0.00000000 </v>
   <v>       0.25000000       0.25000000       0.00000000 </v>
   <v>       0.33333333       0.25000000       0.00000000 </v>
   <v>       0.41666667       0.25000000       0.00000000 </v>
   <v>       0.50000000       0.25000000       0.00000000 </v>
   <v>       0.33333333       0.33333333       0.00000000 </v>
   <v>       0.41666667       0.33333333       0.00000000 </v>
   <v>       0.50000000       0.33333333       0.00000000 </v>
   <v>       0.41666667       0.41666667       0.00000000 </v>
   <v>       0.50000000       0.41666667       0.00000000 </v>
   <v>       0.50000000       0.50000000       0.00000000 </v>
   <v>       0.00000000       0.00000000       0.08333333 </v>
   <v>       0.08333333       0.00000000       0.08333333 </v>
   <v>       0.16666667       0.00000000       0.08333333 </v>
   <v>       0.25000000       0.00000000       0.08333333 </v>
   <v>       0.33333333       0.00000000       0.08333333 </v>
   <v>       0.41666667       0.00000000       0.08333333 </v>
   <v>       0.50000000       0.00000000       0.08333333 </v>
   <v>       0.08333333       0.08333333       0.08333333 </v>
   <v>       0.16666667       0.08333333       0.08333333 </v>
   <v>       0.25000000       0.08333333       0.08333333 </v>
   <v>       0.33333333       0.08333333       0.08333333 </v>
   <v>       0.41666667       0.08333333       0.08333333 </v>
   <v>       0.50000000       0.08333333       0.08333333 </v>
   <v>       0.16666667       0.16666667       0.08333333 </v>
   <v>       0.25000000       0.16666667       0.08333333 </v>
   <v>       0.33333333       0.16666667       0.08333333 </v>
   <v>       0.41666667       0.16666667       0.08333333 </v>
   <v>       0.50000000       0.16666667       0.08333333 </v>
   <v>       0.25000000       0.25000000       0.08333333 </v>
   <v>       0.33333333       0.25000000       0.08333333 </v>
   <v>       0.41666667       0.25000000       0.08333333 </v>
   <v>       0.50000000       0.25000000       0.08333333 </v>
   <v>       0.33333333       0.33333333       0.08333333 </v>
   <v>       0.41666667       0.33333333       0.08333333 </v>
   <v>       0.50000000       0.33333333       0.08333333 </v>
   <v>       0.41666667       0.41666667       0.08333333 </v>
   <v>       0.50000000       0.41666667       0.08333333 </v>
   <v>       0.50000000       0.50000000       0.08333333 </v>
   <v>       0.00000000       0.00000000       0.16666667 </v>
   <v>       0.08333333       0.00000000       0.16666667 </v>
   <v>       0.16666667       0.00000000       0.16666667 </v>
   <v>       0.25000000       0.00000000       0.16666667 </v>
   <v>       0.33333333       0.00000000       0.16666667 </v>
   <v>       0.41666667       0.00000000       0.16666667 </v>
   <v>       0.50000000       0.00000000       0.16666667 </v>
   <v>       0.08333333       0.08333333       0.16666667 </v>
   <v>       0.16666667       0.08333333       0.16666667 </v>
   <v>       0.25000000       0.08333333       0.16666667 </v>
   <v>       0.33333333       0.08333333       0.16666667 </v>
   <v>       0.41666667       0.08333333       0.16666667 </v>
   <v>       0.50000000       0.08333333       0.16666667 </v>
   <v>       0.16666667       0.16666667       0.16666667 </v>
   <v>       0.25000000       0.16666667       0.16666667 </v>
   <v>       0.33333333       0.16666667       0.16666667 </v>
   <v>       0.41666667       0.16666667       0.16666667 </v>
   <v>       0.50000000       0.16666667       0.16666667 </v>
   <v>       0.25000000       0.25000000       0.16666667 </v>
   <v>       0.33333333       0.25000000       0.16666667 </v>
   <v>       0.41666667       0.25000000       0.16666667 </v>
   <v>       0.50000000       0.25000000       0.16666667 </v>
   <v>       0.33333333       0.33333333       0.16666667 </v>
   <v>       0.41666667       0.33333333       0.16666667 </v>
   <v>       0.50000000       0.33333333       0.16666667 </v>
   <v>       0.41666667       0.41666667       0.16666667 </v>
   <v>       0.50000000       0.41666667       0.16666667 </v>
   <v>       0.50000000       0.50000000       0.16666667 </v>
   <v>       0.00000000       0.00000000       0.25000000 </v>
   <v>       0.08333333       0.00000000       0.25000000 </v>
   <v>       0.16666667       0.00000000       0.25000000 </v>
   <v>       0.25000000       0.00000000       0.25000000 </v>
   <v>       0.33333333       0.00000000       0.25000000 </v>
   <v>       0.41666667       0.00000000       0.25000000 </v>
   <v>       0.50000000       0.00000000       0.25000000 </v>
   <v>       0.08333333       0.08333333       0.25000000 </v>
   <v>       0.16666667       0.08333333       0.25000000 </v>
   <v>       0.25000000       0.08333333       0.25000000 </v>
   <v>       0.33333333       0.08333333       0.25000000 </v>
   <v>       0.41666667       0.08333333       0.25000000 </v>
   <v>       0.50000000       0.08333333       0.25000000 </v>
   <v>       0.16666667       0.16666667       0.25000000 </v>
   <v>       0.25000000       0.16666667       0.25000000 </v>
   <v>       0.33333333       0.16666667       0.25000000 </v>
   <v>       0.41666667       0.16666667       0.25000000 </v>
   <v>       0.50000000       0.16666667       0.25000000 </v>
   <v>       0.25000000       0.25000000       0.25000000 </v>
   <v>       0.33333333       0.25000000       0.25000000 </v>
   <v>       0.41666667       0.25000000       0.25000000 </v>
   <v>       0.50000000       0.25000000       0.25000000 </v>
   <v>       0.33333333       0.33333333       0.25000000 </v>
   <v>       0.41666667       0.33333333       0.25000000 </v>
   <v>       0.50000000       0.33333333       0.25000000 </v>
   <v>       0.41666667       0.41666667       0.25000000 </v>
   <v>       0.50000000       0.41666667       0.25000000 </v>
   <v>       0.50000000       0.50000000       0.25000000 </v>
   <v>       0.00000000       0.00000000       0.33333333 </v>
   <v>       0.08333333       0.00000000       0.33333333 </v>
   <v>       0.16666667       0.00000000       0.33333333 </v>
   <v>       0.25000000       0.00000000       0.33333333 </v>
   <v>       0.33333333       0.00000000       0.33333333 </v>
   <v>       0.41666667       0.00000000       0.33333333 </v>
   <v>       0.50000000       0.00000000       0.33333333 </v>
   <v>       0.08333333       0.08333333       0.33333333 </v>
   <v>       0.16666667       0.08333333       0.33333333 </v>
   <v>       0.25000000       0.08333333       0.33333333 </v>
   <v>       0.33333333       0.08333333       0.33333333 </v>
   <v>       0.41666667       0.08333333       0.33333333 </v>
   <v>       0.50000000       0.08333333       0.33333333 </v>
   <v>       0.16666667       0.16666667       0.33333333 </v>
   <v>       0.25000000       0.16666667       0.33333333 </v>
   <v>       0.33333333       0.16666667       0.33333333 </v>
   <v>       0.41666667       0.16666667       0.33333333 </v>
   <v>       0.50000000       0.16666667       0.33333333 </v>
   <v>       0.25000000       0.25000000       0.33333333 </v>
   <v>       0.33333333       0.25000000       0.33333333 </v>
   <v>       0.41666667       0.25000000       0.33333333 </v>
   <v>       0.50000000       0.25000000       0.33333333 </v>
   <v>       0.33333333       0.33333333       0.33333333 </v>
   <v>       0.41666667       0.33333333       0.33333333 </v>
   <v>       0.50000000       0.33333333       0.33333333 </v>
   <v>       0.41666667       0.41666667       0.33333333 </v>
   <v>       0.50000000       0.41666667       0.33333333 </v>
   <v>       0.50000000       0.50000000       0.33333333 </v>
   <v>       0.00000000       0.00000000       0.41666667 </v>
   <v>       0.08333333       0.00000000       0.41666667 </v>
   <v>       0.16666667       0.00000000       0.41666667 </v>
   <v>       0.25000000       0.00000000       0.41666667 </v>
   <v>       0.33333333       0.00000000       0.41666667 </v>
   <v>       0.41666667       0.00000000       0.41666667 </v>
   <v>       0.50000000       0.00000000       0.41666667 </v>
   <v>       0.08333333       0.08333333       0.41666667 </v>
   <v>       0.16666667       0.08333333       0.41666667 </v>
   <v>       0.25000000       0.08333333       0.41666667 </v>
   <v>       0.33333333       0.08333333       0.41666667 </v>
   <v>       0.41666667       0.08333333       0.41666667 </v>
   <v>       0.50000000       0.08333333       0.41666667 </v>
   <v>       0.16666667       0.16666667       0.41666667 </v>
   <v>       0.25000000       0.16666667       0.41666667 </v>
   <v>       0.33333333       0.16666667       0.41666667 </v>
   <v>       0.41666667       0.16666667       0.41666667 </v>
   <v>       0.50000000       0.16666667       0.41666667 </v>
   <v>       0.25000000       0.25000000       0.41666667 </v>
   <v>       0.33333333       0.25000000       0.41666667 </v>
   <v>       0.41666667       0.25000000       0.41666667 </v>
   <v>       0.50000000       0.25000000       0.41666667 </v>
   <v>       0.33333333       0.33333333       0.41666667 </v>
   <v>       0.41666667       0.33333333       0.41666667 </v>
   <v>       0.50000000       0.33333333       0.41666667 </v>
   <v>       0.41666667       0.41666667       0.41666667 </v>
   <v>       0.50000000       0.41666667       0.41666667 </v>
   <v>       0.50000000       0.50000000       0.41666667 </v>
   <v>       0.00000000       0.00000000       0.50000000 </v>
   <v>       0.08333333       0.00000000       0.50000000 </v>
   <v>       0.16666667       0.00000000       0.50000000 </v>
   <v>       0.25000000       0.00000000       0.50000000 </v>
   <v>       0.33333333       0.00000000       0.50000000 </v>
   <v>       0.41666667       0.00000000       0.50000000 </v>
   <v>       0.50000000       0.00000000       0.50000000 </v>
   <v>       0.08333333       0.08333333       0.50000000 </v>
   <v>       0.16666667       0.08333333       0.50000000 </v>
   <v>       0.25000000       0.08333333       0.50000000 </v>
   <v>       0.33333333       0.08333333       0.50000000 </v>
   <v>       0.41666667       0.08333333       0.50000000 </v>
   <v>       0.50000000       0.08333333       0.50000000 </v>
   <v>       0.16666667       0.16666667       0.50000000 </v>
   <v>       0.25000000       0.16666667       0.50000000 </v>
   <v>       0.33333333       0.16666667       0.50000000 </v>
   <v>       0.41666667       0.16666667       0.50000000 </v>
   <v>       0.50000000       0.16666667       0.50000000 </v>
   <v>       0.25000000       0.25000000       0.50000000 </v>
   <v>       0.33333333       0.25000000       0.50000000 </v>
   <v>       0.41666667       0.25000000       0.50000000 </v>
   <v>       0.50000000       0.25000000       0.50000000 </v>
   <v>       0.33333333       0.33333333       0.50000000 </v>
   <v>       0.41666667       0.33333333       0.50000000 </v>
   <v>       0.50000000       0.33333333       0.50000000 </v>
   <v>       0.41666667       0.41666667       0.50000000 </v>
   <v>       0.50000000       0.41666667       0.50000000 </v>
   <v>       0.50000000       0.50000000       0.50000000 </v>
  </varray>
  <varray name="weights" >
   <v>       0.00057870 </v>
   <v>       0.00231481 </v>
   <v>       0.00231481 </v>
   <v>       0.00231481 </v>
   <v>       0.00231481 </v>
   <v>       0.00231481 </v>
   <v>       0.00115741 </v>
   <v>       0.00231481 </v>
   <v>       0.00462963 </v>
   <v>       0.00462963 </v>
   <v>       0.00462963 </v>
   <v>       0.00462963 </v>
   <v>       0.00231481 </v>
   <v>       0.00231481 </v>
   <v>       0.00462963 </v>
   <v>       0.00462963 </v>
   <v>       0.00462963 </v>
   <v>       0.00231481 </v>
   <v>       0.00231481 </v>
   <v>       0.00462963 </v>
   <v>       0.00462963 </v>
   <v>       0.00231481 </v>
   <v>       0.00231481 </v>
   <v>       0.00462963 </v>
   <v>       0.00231481 </v>
   <v>       0.00231481 </v>
   <v>       0.00231481 </v>
   <v>       0.00057870 </v>
   <v>       0.00115741 </v>
   <v>       0.00462963 </v>
   <v>       0.00462963 </v>
   <v>       0.00462963 </v>
   <v>       0.00462963 </v>
   <v>       0.00462963 </v>
   <v>       0.00231481 </v>
   <v>       0.00462963 </v>
   <v>       0.00925926 </v>
   <v>       0.00925926 </v>
   <v>       0.00925926 </v>
   <v>       0.00925926 </v>
   <v>       0.00462963 </v>
   <v>       0.00462963 </v>
   <v>       0.00925926 </v>
   <v>       0.00925926 </v>
   <v>       0.00925926 </v>
   <v>       0.00462963 </v>
   <v>       0.00462963 </v>
   <v>       0.00925926 </v>
   <v>       0.00925926 </v>
   <v>       0.00462963 </v>
   <v>       0.00462963 </v>
   <v>       0.00925926 </v>
   <v>       0.00462963 </v>
   <v>       0.00462963 </v>
   <v>       0.00462963 </v>
   <v>       0.00115741 </v>
   <v>       0.00115741 </v>
   <v>       0.00462963 </v>
   <v>       0.00462963 </v>
   <v>       0.00462963 </v>
   <v>       0.00462963 </v>
   <v>       0.00462963 </v>
   <v>       0.00231481 </v>
   <v>       0.00462963 </v>
   <v>       0.00925926 </v>
   <v>       0.00925926 </v>
   <v>       0.00925926 </v>
   <v>       0.00925926 </v>
   <v>       0.00462963 </v>
   <v>       0.00462963 </v>
   <v>       0.00925926 </v>
   <v>       0.00925926 </v>
   <v>       0.00925926 </v>
   <v>       0.00462963 </v>
   <v>       0.00462963 </v>
   <v>       0.00925926 </v>
   <v>       0.00925926 </v>
   <v>       0.00462963 </v>
   <v>       0.00462963 </v>
   <v>       0.00925926 </v>
   <v>       0.00462963 </v>
   <v>       0.00462963 </v>
   <v>       0.00462963 </v>
   <v>       0.00115741 </v>
   <v>       0.00115741 </v>
   <v>       0.00462963 </v>
   <v>       0.00462963 </v>
   <v>       0.00462963 </v>
   <v>       0.00462963 </v>
   <v>       0.00462963 </v>
   <v>       0.00231481 </v>
   <v>       0.00462963 </v>
   <v>       0.00925926 </v>
   <v>       0.00925926 </v>
   <v>       0.00925926 </v>
   <v>       0.00925926 </v>
   <v>       0.00462963 </v>
   <v>       0.00462963 </v>
   <v>       0.00925926 </v>
   <v>       0.00925926 </v>
   <v>       0.00925926 </v>
   <v>       0.00462963 </v>
   <v>       0.00462963 </v>
   <v>       0.00925926 </v>
   <v>       0.00925926 </v>
   <v>       0.00462963 </v>
   <v>       0.00462963 </v>
   <v>       0.00925926 </v>
   <v>       0.00462963 </v>
   <v>       0.00462963 </v>
   <v>       0.00462963 </v>
   <v>       0.00115741 </v>
   <v>       0.00115741 </v>
   <v>       0.00462963 </v>
   <v>       0.00462963 </v>
   <v>       0.00462963 </v>
   <v>       0.00462963 </v>
   <v>       0.00462963 </v>
   <v>       0.00231481 </v>
   <v>       0.00462963 </v>
   <v>       0.00925926 </v>
   <v>       0.00925926 </v>
   <v>       0.00925926 </v>
   <v>       0.00925926 </v>
   <v>       0.00462963 </v>
   <v>       0.00462963 </v>
   <v>       0.00925926 </v>
   <v>       0.00925926 </v>
   <v>       0.00925926 </v>
   <v>       0.00462963 </v>
   <v>       0.00462963 </v>
   <v>       0.00925926 </v>
   <v>       0.00925926 </v>
   <v>       0.00462963 </v>
   <v>       0.00462963 </v>
   <v>       0.00925926 </v>
   <v>       0.00462963 </v>
   <v>       0.00462963 </v>
   <v>       0.00462963 </v>
   <v>       0.00115741 </v>
   <v>       0.00115741 </v>
   <v>       0.00462963 </v>
   <v>       0.00462963 </v>
   <v>       0.00462963 </v>
   <v>       0.00462963 </v>
   <v>       0.00462963 </v>
   <v>       0.00231481 </v>
   <v>       0.00462963 </v>
   <v>       0.00925926 </v>
   <v>       0.00925926 </v>
   <v>       0.00925926 </v>
   <v>       0.00925926 </v>
   <v>       0.00462963 </v>
   <v>       0.00462963 </v>
   <v>       0.00925926 </v>
   <v>       0.00925926 </v>
   <v>       0.00925926 </v>
   <v>       0.00462963 </v>
   <v>       0.00462963 </v>
   <v>       0.00925926 </v>
   <v>       0.00925926 </v>
   <v>       0.00462963 </v>
   <v>       0.00462963 </v>
   <v>       0.00925926 </v>
   <v>       0.00462963 </v>
   <v>       0.00462963 </v>
   <v>       0.00462963 </v>
   <v>       0.00115741 </v>
   <v>       0.00057870 </v>
   <v>       0.00231481 </v>
   <v>       0.00231481 </v>
   <v>       0.00231481 </v>
   <v>       0.00231481 </v>
   <v>       0.00231481 </v>
   <v>       0.00115741 </v>
   <v>       0.00231481 </v>
   <v>       0.00462963 </v>
   <v>       0.00462963 </v>
   <v>       0.00462963 </v>
   <v>       0.00462963 </v>
   <v>       0.00231481 </v>
   <v>       0.00231481 </v>
   <v>       0.00462963 </v>
   <v>       0.00462963 </v>
   <v>       0.00462963 </v>
   <v>       0.00231481 </v>
   <v>       0.00231481 </v>
   <v>       0.00462963 </v>
   <v>       0.00462963 </v>
   <v>       0.00231481 </v>
   <v>       0.00231481 </v>
   <v>       0.00462963 </v>
   <v>       0.00231481 </v>
   <v>       0.00231481 </v>
   <v>       0.00231481 </v>
   <v>       0.00057870 </v>
  </varray>
 </kpoints>
 <parameters>
  <separator name="general" >
   <i type="string" name="SYSTEM">unknown system</i>
   <i type="logical" name="LCOMPAT"> F  </i>
  </separator>
  <separator name="electronic" >
   <i type="string" name="PREC">accura</i>
   <i name="ENMAX">    520.00000000</i>
   <i name="ENAUG">    758.23300000</i>
   <i name="EDIFF">      0.00000001</i>
   <i type="int" name="IALGO">    68</i>
   <i type="int" name="IWAVPR">    10</i>
   <i type="int" name="NBANDS">    40</i>
   <i type="int" name="NBANDSLOW">    -1</i>
   <i type="int" name="NBANDSHIGH">    -1</i>
   <i name="NELECT">     68.00000000</i>
   <i type="int" name="TURBO">     0</i>
   <i type="int" name="IRESTART">     0</i>
   <i type="int" name="NREBOOT">     0</i>
   <i type="int" name="NMIN">     0</i>
   <i name="EREF">      0.00000000</i>
   <separator name="electronic smearing" >
    <i type="int" name="ISMEAR">     1</i>
    <i name="SIGMA">      0.20000000</i>
    <i name="KSPACING">      0.50000000</i>
    <i type="logical" name="KGAMMA"> T  </i>
    <i type="logical" name="KBLOWUP"> T  </i>
   </separator>
   <separator name="electronic projectors" >
    <i type="logical" name="LREAL"> F  </i>
    <v name="ROPT">      0.00000000</v>
    <i type="int" name="LMAXPAW">  -100</i>
    <i type="int" name="LMAXMIX">     2</i>
    <i type="logical" name="NLSPLINE"> F  </i>
   </separator>
   <separator name="electronic startup" >
    <i type="int" name="ISTART">     0</i>
    <i type="int" name="ICHARG">     2</i>
    <i type="int" name="INIWAV">     1</i>
   </separator>
   <separator name="electronic spin" >
    <i type="int" name="ISPIN">     1</i>
    <i type="logical" name="LNONCOLLINEAR"> F  </i>
    <v name="MAGMOM">      1.00000000      1.00000000      1.00000000      1.00000000</v>
    <i name="NUPDOWN">     -1.00000000</i>
    <i type="logical" name="LSORBIT"> F  </i>
    <v name="SAXIS">      0.00000000      0.00000000      1.00000000</v>
    <i type="logical" name="LSPIRAL"> F  </i>
    <v name="QSPIRAL">      0.00000000      0.00000000      0.00000000</v>
    <i type="logical" name="LZEROZ"> F  </i>
   </separator>
   <separator name="electronic exchange-correlation" >
    <i type="logical" name="LASPH"> T  </i>
    <i type="logical" name="LMETAGGA"> F  </i>
   </separator>
   <separator name="electronic convergence" >
    <i type="int" name="NELM">   100</i>
    <i type="int" name="NELMDL">    -5</i>
    <i type="int" name="NELMIN">     2</i>
    <i name="ENINI">    520.00000000</i>
    <separator name="electronic convergence detail" >
     <i type="logical" name="LDIAG"> T  </i>
     <i type="logical" name="LSUBROT"> F  </i>
     <i name="WEIMIN">      0.00000000</i>
     <i name="EBREAK">      0.00000000</i>
     <i name="DEPER">      0.30000000</i>
     <i type="int" name="NRMM">     4</i>
     <i name="TIME">      0.40000000</i>
    </separator>
   </separator>
   <separator name="electronic mixer" >
    <i name="AMIX">      0.40000000</i>
    <i name="BMIX">      1.00000000</i>
    <i name="AMIN">      0.10000000</i>
    <i name="AMIX_MAG">      1.60000000</i>
    <i name="BMIX_MAG">      1.00000000</i>
    <separator name="electronic mixer details" >
     <i type="int" name="IMIX">     4</i>
     <i type="logical" name="MIXFIRST"> F  </i>
     <i type="int" name="MAXMIX">   -45</i>
     <i name="WC">    100.00000000</i>
     <i type="int" name="INIMIX">     1</i>
     <i type="int" name="MIXPRE">     1</i>
     <i type="int" name="MREMOVE">     5</i>
    </separator>
   </separator>
   <separator name="electronic dipolcorrection" >
    <i type="logical" name="LDIPOL"> F  </i>
    <i type="logical" name="LMONO"> F  </i>
    <i type="int" name="IDIPOL">     0</i>
    <i name="EPSILON">      1.00000000</i>
    <v name="DIPOL">   -100.00000000   -100.00000000   -100.00000000</v>
    <i name="EFIELD">      0.00000000</i>
   </separator>
  </separator>
  <separator name="grids" >
   <i type="int" name="NGX">    28</i>
   <i type="int" name="NGY">    28</i>
   <i type="int" name="NGZ">    28</i>
   <i type="int" name="NGXF">    56</i>
   <i type="int" name="NGYF">    56</i>
   <i type="int" name="NGZF">    56</i>
   <i type="logical" name="ADDGRID"> F  </i>
  </separator>
  <separator name="ionic" >
   <i type="int" name="NSW">     0</i>
   <i type="int" name="IBRION">    -1</i>
   <i type="int" name="MDALGO">     0</i>
   <i type="int" name="ISIF">     2</i>
   <i name="PSTRESS">      0.00000000</i>
   <i name="EDIFFG">      0.00000010</i>
   <i type="int" name="NFREE">     0</i>
   <i name="POTIM">      0.50000000</i>
   <i name="SMASS">     -3.00000000</i>
   <i name="SCALEE">      1.00000000</i>
  </separator>
  <separator name="ionic md" >
   <i name="TEBEG">      0.00010000</i>
   <i name="TEEND">      0.00010000</i>
   <i type="int" name="NBLOCK">     1</i>
   <i type="int" name="KBLOCK">     1</i>
   <i type="int" name="NPACO">   256</i>
   <i name="APACO">     16.00000000</i>
  </separator>
  <separator name="symmetry" >
   <i type="int" name="ISYM">     2</i>
   <i name="SYMPREC">      0.00001000</i>
  </separator>
  <separator name="dos" >
   <i type="int" name="LORBIT">    11</i>
   <v name="RWIGS">     -1.00000000</v>
   <i type="int" name="NEDOS">   301</i>
   <i name="EMIN">     10.00000000</i>
   <i name="EMAX">    -10.00000000</i>
   <i name="EFERMI">      0.00000000</i>
  </separator>
  <separator name="writing" >
   <i type="int" name="NWRITE">     2</i>
   <i type="logical" name="LWAVE"> F  </i>
   <i type="logical" name="LDOWNSAMPLE"> F  </i>
   <i type="logical" name="LCHARG"> T  </i>
   <i type="logical" name="LPARD"> F  </i>
   <i type="logical" name="LVTOT"> F  </i>
   <i type="logical" name="LVHAR"> F  </i>
   <i type="logical" name="LELF"> F  </i>
   <i type="logical" name="LOPTICS"> F  </i>
   <v name="STM">      0.00000000      0.00000000      0.00000000      0.00000000      0.00000000      0.00000000      0.00000000</v>
  </separator>
  <separator name="performance" >
   <i type="int" name="NPAR">     4</i>
   <i type="int" name="NSIM">     4</i>
   <i type="int" name="NBLK">    -1</i>
   <i type="logical" name="LPLANE"> T  </i>
   <i type="logical" name="LSCALAPACK"> T  </i>
   <i type="logical" name="LSCAAWARE"> F  </i>
   <i type="logical" name="LSCALU"> F  </i>
   <i type="logical" name="LASYNC"> F  </i>
   <i type="logical" name="LORBITALREAL"> F  </i>
  </separator>
  <separator name="miscellaneous" >
   <i type="int" name="IDIOT">     3</i>
   <i type="int" name="PHON_NSTRUCT">    -1</i>
   <i type="logical" name="LMUSIC"> F  </i>
   <v name="POMASS">     63.54600000</v>
   <v name="DARWINR">      0.00000000</v>
   <v name="DARWINV">      1.00000000</v>
   <i type="logical" name="LCORR"> T  </i>
  </separator>
  <i type="logical" name="GGA_COMPAT"> T  </i>
  <i type="logical" name="LBERRY"> F  </i>
  <i type="int" name="ICORELEVEL">     0</i>
  <i type="logical" name="LDAU"> F  </i>
  <i type="int" name="I_CONSTRAINED_M">     0</i>
  <separator name="electronic exchange-correlation" >
   <i type="string" name="GGA">--</i>
   <i type="int" name="VOSKOWN">     0</i>
   <i type="logical" name="LHFCALC"> F  </i>
   <i type="string" name="PRECFOCK"></i>
   <i type="logical" name="LSYMGRAD"> F  </i>
   <i type="logical" name="LHFONE"> F  </i>
   <i type="logical" name="LRHFCALC"> F  </i>
   <i type="logical" name="LTHOMAS"> F  </i>
   <i type="logical" name="LMODELHF"> F  </i>
   <i type="logical" name="LFOCKACE"> F  </i>
   <i name="ENCUT4O">     -1.00000000</i>
   <i type="int" name="EXXOEP">     0</i>
   <i type="int" name="FOURORBIT">     0</i>
   <i name="AEXX">      0.00000000</i>
   <i name="HFALPHA">      0.00000000</i>
   <i name="MCALPHA">      0.00000000</i>
   <i name="ALDAX">      1.00000000</i>
   <i name="AGGAX">      1.00000000</i>
   <i name="ALDAC">      1.00000000</i>
   <i name="AGGAC">      1.00000000</i>
   <i type="int" name="NKREDX">     1</i>
   <i type="int" name="NKREDY">     1</i>
   <i type="int" name="NKREDZ">     1</i>
   <i type="logical" name="SHIFTRED"> F  </i>
   <i type="logical" name="ODDONLY"> F  </i>
   <i type="logical" name="EVENONLY"> F  </i>
   <i type="int" name="LMAXFOCK">     0</i>
   <i type="int" name="NMAXFOCKAE">     0</i>
   <i type="logical" name="LFOCKAEDFT"> F  </i>
   <i name="HFSCREEN">      0.00000000</i>
   <i name="HFSCREENC">      0.00000000</i>
   <i type="int" name="NBANDSGWLOW">     0</i>
  </separator>
  <separator name="vdW DFT" >
   <i type="logical" name="LUSE_VDW"> F  </i>
   <i name="Zab_VDW">     -0.84910000</i>
   <i name="PARAM1">      0.12340000</i>
   <i name="PARAM2">      1.00000000</i>
   <i name="PARAM3">      0.00000000</i>
  </separator>
  <separator name="model GW" >
   <i type="int" name="MODEL_GW">     0</i>
   <i name="MODEL_EPS0">      6.79892315</i>
   <i name="MODEL_ALPHA">      1.00000000</i>
  </separator>
  <separator name="linear response parameters" >
   <i type="logical" name="LEPSILON"> F  </i>
   <i type="logical" name="LRPA"> F  </i>
   <i type="logical" name="LNABLA"> F  </i>
   <i type="logical" name="LVEL"> F  </i>
   <i type="int" name="KINTER">     0</i>
   <i name="CSHIFT">      0.10000000</i>
   <i name="OMEGAMAX">     -1.00000000</i>
   <i name="DEG_THRESHOLD">      0.00200000</i>
   <i name="RTIME">     -0.10000000</i>
   <i name="WPLASMAI">      0.00000000</i>
   <v name="DFIELD">      0.00000000      0.00000000      0.00000000</v>
   <v name="WPLASMA">      0.00000000      0.00000000      0.00000000      0.00000000      0.00000000      0.00000000      0.00000000      0.00000000      0.00000000</v>
  </separator>
  <separator name="orbital magnetization" >
   <i type="logical" name="NUCIND"> F  </i>
   <v name="MAGPOS">      0.00000000      0.00000000      0.00000000</v>
   <i type="logical" name="LNICSALL"> T  </i>
   <i type="logical" name="ORBITALMAG"> F  </i>
   <i type="logical" name="LMAGBLOCH"> F  </i>
   <i type="logical" name="LCHIMAG"> F  </i>
   <i type="logical" name="LGAUGE"> T  </i>
   <i type="int" name="MAGATOM">     0</i>
   <v name="MAGDIPOL">      0.00000000      0.00000000      0.00000000</v>
   <v name="AVECCONST">      0.00000000      0.00000000      0.00000000</v>
  </separator>
  <separator name="response functions" >
   <i type="logical" name="LFINITE_TEMPERATURE"> F  </i>
   <i type="logical" name="LADDER"> F  </i>
   <i type="logical" name="LRPAFORCE"> F  </i>
   <i type="logical" name="LFXC"> F  </i>
   <i type="logical" name="LHARTREE"> T  </i>
   <i type="int" name="IBSE">     0</i>
   <v type="int" name="KPOINT">    -1     0     0     0</v>
   <i type="logical" name="LTCTC"> F  </i>
   <i type="logical" name="LTCTE"> F  </i>
   <i type="logical" name="LTETE"> F  </i>
   <i type="logical" name="LTRIPLET"> F  </i>
   <i type="logical" name="LFXCEPS"> F  </i>
   <i type="logical" name="LFXHEG"> F  </i>
   <i type="int" name="NATURALO">     2</i>
   <i type="logical" name="LHOLEGF"> F  </i>
   <i type="logical" name="L2ORDER"> F  </i>
   <i type="logical" name="LDMP1"> F  </i>
   <i type="logical" name="LMP2LT"> F  </i>
   <i type="logical" name="LSMP2LT"> F  </i>
   <i type="logical" name="LGWLF"> F  </i>
   <i name="ENCUTGW">     -2.00000000</i>
   <i name="ENCUTGWSOFT">     -2.00000000</i>
   <i name="ENCUTLF">     -1.00000000</i>
   <i type="logical" name="LESF_SPLINES"> F  </i>
   <i type="int" name="LMAXMP2">    -1</i>
   <i name="SCISSOR">      0.00000000</i>
   <i type="int" name="NOMEGA">     0</i>
   <i type="int" name="NOMEGAR">     0</i>
   <i type="int" name="NBANDSGW">    -1</i>
   <i type="int" name="NBANDSO">    -1</i>
   <i type="int" name="NBANDSV">    -1</i>
   <i type="int" name="NELM">   100</i>
   <i type="int" name="NELMHF">     1</i>
   <i type="int" name="DIM">     3</i>
   <i type="int" name="IESPILON">     4</i>
   <i type="int" name="ANTIRES">     0</i>
   <i name="OMEGAMAX">    -30.00000000</i>
   <i name="OMEGAMIN">    -30.00000000</i>
   <i name="OMEGATL">   -200.00000000</i>
   <i type="int" name="OMEGAGRID">     0</i>
   <i name="CSHIFT">     -0.10000000</i>
   <i type="logical" name="LSELFENERGY"> F  </i>
   <i type="logical" name="LSPECTRAL"> F  </i>
   <i type="logical" name="LSPECTRALGW"> F  </i>
   <i type="logical" name="LSINGLES"> F  </i>
   <i type="logical" name="LFERMIGW"> F  </i>
   <i type="logical" name="ODDONLYGW"> F  </i>
   <i type="logical" name="EVENONLYGW"> F  </i>
   <i type="int" name="NKREDLFX">     1</i>
   <i type="int" name="NKREDLFY">     1</i>
   <i type="int" name="NKREDLFZ">     1</i>
   <i type="int" name="MAXMEM">  2800</i>
   <i type="int" name="TELESCOPE">     0</i>
   <i type="int" name="NTAUPAR">    -1</i>
   <i type="int" name="NOMEGAPAR">    -1</i>
   <i name="DAMP_NEWTON">      0.80000001</i>
   <i name="LAMBDA">      1.00000000</i>
  </separator>
  <separator name="External order field" >
   <i name="OFIELD_KAPPA">      0.00000000</i>
   <v name="OFIELD_K">      0.00000000      0.00000000      0.00000000</v>
   <i name="OFIELD_Q6_NEAR">      0.00000000</i>
   <i name="OFIELD_Q6_FAR">      0.00000000</i>
   <i name="OFIELD_A">      0.00000000</i>
  </separator>
 </parameters>
 <atominfo>
  <atoms>       4 </atoms>
  <types>       1 </types>
  <array name="atoms" >
   <dimension dim="1">ion</dimension>
   <field type="string">element</field>
   <field type="int">atomtype</field>
   <set>
    <rc><c>Cu</c><c>   1</c></rc>
    <rc><c>Cu</c><c>   1</c></rc>
    <rc><c>Cu</c><c>   1</c></rc>
    <rc><c>Cu</c><c>   1</c></rc>
   </set>
  </array>
  <array name="atomtypes" >
   <dimension dim="1">type</dimension>
   <field type="int">atomspertype</field>
   <field type="string">element</field>
   <field>mass</field>
   <field>valence</field>
   <field type="string">pseudopotential</field>
   <set>
    <rc><c>   4</c><c>Cu</c><c>     63.54600000</c><c>     17.00000000</c><c> PAW_PBE Cu_pv 06Sep2000                </c></rc>
   </set>
  </array>
 </atominfo>
 <structure name="initialpos" >
  <crystal>
   <varray name="basis" >
    <v>       3.57743067       0.00000000       0.00000000 </v>
    <v>       0.00000000       3.57743067       0.00000000 </v>
    <v>       0.00000000       0.00000000       3.54165636 </v>
   </varray>
   <i name="volume">     45.32615432 </i>
   <varray name="rec_basis" >
    <v>       0.27953022      -0.00000000       0.00000000 </v>
    <v>       0.00000000       0.27953022       0.00000000 </v>
    <v>      -0.00000000      -0.00000000       0.28235376 </v>
   </varray>
  </crystal>
  <varray name="positions" >
   <v>       0.00000000       0.00000000       0.00000000 </v>
   <v>       0.00000000       0.50000000       0.50000000 </v>
   <v>       0.50000000       0.00000000       0.50000000 </v>
   <v>       0.50000000       0.50000000       0.00000000 </v>
  </varray>
 </structure>
 <calculation>
  <scstep>
   <time name="dav">    4.81    4.81</time>
   <time name="total">    4.91    4.91</time>
   <energy>
    <i name="alphaZ">    638.62965381 </i>
    <i name="ewald"> -10702.69788226 </i>
    <i name="hartreedc">  -5092.24999845 </i>
    <i name="XCdc">    433.66726524 </i>
    <i name="pawpsdc">  12922.79092432 </i>
    <i name="pawaedc"> -13518.70815821 </i>
    <i name="eentropy">      0.00112567 </i>
    <i name="bandstr">   -244.70790088 </i>
    <i name="atom">  16476.54478555 </i>
    <i name="e_fr_energy">    913.26981478 </i>
    <i name="e_wo_entrp">    913.26868912 </i>
    <i name="e_0_energy">    913.26943956 </i>
   </energy>
  </scstep>
  <scstep>
   <time name="dav">    4.58    4.58</time>
   <time name="total">    4.59    4.59</time>
   <energy>
    <i name="e_fr_energy">     39.59243339 </i>
    <i name="e_wo_entrp">     39.59180223 </i>
    <i name="e_0_energy">     39.59222301 </i>
   </energy>
  </scstep>
  <scstep>
   <time name="dav">    4.78    4.78</time>
   <time name="total">    4.79    4.79</time>
   <energy>
    <i name="e_fr_energy">    -18.34719952 </i>
    <i name="e_wo_entrp">    -18.34601216 </i>
    <i name="e_0_energy">    -18.34680373 </i>
   </energy>
  </scstep>
  <scstep>
   <time name="dav">    4.74    4.74</time>
   <time name="total">    4.74    4.74</time>
   <energy>
    <i name="e_fr_energy">    -19.76161362 </i>
    <i name="e_wo_entrp">    -19.76160966 </i>
    <i name="e_0_energy">    -19.76161230 </i>
   </energy>
  </scstep>
  <scstep>
   <time name="dav">    5.25    5.25</time>
   <time name="total">    5.79    5.79</time>
   <energy>
    <i name="e_fr_energy">    -19.80478007 </i>
    <i name="e_wo_entrp">    -19.80478317 </i>
    <i name="e_0_energy">    -19.80478110 </i>
   </energy>
  </scstep>
  <scstep>
   <time name="diag">    1.32    1.32</time>
   <time name="diis">    3.58    3.58</time>
   <time name="orth">    0.07    0.07</time>
   <time name="total">    5.61    5.61</time>
   <energy>
    <i name="e_fr_energy">    -17.77957869 </i>
    <i name="e_wo_entrp">    -17.78395977 </i>
    <i name="e_0_energy">    -17.78103905 </i>
   </energy>
  </scstep>
  <scstep>
   <time name="diag">    1.29    1.30</time>
   <time name="diis">    3.60    3.60</time>
   <time name="orth">    0.09    0.09</time>
   <time name="total">    5.59    5.59</time>
   <energy>
    <i name="e_fr_energy">    -16.36089885 </i>
    <i name="e_wo_entrp">    -16.36343230 </i>
    <i name="e_0_energy">    -16.36174333 </i>
   </energy>
  </scstep>
  <scstep>
   <time name="diag">    1.36    1.36</time>
   <time name="diis">    3.75    3.75</time>
   <time name="orth">    0.07    0.07</time>
   <time name="total">    5.79    5.79</time>
   <energy>
    <i name="e_fr_energy">    -16.32393958 </i>
    <i name="e_wo_entrp">    -16.32656903 </i>
    <i name="e_0_energy">    -16.32481607 </i>
   </energy>
  </scstep>
  <scstep>
   <time name="diag">    1.24    1.24</time>
   <time name="diis">    3.75    3.75</time>
   <time name="orth">    0.07    0.07</time>
   <time name="total">    5.67    5.67</time>
   <energy>
    <i name="e_fr_energy">    -16.32326772 </i>
    <i name="e_wo_entrp">    -16.32603514 </i>
    <i name="e_0_energy">    -16.32419020 </i>
   </energy>
  </scstep>
  <scstep>
   <time name="diag">    1.30    1.30</time>
   <time name="diis">    3.94    3.94</time>
   <time name="orth">    0.07    0.07</time>
   <time name="total">    5.95    5.95</time>
   <energy>
    <i name="e_fr_energy">    -16.32351799 </i>
    <i name="e_wo_entrp">    -16.32623480 </i>
    <i name="e_0_energy">    -16.32442359 </i>
   </energy>
  </scstep>
  <scstep>
   <time name="diag">    1.31    1.31</time>
   <time name="diis">    4.22    4.22</time>
   <time name="orth">    0.07    0.07</time>
   <time name="total">    6.25    6.25</time>
   <energy>
    <i name="e_fr_energy">    -16.32353639 </i>
    <i name="e_wo_entrp">    -16.32627951 </i>
    <i name="e_0_energy">    -16.32445076 </i>
   </energy>
  </scstep>
  <scstep>
   <time name="diag">    1.35    1.35</time>
   <time name="diis">    4.63    4.63</time>
   <time name="orth">    0.08    0.08</time>
   <time name="total">    6.69    6.69</time>
   <energy>
    <i name="e_fr_energy">    -16.32355655 </i>
    <i name="e_wo_entrp">    -16.32629122 </i>
    <i name="e_0_energy">    -16.32446811 </i>
   </energy>
  </scstep>
  <scstep>
   <time name="diag">    1.31    1.31</time>
   <time name="diis">    4.72    4.72</time>
   <time name="orth">    0.07    0.07</time>
   <time name="total">    6.71    6.71</time>
   <energy>
    <i name="e_fr_energy">    -16.32356422 </i>
    <i name="e_wo_entrp">    -16.32630046 </i>
    <i name="e_0_energy">    -16.32447630 </i>
   </energy>
  </scstep>
  <scstep>
   <time name="diag">    1.36    1.36</time>
   <time name="diis">    4.87    4.87</time>
   <time name="orth">    0.07    0.07</time>
   <time name="total">    6.94    6.94</time>
   <energy>
    <i name="e_fr_energy">    -16.32356586 </i>
    <i name="e_wo_entrp">    -16.32630136 </i>
    <i name="e_0_energy">    -16.32447769 </i>
   </energy>
  </scstep>
  <scstep>
   <time name="diag">    1.28    1.28</time>
   <time name="diis">    5.15    5.15</time>
   <time name="orth">    0.08    0.08</time>
   <time name="total">    7.15    7.15</time>
   <energy>
    <i name="e_fr_energy">    -16.32356601 </i>
    <i name="e_wo_entrp">    -16.32630169 </i>
    <i name="e_0_energy">    -16.32447791 </i>
   </energy>
  </scstep>
  <scstep>
   <time name="diag">    1.35    1.35</time>
   <time name="diis">    4.09    4.10</time>
   <time name="orth">    0.07    0.07</time>
   <time name="total">    6.16    6.16</time>
   <energy>
    <i name="e_fr_energy">    -16.32356606 </i>
    <i name="e_wo_entrp">    -16.32630163 </i>
    <i name="e_0_energy">    -16.32447792 </i>
   </energy>
  </scstep>
  <scstep>
   <time name="diag">    1.31    1.31</time>
   <time name="diis">    2.66    2.66</time>
   <time name="orth">    0.07    0.07</time>
   <time name="total">    4.69    4.69</time>
   <energy>
    <i name="e_fr_energy">    -16.32356602 </i>
    <i name="e_wo_entrp">    -16.32630170 </i>
    <i name="e_0_energy">    -16.32447791 </i>
   </energy>
  </scstep>
  <scstep>
   <time name="diag">    1.27    1.27</time>
   <time name="diis">    2.34    2.34</time>
   <time name="orth">    0.07    0.07</time>
   <time name="total">    3.78    3.78</time>
   <energy>
    <i name="alphaZ">    638.62965381 </i>
    <i name="ewald"> -10702.69788226 </i>
    <i name="hartreedc">  -4927.28127663 </i>
    <i name="XCdc">    427.92472755 </i>
    <i name="pawpsdc">  12811.29946834 </i>
    <i name="pawaedc"> -13425.53818348 </i>
    <i name="eentropy">      0.00273567 </i>
    <i name="bandstr">  -1315.20759456 </i>
    <i name="atom">  16476.54478555 </i>
    <i name="e_fr_energy">    -16.32356602 </i>
    <i name="e_wo_entrp">    -16.32630169 </i>
    <i name="e_0_energy">    -16.32447791 </i>
   </energy>
  </scstep>
  <structure>
   <crystal>
    <varray name="basis" >
     <v>       3.57743067       0.00000000       0.00000000 </v>
     <v>       0.00000000       3.57743067       0.00000000 </v>
     <v>       0.00000000       0.00000000       3.54165636 </v>
    </varray>
    <i name="volume">     45.32615432 </i>
    <varray name="rec_basis" >
     <v>       0.27953022      -0.00000000       0.00000000 </v>
     <v>       0.00000000       0.27953022       0.00000000 </v>
     <v>      -0.00000000      -0.00000000       0.28235376 </v>
    </varray>
   </crystal>
   <varray name="positions" >
    <v>       0.00000000       0.00000000       0.00000000 </v>
    <v>       0.00000000       0.50000000       0.50000000 </v>
    <v>       0.50000000       0.00000000       0.50000000 </v>
    <v>       0.50000000       0.50000000       0.00000000 </v>
   </varray>
  </structure>
  <varray name="forces" >
   <v>      -0.00000000       0.00000000      -0.00000000 </v>
   <v>      -0.00000000       0.00000000      -0.00000000 </v>
   <v>       0.00000000      -0.00000000      -0.00000000 </v>
   <v>       0.00000000      -0.00000000       0.00000000 </v>
  </varray>
  <varray name="stress" >
   <v>      65.65225610       0.00000000       0.00000000 </v>
   <v>       0.00000000      65.65225610       0.00000000 </v>
   <v>       0.00000000       0.00000000      72.60481760 </v>
  </varray>
  <energy>
   <i name="e_fr_energy">    -16.32356602 </i>
   <i name="e_wo_entrp">    -16.32630169 </i>
   <i name="e_0_energy">    -16.32447791 </i>
  </energy>
  <time name="totalsc">  105.03  105.12</time>
  <eigenvalues>
   <array>
    <dimension dim="1">band</dimension>
    <dimension dim="2">kpoint</dimension>
    <dimension dim="3">spin</dimension>
    <field>eigene</field>
    <field>occ</field>
    <set>
     <set comment="spin 1">
      <set comment="kpoint 1">
       <r>  -62.6300    1.0000 </r>
       <r>  -62.6295    1.0000 </r>
       <r>  -62.6295    1.0000 </r>
       <r>  -62.5607    1.0000 </r>
       <r>  -62.5607    1.0000 </r>
       <r>  -62.5593    1.0000 </r>
       <r>  -62.5593    1.0000 </r>
       <r>  -62.5566    1.0000 </r>
       <r>  -62.5566    1.0000 </r>
       <r>  -62.5121    1.0000 </r>
       <r>  -62.5121    1.0000 </r>
       <r>  -62.5106    1.0000 </r>
       <r>   -2.3026    1.0000 </r>
       <r>    2.2486    1.0000 </r>
       <r>    2.2486    1.0000 </r>
       <r>    2.2612    1.0000 </r>
       <r>    2.7404    1.0000 </r>
       <r>    2.7472    1.0000 </r>
       <r>    2.7472    1.0000 </r>
       <r>    4.2267    1.0000 </r>
       <r>    4.2267    1.0000 </r>
       <r>    4.2776    1.0000 </r>
       <r>    5.1011    1.0000 </r>
       <r>    5.1536    1.0000 </r>
       <r>    5.7175    1.0000 </r>
       <r>    5.7194    1.0000 </r>
       <r>    5.7194    1.0000 </r>
       <r>    5.8745    1.0000 </r>
       <r>    5.8745    1.0000 </r>
       <r>    5.8955    1.0000 </r>
       <r>    5.8955    1.0000 </r>
       <r>    5.9086    1.0000 </r>
       <r>    5.9086    1.0000 </r>
       <r>    8.7583   -0.0000 </r>
       <r>    8.7583   -0.0000 </r>
       <r>    8.9822   -0.0000 </r>
       <r>   14.7209    0.0000 </r>
       <r>   14.7209    0.0000 </r>
       <r>   14.9908    0.0000 </r>
       <r>   20.6903    0.0000 </r>
      </set>
      <set comment="kpoint 2">
       <r>  -62.6288    1.0000 </r>
       <r>  -62.6284    1.0000 </r>
       <r>  -62.6275    1.0000 </r>
       <r>  -62.5618    1.0000 </r>
       <r>  -62.5609    1.0000 </r>
       <r>  -62.5605    1.0000 </r>
       <r>  -62.5585    1.0000 </r>
       <r>  -62.5570    1.0000 </r>
       <r>  -62.5558    1.0000 </r>
       <r>  -62.5136    1.0000 </r>
       <r>  -62.5123    1.0000 </r>
       <r>  -62.5113    1.0000 </r>
       <r>   -2.2161    1.0000 </r>
       <r>    2.2478    1.0000 </r>
       <r>    2.2902    1.0000 </r>
       <r>    2.3023    1.0000 </r>
       <r>    2.7655    1.0000 </r>
       <r>    2.7709    1.0000 </r>
       <r>    2.7732    1.0000 </r>
       <r>    4.2001    1.0000 </r>
       <r>    4.2489    1.0000 </r>
       <r>    4.2987    1.0000 </r>
       <r>    5.0829    1.0000 </r>
       <r>    5.1575    1.0000 </r>
       <r>    5.6855    1.0000 </r>
       <r>    5.6870    1.0000 </r>
       <r>    5.7077    1.0000 </r>
       <r>    5.7093    1.0000 </r>
       <r>    5.7357    1.0000 </r>
       <r>    5.8384    1.0000 </r>
       <r>    5.8705    1.0000 </r>
       <r>    5.8958    1.0000 </r>
       <r>    5.9084    1.0000 </r>
       <r>    8.2514   -0.0000 </r>
       <r>    9.0015   -0.0000 </r>
       <r>    9.2180   -0.0000 </r>
       <r>   14.7501    0.0000 </r>
       <r>   15.0201    0.0000 </r>
       <r>   15.3975    0.0000 </r>
       <r>   20.1642    0.0000 </r>
      </set>
      <set comment="kpoint 3">
       <r>  -62.6256    1.0000 </r>
       <r>  -62.6252    1.0000 </r>
       <r>  -62.6234    1.0000 </r>
       <r>  -62.5654    1.0000 </r>
       <r>  -62.5642    1.0000 </r>
       <r>  -62.5610    1.0000 </r>
       <r>  -62.5575    1.0000 </r>
       <r>  -62.5565    1.0000 </r>
       <r>  -62.5542    1.0000 </r>
       <r>  -62.5192    1.0000 </r>
       <r>  -62.5144    1.0000 </r>
       <r>  -62.5137    1.0000 </r>
       <r>   -1.9584    1.0000 </r>
       <r>    2.2275    1.0000 </r>
       <r>    2.4090    1.0000 </r>
       <r>    2.4196    1.0000 </r>
       <r>    2.8406    1.0000 </r>
       <r>    2.8413    1.0000 </r>
       <r>    2.8515    1.0000 </r>
       <r>    4.1220    1.0000 </r>
       <r>    4.3147    1.0000 </r>
       <r>    4.3609    1.0000 </r>
       <r>    5.0165    1.0000 </r>
       <r>    5.1808    1.0000 </r>
       <r>    5.3213    1.0000 </r>
       <r>    5.3590    1.0000 </r>
       <r>    5.5929    1.0000 </r>
       <r>    5.5935    1.0000 </r>
       <r>    5.6794    1.0000 </r>
       <r>    5.7339    1.0000 </r>
       <r>    5.7609    1.0000 </r>
       <r>    5.8965    1.0000 </r>
       <r>    5.9078    1.0000 </r>
       <r>    7.1698    1.0354 </r>
       <r>    9.6165   -0.0000 </r>
       <r>    9.8222   -0.0000 </r>
       <r>   14.8404    0.0000 </r>
       <r>   15.1108    0.0000 </r>
       <r>   17.0004    0.0000 </r>
       <r>   18.9095    0.0000 </r>
      </set>
      <set comment="kpoint 4">
       <r>  -62.6197    1.0000 </r>
       <r>  -62.6195    1.0000 </r>
       <r>  -62.6139    1.0000 </r>
       <r>  -62.5709    1.0000 </r>
       <r>  -62.5698    1.0000 </r>
       <r>  -62.5604    1.0000 </r>
       <r>  -62.5576    1.0000 </r>
       <r>  -62.5522    1.0000 </r>
       <r>  -62.5506    1.0000 </r>
       <r>  -62.5287    1.0000 </r>
       <r>  -62.5176    1.0000 </r>
       <r>  -62.5175    1.0000 </r>
       <r>   -1.5361    1.0000 </r>
       <r>    2.1282    1.0000 </r>
       <r>    2.5867    1.0000 </r>
       <r>    2.5951    1.0000 </r>
       <r>    2.9526    1.0000 </r>
       <r>    2.9691    1.0000 </r>
       <r>    2.9832    1.0000 </r>
       <r>    3.9988    1.0000 </r>
       <r>    4.4220    1.0000 </r>
       <r>    4.4627    1.0000 </r>
       <r>    4.8706    1.0000 </r>
       <r>    4.9097    1.0000 </r>
       <r>    4.9121    1.0000 </r>
       <r>    5.2244    1.0000 </r>
       <r>    5.4504    1.0000 </r>
       <r>    5.4508    1.0000 </r>
       <r>    5.5766    1.0000 </r>
       <r>    5.5956    1.0000 </r>
       <r>    5.6326    1.0000 </r>
       <r>    5.8978    1.0000 </r>
       <r>    5.9070    1.0000 </r>
       <r>    6.0513    1.0000 </r>
       <r>   10.4477   -0.0000 </r>
       <r>   10.6478   -0.0000 </r>
       <r>   15.0003    0.0000 </r>
       <r>   15.2701    0.0000 </r>
       <r>   17.5510    0.0000 </r>
       <r>   17.7699    0.0000 </r>
      </set>
      <set comment="kpoint 5">
       <r>  -62.6131    1.0000 </r>
       <r>  -62.6121    1.0000 </r>
       <r>  -62.6011    1.0000 </r>
       <r>  -62.5781    1.0000 </r>
       <r>  -62.5774    1.0000 </r>
       <r>  -62.5595    1.0000 </r>
       <r>  -62.5577    1.0000 </r>
       <r>  -62.5473    1.0000 </r>
       <r>  -62.5454    1.0000 </r>
       <r>  -62.5412    1.0000 </r>
       <r>  -62.5226    1.0000 </r>
       <r>  -62.5223    1.0000 </r>
       <r>   -0.9621    1.0000 </r>
       <r>    1.8361    1.0000 </r>
       <r>    2.7882    1.0000 </r>
       <r>    2.7943    1.0000 </r>
       <r>    3.1002    1.0000 </r>
       <r>    3.1505    1.0000 </r>
       <r>    3.1697    1.0000 </r>
       <r>    3.8398    1.0000 </r>
       <r>    4.4295    1.0000 </r>
       <r>    4.4704    1.0000 </r>
       <r>    4.5679    1.0000 </r>
       <r>    4.6009    1.0000 </r>
       <r>    4.7820    1.0000 </r>
       <r>    5.1930    1.0000 </r>
       <r>    5.2829    1.0000 </r>
       <r>    5.2833    1.0000 </r>
       <r>    5.2843    1.0000 </r>
       <r>    5.3842    1.0000 </r>
       <r>    5.3927    1.0000 </r>
       <r>    5.5719    1.0000 </r>
       <r>    5.8993    1.0000 </r>
       <r>    5.9055    1.0000 </r>
       <r>   11.4170   -0.0000 </r>
       <r>   11.6160   -0.0000 </r>
       <r>   15.2416    0.0000 </r>
       <r>   15.5064    0.0000 </r>
       <r>   16.1985    0.0000 </r>
       <r>   16.4114    0.0000 </r>
      </set>
      <set comment="kpoint 6">
       <r>  -62.6044    1.0000 </r>
       <r>  -62.6037    1.0000 </r>
       <r>  -62.5869    1.0000 </r>
       <r>  -62.5864    1.0000 </r>
       <r>  -62.5858    1.0000 </r>
       <r>  -62.5589    1.0000 </r>
       <r>  -62.5579    1.0000 </r>
       <r>  -62.5552    1.0000 </r>
       <r>  -62.5414    1.0000 </r>
       <r>  -62.5399    1.0000 </r>
       <r>  -62.5284    1.0000 </r>
       <r>  -62.5278    1.0000 </r>
       <r>   -0.2614    1.0000 </r>
       <r>    1.2683    1.0000 </r>
       <r>    2.9586    1.0000 </r>
       <r>    2.9618    1.0000 </r>
       <r>    3.2744    1.0000 </r>
       <r>    3.3873    1.0000 </r>
       <r>    3.4123    1.0000 </r>
       <r>    3.6573    1.0000 </r>
       <r>    4.0291    1.0000 </r>
       <r>    4.0659    1.0000 </r>
       <r>    4.6654    1.0000 </r>
       <r>    4.7383    1.0000 </r>
       <r>    4.7473    1.0000 </r>
       <r>    4.7711    1.0000 </r>
       <r>    5.1385    1.0000 </r>
       <r>    5.1393    1.0000 </r>
       <r>    5.1723    1.0000 </r>
       <r>    5.1747    1.0000 </r>
       <r>    5.3518    1.0000 </r>
       <r>    5.5015    1.0000 </r>
       <r>    5.9009    1.0000 </r>
       <r>    5.9042    1.0000 </r>
       <r>   12.4912   -0.0000 </r>
       <r>   12.6916   -0.0000 </r>
       <r>   14.8928    0.0000 </r>
       <r>   15.1007    0.0000 </r>
       <r>   15.5701    0.0000 </r>
       <r>   15.8056    0.0000 </r>
      </set>
      <set comment="kpoint 7">
       <r>  -62.5955    1.0000 </r>
       <r>  -62.5955    1.0000 </r>
       <r>  -62.5951    1.0000 </r>
       <r>  -62.5951    1.0000 </r>
       <r>  -62.5708    1.0000 </r>
       <r>  -62.5708    1.0000 </r>
       <r>  -62.5592    1.0000 </r>
       <r>  -62.5592    1.0000 </r>
       <r>  -62.5348    1.0000 </r>
       <r>  -62.5348    1.0000 </r>
       <r>  -62.5337    1.0000 </r>
       <r>  -62.5337    1.0000 </r>
       <r>    0.5159    1.0000 </r>
       <r>    0.5159    1.0000 </r>
       <r>    3.0285    1.0000 </r>
       <r>    3.0285    1.0000 </r>
       <r>    3.4644    1.0000 </r>
       <r>    3.4644    1.0000 </r>
       <r>    3.6801    1.0000 </r>
       <r>    3.6801    1.0000 </r>
       <r>    3.7111    1.0000 </r>
       <r>    3.7111    1.0000 </r>
       <r>    4.6155    1.0000 </r>
       <r>    4.6155    1.0000 </r>
       <r>    4.9525    1.0000 </r>
       <r>    4.9525    1.0000 </r>
       <r>    4.9658    1.0000 </r>
       <r>    4.9658    1.0000 </r>
       <r>    5.0787    1.0000 </r>
       <r>    5.0787    1.0000 </r>
       <r>    5.4263    1.0000 </r>
       <r>    5.4263    1.0000 </r>
       <r>    5.9025    1.0000 </r>
       <r>    5.9025    1.0000 </r>
       <r>   13.6533    0.0000 </r>
       <r>   13.6533    0.0000 </r>
       <r>   13.8569    0.0000 </r>
       <r>   13.8569    0.0000 </r>
       <r>   15.9080    0.0000 </r>
       <r>   15.9080    0.0000 </r>
      </set>
      <set comment="kpoint 8">
       <r>  -62.6277    1.0000 </r>
       <r>  -62.6268    1.0000 </r>
       <r>  -62.6268    1.0000 </r>
       <r>  -62.5643    1.0000 </r>
       <r>  -62.5598    1.0000 </r>
       <r>  -62.5598    1.0000 </r>
       <r>  -62.5597    1.0000 </r>
       <r>  -62.5562    1.0000 </r>
       <r>  -62.5562    1.0000 </r>
       <r>  -62.5161    1.0000 </r>
       <r>  -62.5121    1.0000 </r>
       <r>  -62.5120    1.0000 </r>
       <r>   -2.1299    1.0000 </r>
       <r>    2.2902    1.0000 </r>
       <r>    2.2902    1.0000 </r>
       <r>    2.3425    1.0000 </r>
       <r>    2.7897    1.0000 </r>
       <r>    2.7964    1.0000 </r>
       <r>    2.7964    1.0000 </r>
       <r>    4.1864    1.0000 </r>
       <r>    4.2587    1.0000 </r>
       <r>    4.3175    1.0000 </r>
       <r>    5.0713    1.0000 </r>
       <r>    5.1562    1.0000 </r>
       <r>    5.6193    1.0000 </r>
       <r>    5.6274    1.0000 </r>
       <r>    5.6274    1.0000 </r>
       <r>    5.6549    1.0000 </r>
       <r>    5.7117    1.0000 </r>
       <r>    5.7117    1.0000 </r>
       <r>    5.8700    1.0000 </r>
       <r>    5.8700    1.0000 </r>
       <r>    5.8709    1.0000 </r>
       <r>    8.4928   -0.0000 </r>
       <r>    8.4928   -0.0000 </r>
       <r>    9.4357   -0.0000 </r>
       <r>   15.0491    0.0000 </r>
       <r>   15.4377    0.0000 </r>
       <r>   15.4377    0.0000 </r>
       <r>   18.9630    0.0000 </r>
      </set>
      <set comment="kpoint 9">
       <r>  -62.6245    1.0000 </r>
       <r>  -62.6238    1.0000 </r>
       <r>  -62.6221    1.0000 </r>
       <r>  -62.5686    1.0000 </r>
       <r>  -62.5634    1.0000 </r>
       <r>  -62.5589    1.0000 </r>
       <r>  -62.5576    1.0000 </r>
       <r>  -62.5564    1.0000 </r>
       <r>  -62.5540    1.0000 </r>
       <r>  -62.5227    1.0000 </r>
       <r>  -62.5145    1.0000 </r>
       <r>  -62.5133    1.0000 </r>
       <r>   -1.8734    1.0000 </r>
       <r>    2.2732    1.0000 </r>
       <r>    2.4119    1.0000 </r>
       <r>    2.4573    1.0000 </r>
       <r>    2.8626    1.0000 </r>
       <r>    2.8648    1.0000 </r>
       <r>    2.8734    1.0000 </r>
       <r>    4.1163    1.0000 </r>
       <r>    4.3179    1.0000 </r>
       <r>    4.3726    1.0000 </r>
       <r>    5.0158    1.0000 </r>
       <r>    5.1760    1.0000 </r>
       <r>    5.2506    1.0000 </r>
       <r>    5.2888    1.0000 </r>
       <r>    5.4852    1.0000 </r>
       <r>    5.5661    1.0000 </r>
       <r>    5.6012    1.0000 </r>
       <r>    5.6845    1.0000 </r>
       <r>    5.7605    1.0000 </r>
       <r>    5.8581    1.0000 </r>
       <r>    5.8692    1.0000 </r>
       <r>    7.4343    0.4026 </r>
       <r>    9.0822   -0.0000 </r>
       <r>   10.0076   -0.0000 </r>
       <r>   15.1364    0.0000 </r>
       <r>   15.5619    0.0000 </r>
       <r>   17.0537    0.0000 </r>
       <r>   17.6049    0.0000 </r>
      </set>
      <set comment="kpoint 10">
       <r>  -62.6189    1.0000 </r>
       <r>  -62.6187    1.0000 </r>
       <r>  -62.6135    1.0000 </r>
       <r>  -62.5738    1.0000 </r>
       <r>  -62.5690    1.0000 </r>
       <r>  -62.5580    1.0000 </r>
       <r>  -62.5564    1.0000 </r>
       <r>  -62.5534    1.0000 </r>
       <r>  -62.5500    1.0000 </r>
       <r>  -62.5323    1.0000 </r>
       <r>  -62.5185    1.0000 </r>
       <r>  -62.5168    1.0000 </r>
       <r>   -1.4531    1.0000 </r>
       <r>    2.1788    1.0000 </r>
       <r>    2.5945    1.0000 </r>
       <r>    2.6296    1.0000 </r>
       <r>    2.9746    1.0000 </r>
       <r>    2.9846    1.0000 </r>
       <r>    3.0027    1.0000 </r>
       <r>    3.9973    1.0000 </r>
       <r>    4.4233    1.0000 </r>
       <r>    4.4592    1.0000 </r>
       <r>    4.8025    1.0000 </r>
       <r>    4.8722    1.0000 </r>
       <r>    4.9200    1.0000 </r>
       <r>    5.2231    1.0000 </r>
       <r>    5.2411    1.0000 </r>
       <r>    5.4298    1.0000 </r>
       <r>    5.4579    1.0000 </r>
       <r>    5.5948    1.0000 </r>
       <r>    5.6247    1.0000 </r>
       <r>    5.8561    1.0000 </r>
       <r>    5.8678    1.0000 </r>
       <r>    6.4085    1.0000 </r>
       <r>    9.8523   -0.0000 </r>
       <r>   10.8067   -0.0000 </r>
       <r>   15.2656    0.0000 </r>
       <r>   15.7799    0.0000 </r>
       <r>   16.3072    0.0000 </r>
       <r>   17.8783    0.0000 </r>
      </set>
      <set comment="kpoint 11">
       <r>  -62.6121    1.0000 </r>
       <r>  -62.6111    1.0000 </r>
       <r>  -62.6018    1.0000 </r>
       <r>  -62.5804    1.0000 </r>
       <r>  -62.5763    1.0000 </r>
       <r>  -62.5572    1.0000 </r>
       <r>  -62.5561    1.0000 </r>
       <r>  -62.5484    1.0000 </r>
       <r>  -62.5451    1.0000 </r>
       <r>  -62.5443    1.0000 </r>
       <r>  -62.5235    1.0000 </r>
       <r>  -62.5210    1.0000 </r>
       <r>   -0.8822    1.0000 </r>
       <r>    1.8929    1.0000 </r>
       <r>    2.8033    1.0000 </r>
       <r>    2.8274    1.0000 </r>
       <r>    3.1192    1.0000 </r>
       <r>    3.1546    1.0000 </r>
       <r>    3.1857    1.0000 </r>
       <r>    3.8426    1.0000 </r>
       <r>    4.3702    1.0000 </r>
       <r>    4.4507    1.0000 </r>
       <r>    4.5548    1.0000 </r>
       <r>    4.5683    1.0000 </r>
       <r>    4.8278    1.0000 </r>
       <r>    4.8814    1.0000 </r>
       <r>    5.2695    1.0000 </r>
       <r>    5.2893    1.0000 </r>
       <r>    5.2908    1.0000 </r>
       <r>    5.3917    1.0000 </r>
       <r>    5.5039    1.0000 </r>
       <r>    5.7733    1.0000 </r>
       <r>    5.8571    1.0000 </r>
       <r>    5.8660    1.0000 </r>
       <r>   10.7280   -0.0000 </r>
       <r>   11.7563   -0.0000 </r>
       <r>   14.8832    0.0000 </r>
       <r>   15.6871    0.0000 </r>
       <r>   16.1026    0.0000 </r>
       <r>   16.5205    0.0000 </r>
      </set>
      <set comment="kpoint 12">
       <r>  -62.6044    1.0000 </r>
       <r>  -62.6026    1.0000 </r>
       <r>  -62.5883    1.0000 </r>
       <r>  -62.5880    1.0000 </r>
       <r>  -62.5847    1.0000 </r>
       <r>  -62.5579    1.0000 </r>
       <r>  -62.5572    1.0000 </r>
       <r>  -62.5566    1.0000 </r>
       <r>  -62.5423    1.0000 </r>
       <r>  -62.5390    1.0000 </r>
       <r>  -62.5294    1.0000 </r>
       <r>  -62.5266    1.0000 </r>
       <r>   -0.1858    1.0000 </r>
       <r>    1.3319    1.0000 </r>
       <r>    2.9825    1.0000 </r>
       <r>    2.9963    1.0000 </r>
       <r>    3.2899    1.0000 </r>
       <r>    3.3724    1.0000 </r>
       <r>    3.4231    1.0000 </r>
       <r>    3.6644    1.0000 </r>
       <r>    3.9808    1.0000 </r>
       <r>    4.0598    1.0000 </r>
       <r>    4.5643    1.0000 </r>
       <r>    4.5975    1.0000 </r>
       <r>    4.7471    1.0000 </r>
       <r>    4.8613    1.0000 </r>
       <r>    5.1312    1.0000 </r>
       <r>    5.1437    1.0000 </r>
       <r>    5.1714    1.0000 </r>
       <r>    5.2628    1.0000 </r>
       <r>    5.3688    1.0000 </r>
       <r>    5.5623    1.0000 </r>
       <r>    5.8591    1.0000 </r>
       <r>    5.8639    1.0000 </r>
       <r>   11.6792   -0.0000 </r>
       <r>   12.8189   -0.0000 </r>
       <r>   13.7748    0.0000 </r>
       <r>   15.2131    0.0000 </r>
       <r>   15.9813    0.0000 </r>
       <r>   16.4999    0.0000 </r>
      </set>
      <set comment="kpoint 13">
       <r>  -62.5961    1.0000 </r>
       <r>  -62.5961    1.0000 </r>
       <r>  -62.5938    1.0000 </r>
       <r>  -62.5938    1.0000 </r>
       <r>  -62.5731    1.0000 </r>
       <r>  -62.5731    1.0000 </r>
       <r>  -62.5572    1.0000 </r>
       <r>  -62.5572    1.0000 </r>
       <r>  -62.5359    1.0000 </r>
       <r>  -62.5359    1.0000 </r>
       <r>  -62.5328    1.0000 </r>
       <r>  -62.5328    1.0000 </r>
       <r>    0.5859    1.0000 </r>
       <r>    0.5859    1.0000 </r>
       <r>    3.0607    1.0000 </r>
       <r>    3.0607    1.0000 </r>
       <r>    3.4757    1.0000 </r>
       <r>    3.4757    1.0000 </r>
       <r>    3.6465    1.0000 </r>
       <r>    3.6465    1.0000 </r>
       <r>    3.7150    1.0000 </r>
       <r>    3.7150    1.0000 </r>
       <r>    4.5235    1.0000 </r>
       <r>    4.5235    1.0000 </r>
       <r>    4.9516    1.0000 </r>
       <r>    4.9516    1.0000 </r>
       <r>    5.0326    1.0000 </r>
       <r>    5.0326    1.0000 </r>
       <r>    5.0783    1.0000 </r>
       <r>    5.0783    1.0000 </r>
       <r>    5.4581    1.0000 </r>
       <r>    5.4581    1.0000 </r>
       <r>    5.8616    1.0000 </r>
       <r>    5.8616    1.0000 </r>
       <r>   12.6955   -0.0000 </r>
       <r>   12.6955   -0.0000 </r>
       <r>   13.9753    0.0000 </r>
       <r>   13.9753    0.0000 </r>
       <r>   16.4147    0.0000 </r>
       <r>   16.4147    0.0000 </r>
      </set>
      <set comment="kpoint 14">
       <r>  -62.6208    1.0000 </r>
       <r>  -62.6194    1.0000 </r>
       <r>  -62.6194    1.0000 </r>
       <r>  -62.5735    1.0000 </r>
       <r>  -62.5609    1.0000 </r>
       <r>  -62.5609    1.0000 </r>
       <r>  -62.5562    1.0000 </r>
       <r>  -62.5537    1.0000 </r>
       <r>  -62.5537    1.0000 </r>
       <r>  -62.5303    1.0000 </r>
       <r>  -62.5170    1.0000 </r>
       <r>  -62.5135    1.0000 </r>
       <r>   -1.6205    1.0000 </r>
       <r>    2.4040    1.0000 </r>
       <r>    2.4040    1.0000 </r>
       <r>    2.5650    1.0000 </r>
       <r>    2.9266    1.0000 </r>
       <r>    2.9378    1.0000 </r>
       <r>    2.9378    1.0000 </r>
       <r>    4.0762    1.0000 </r>
       <r>    4.3514    1.0000 </r>
       <r>    4.4063    1.0000 </r>
       <r>    4.9904    1.0000 </r>
       <r>    5.0667    1.0000 </r>
       <r>    5.0667    1.0000 </r>
       <r>    5.0716    1.0000 </r>
       <r>    5.1867    1.0000 </r>
       <r>    5.4881    1.0000 </r>
       <r>    5.5941    1.0000 </r>
       <r>    5.5941    1.0000 </r>
       <r>    5.7591    1.0000 </r>
       <r>    5.7591    1.0000 </r>
       <r>    5.7985    1.0000 </r>
       <r>    8.0073   -0.0001 </r>
       <r>    8.0073   -0.0001 </r>
       <r>   10.5151   -0.0000 </r>
       <r>   15.1796    0.0000 </r>
       <r>   16.1680    0.0000 </r>
       <r>   17.2156    0.0000 </r>
       <r>   17.2156    0.0000 </r>
      </set>
      <set comment="kpoint 15">
       <r>  -62.6156    1.0000 </r>
       <r>  -62.6150    1.0000 </r>
       <r>  -62.6125    1.0000 </r>
       <r>  -62.5789    1.0000 </r>
       <r>  -62.5662    1.0000 </r>
       <r>  -62.5567    1.0000 </r>
       <r>  -62.5542    1.0000 </r>
       <r>  -62.5529    1.0000 </r>
       <r>  -62.5491    1.0000 </r>
       <r>  -62.5402    1.0000 </r>
       <r>  -62.5210    1.0000 </r>
       <r>  -62.5154    1.0000 </r>
       <r>   -1.2065    1.0000 </r>
       <r>    2.3245    1.0000 </r>
       <r>    2.6016    1.0000 </r>
       <r>    2.7274    1.0000 </r>
       <r>    3.0318    1.0000 </r>
       <r>    3.0409    1.0000 </r>
       <r>    3.0601    1.0000 </r>
       <r>    3.9819    1.0000 </r>
       <r>    4.4397    1.0000 </r>
       <r>    4.4548    1.0000 </r>
       <r>    4.6259    1.0000 </r>
       <r>    4.7480    1.0000 </r>
       <r>    4.8020    1.0000 </r>
       <r>    4.9241    1.0000 </r>
       <r>    5.2430    1.0000 </r>
       <r>    5.3668    1.0000 </r>
       <r>    5.4574    1.0000 </r>
       <r>    5.5440    1.0000 </r>
       <r>    5.5926    1.0000 </r>
       <r>    5.7568    1.0000 </r>
       <r>    5.7649    1.0000 </r>
       <r>    6.9726    1.0041 </r>
       <r>    8.7031   -0.0000 </r>
       <r>   11.2546   -0.0000 </r>
       <r>   14.5664    0.0000 </r>
       <r>   15.5711    0.0000 </r>
       <r>   17.4877    0.0000 </r>
       <r>   18.1971    0.0000 </r>
      </set>
      <set comment="kpoint 16">
       <r>  -62.6110    1.0000 </r>
       <r>  -62.6078    1.0000 </r>
       <r>  -62.6027    1.0000 </r>
       <r>  -62.5851    1.0000 </r>
       <r>  -62.5734    1.0000 </r>
       <r>  -62.5527    1.0000 </r>
       <r>  -62.5526    1.0000 </r>
       <r>  -62.5518    1.0000 </r>
       <r>  -62.5516    1.0000 </r>
       <r>  -62.5435    1.0000 </r>
       <r>  -62.5263    1.0000 </r>
       <r>  -62.5192    1.0000 </r>
       <r>   -0.6451    1.0000 </r>
       <r>    2.0573    1.0000 </r>
       <r>    2.8318    1.0000 </r>
       <r>    2.9199    1.0000 </r>
       <r>    3.1692    1.0000 </r>
       <r>    3.1763    1.0000 </r>
       <r>    3.2322    1.0000 </r>
       <r>    3.8454    1.0000 </r>
       <r>    4.2165    1.0000 </r>
       <r>    4.3889    1.0000 </r>
       <r>    4.4853    1.0000 </r>
       <r>    4.5244    1.0000 </r>
       <r>    4.5759    1.0000 </r>
       <r>    4.8712    1.0000 </r>
       <r>    5.2237    1.0000 </r>
       <r>    5.2941    1.0000 </r>
       <r>    5.3348    1.0000 </r>
       <r>    5.3892    1.0000 </r>
       <r>    5.4349    1.0000 </r>
       <r>    5.7512    1.0000 </r>
       <r>    5.7536    1.0000 </r>
       <r>    6.2339    1.0000 </r>
       <r>    9.4731   -0.0000 </r>
       <r>   12.1586   -0.0000 </r>
       <r>   13.3614    0.0000 </r>
       <r>   15.7893    0.0000 </r>
       <r>   16.8408    0.0000 </r>
       <r>   17.7971    0.0000 </r>
      </set>
      <set comment="kpoint 17">
       <r>  -62.6051    1.0000 </r>
       <r>  -62.5996    1.0000 </r>
       <r>  -62.5921    1.0000 </r>
       <r>  -62.5912    1.0000 </r>
       <r>  -62.5819    1.0000 </r>
       <r>  -62.5645    1.0000 </r>
       <r>  -62.5524    1.0000 </r>
       <r>  -62.5523    1.0000 </r>
       <r>  -62.5455    1.0000 </r>
       <r>  -62.5372    1.0000 </r>
       <r>  -62.5325    1.0000 </r>
       <r>  -62.5245    1.0000 </r>
       <r>    0.0379    1.0000 </r>
       <r>    1.5167    1.0000 </r>
       <r>    3.0395    1.0000 </r>
       <r>    3.0954    1.0000 </r>
       <r>    3.3307    1.0000 </r>
       <r>    3.3357    1.0000 </r>
       <r>    3.4543    1.0000 </r>
       <r>    3.6827    1.0000 </r>
       <r>    3.8562    1.0000 </r>
       <r>    4.0402    1.0000 </r>
       <r>    4.3693    1.0000 </r>
       <r>    4.4439    1.0000 </r>
       <r>    4.7496    1.0000 </r>
       <r>    4.9188    1.0000 </r>
       <r>    5.1031    1.0000 </r>
       <r>    5.1447    1.0000 </r>
       <r>    5.1694    1.0000 </r>
       <r>    5.2607    1.0000 </r>
       <r>    5.4524    1.0000 </r>
       <r>    5.7472    1.0000 </r>
       <r>    5.7503    1.0000 </r>
       <r>    5.8211    1.0000 </r>
       <r>   10.3112   -0.0000 </r>
       <r>   12.2393   -0.0000 </r>
       <r>   13.1881    0.0000 </r>
       <r>   15.5426    0.0000 </r>
       <r>   16.1665    0.0000 </r>
       <r>   17.3247    0.0000 </r>
      </set>
      <set comment="kpoint 18">
       <r>  -62.5987    1.0000 </r>
       <r>  -62.5987    1.0000 </r>
       <r>  -62.5906    1.0000 </r>
       <r>  -62.5906    1.0000 </r>
       <r>  -62.5779    1.0000 </r>
       <r>  -62.5779    1.0000 </r>
       <r>  -62.5525    1.0000 </r>
       <r>  -62.5525    1.0000 </r>
       <r>  -62.5389    1.0000 </r>
       <r>  -62.5389    1.0000 </r>
       <r>  -62.5302    1.0000 </r>
       <r>  -62.5302    1.0000 </r>
       <r>    0.7918    1.0000 </r>
       <r>    0.7918    1.0000 </r>
       <r>    3.1490    1.0000 </r>
       <r>    3.1490    1.0000 </r>
       <r>    3.5086    1.0000 </r>
       <r>    3.5086    1.0000 </r>
       <r>    3.5548    1.0000 </r>
       <r>    3.5548    1.0000 </r>
       <r>    3.7253    1.0000 </r>
       <r>    3.7253    1.0000 </r>
       <r>    4.3708    1.0000 </r>
       <r>    4.3708    1.0000 </r>
       <r>    4.9513    1.0000 </r>
       <r>    4.9513    1.0000 </r>
       <r>    5.0669    1.0000 </r>
       <r>    5.0669    1.0000 </r>
       <r>    5.0676    1.0000 </r>
       <r>    5.0676    1.0000 </r>
       <r>    5.6008    1.0000 </r>
       <r>    5.6008    1.0000 </r>
       <r>    5.7477    1.0000 </r>
       <r>    5.7477    1.0000 </r>
       <r>   11.2273   -0.0000 </r>
       <r>   11.2273   -0.0000 </r>
       <r>   14.3209    0.0000 </r>
       <r>   14.3209    0.0000 </r>
       <r>   16.6796    0.0000 </r>
       <r>   16.6796    0.0000 </r>
      </set>
      <set comment="kpoint 19">
       <r>  -62.6108    1.0000 </r>
       <r>  -62.6108    1.0000 </r>
       <r>  -62.6095    1.0000 </r>
       <r>  -62.5846    1.0000 </r>
       <r>  -62.5622    1.0000 </r>
       <r>  -62.5622    1.0000 </r>
       <r>  -62.5507    1.0000 </r>
       <r>  -62.5502    1.0000 </r>
       <r>  -62.5479    1.0000 </r>
       <r>  -62.5479    1.0000 </r>
       <r>  -62.5251    1.0000 </r>
       <r>  -62.5158    1.0000 </r>
       <r>   -0.8037    1.0000 </r>
       <r>    2.5468    1.0000 </r>
       <r>    2.5468    1.0000 </r>
       <r>    2.8727    1.0000 </r>
       <r>    3.1101    1.0000 </r>
       <r>    3.1513    1.0000 </r>
       <r>    3.1513    1.0000 </r>
       <r>    3.9298    1.0000 </r>
       <r>    4.3959    1.0000 </r>
       <r>    4.3959    1.0000 </r>
       <r>    4.4525    1.0000 </r>
       <r>    4.4974    1.0000 </r>
       <r>    4.5411    1.0000 </r>
       <r>    4.8861    1.0000 </r>
       <r>    5.2666    1.0000 </r>
       <r>    5.3221    1.0000 </r>
       <r>    5.4159    1.0000 </r>
       <r>    5.4159    1.0000 </r>
       <r>    5.5891    1.0000 </r>
       <r>    5.5891    1.0000 </r>
       <r>    5.6806    1.0000 </r>
       <r>    7.5952   -0.0147 </r>
       <r>    7.5952   -0.0147 </r>
       <r>   11.9310   -0.0000 </r>
       <r>   13.1946    0.0000 </r>
       <r>   15.7233    0.0000 </r>
       <r>   18.7086    0.0000 </r>
       <r>   18.7087    0.0000 </r>
      </set>
      <set comment="kpoint 20">
       <r>  -62.6083    1.0000 </r>
       <r>  -62.6038    1.0000 </r>
       <r>  -62.6024    1.0000 </r>
       <r>  -62.5905    1.0000 </r>
       <r>  -62.5691    1.0000 </r>
       <r>  -62.5611    1.0000 </r>
       <r>  -62.5568    1.0000 </r>
       <r>  -62.5482    1.0000 </r>
       <r>  -62.5470    1.0000 </r>
       <r>  -62.5417    1.0000 </r>
       <r>  -62.5306    1.0000 </r>
       <r>  -62.5185    1.0000 </r>
       <r>   -0.2595    1.0000 </r>
       <r>    2.3095    1.0000 </r>
       <r>    2.8112    1.0000 </r>
       <r>    3.0462    1.0000 </r>
       <r>    3.2060    1.0000 </r>
       <r>    3.2706    1.0000 </r>
       <r>    3.3057    1.0000 </r>
       <r>    3.8333    1.0000 </r>
       <r>    4.0366    1.0000 </r>
       <r>    4.2084    1.0000 </r>
       <r>    4.2799    1.0000 </r>
       <r>    4.4303    1.0000 </r>
       <r>    4.6081    1.0000 </r>
       <r>    4.8462    1.0000 </r>
       <r>    5.1459    1.0000 </r>
       <r>    5.2603    1.0000 </r>
       <r>    5.3159    1.0000 </r>
       <r>    5.3864    1.0000 </r>
       <r>    5.4552    1.0000 </r>
       <r>    5.5859    1.0000 </r>
       <r>    5.6267    1.0000 </r>
       <r>    6.7436    1.0000 </r>
       <r>    8.2720   -0.0000 </r>
       <r>   11.9334   -0.0000 </r>
       <r>   12.7814   -0.0000 </r>
       <r>   16.0223    0.0000 </r>
       <r>   17.3544    0.0000 </r>
       <r>   18.5675    0.0000 </r>
      </set>
      <set comment="kpoint 21">
       <r>  -62.6047    1.0000 </r>
       <r>  -62.5964    1.0000 </r>
       <r>  -62.5949    1.0000 </r>
       <r>  -62.5946    1.0000 </r>
       <r>  -62.5773    1.0000 </r>
       <r>  -62.5726    1.0000 </r>
       <r>  -62.5505    1.0000 </r>
       <r>  -62.5467    1.0000 </r>
       <r>  -62.5462    1.0000 </r>
       <r>  -62.5368    1.0000 </r>
       <r>  -62.5352    1.0000 </r>
       <r>  -62.5228    1.0000 </r>
       <r>    0.3985    1.0000 </r>
       <r>    1.8042    1.0000 </r>
       <r>    3.0638    1.0000 </r>
       <r>    3.2392    1.0000 </r>
       <r>    3.2729    1.0000 </r>
       <r>    3.4097    1.0000 </r>
       <r>    3.5024    1.0000 </r>
       <r>    3.7042    1.0000 </r>
       <r>    3.7267    1.0000 </r>
       <r>    4.0023    1.0000 </r>
       <r>    4.1613    1.0000 </r>
       <r>    4.3503    1.0000 </r>
       <r>    4.7656    1.0000 </r>
       <r>    4.8802    1.0000 </r>
       <r>    5.0461    1.0000 </r>
       <r>    5.1129    1.0000 </r>
       <r>    5.1632    1.0000 </r>
       <r>    5.1693    1.0000 </r>
       <r>    5.5844    1.0000 </r>
       <r>    5.5988    1.0000 </r>
       <r>    5.6288    1.0000 </r>
       <r>    6.1915    1.0000 </r>
       <r>    9.0187   -0.0000 </r>
       <r>   10.8241   -0.0000 </r>
       <r>   13.7688    0.0000 </r>
       <r>   16.0694    0.0000 </r>
       <r>   16.4469    0.0000 </r>
       <r>   17.7190    0.0000 </r>
      </set>
      <set comment="kpoint 22">
       <r>  -62.6011    1.0000 </r>
       <r>  -62.6011    1.0000 </r>
       <r>  -62.5859    1.0000 </r>
       <r>  -62.5859    1.0000 </r>
       <r>  -62.5842    1.0000 </r>
       <r>  -62.5842    1.0000 </r>
       <r>  -62.5462    1.0000 </r>
       <r>  -62.5462    1.0000 </r>
       <r>  -62.5438    1.0000 </r>
       <r>  -62.5438    1.0000 </r>
       <r>  -62.5287    1.0000 </r>
       <r>  -62.5287    1.0000 </r>
       <r>    1.1185    1.0000 </r>
       <r>    1.1185    1.0000 </r>
       <r>    3.2336    1.0000 </r>
       <r>    3.2336    1.0000 </r>
       <r>    3.4636    1.0000 </r>
       <r>    3.4636    1.0000 </r>
       <r>    3.5583    1.0000 </r>
       <r>    3.5583    1.0000 </r>
       <r>    3.7375    1.0000 </r>
       <r>    3.7375    1.0000 </r>
       <r>    4.2360    1.0000 </r>
       <r>    4.2360    1.0000 </r>
       <r>    4.9571    1.0000 </r>
       <r>    4.9571    1.0000 </r>
       <r>    4.9994    1.0000 </r>
       <r>    4.9994    1.0000 </r>
       <r>    5.0276    1.0000 </r>
       <r>    5.0276    1.0000 </r>
       <r>    5.5871    1.0000 </r>
       <r>    5.5871    1.0000 </r>
       <r>    5.8552    1.0000 </r>
       <r>    5.8552    1.0000 </r>
       <r>    9.8600   -0.0000 </r>
       <r>    9.8600   -0.0000 </r>
       <r>   14.8699    0.0000 </r>
       <r>   14.8699    0.0000 </r>
       <r>   17.0091    0.0000 </r>
       <r>   17.0091    0.0000 </r>
      </set>
      <set comment="kpoint 23">
       <r>  -62.6042    1.0000 </r>
       <r>  -62.6042    1.0000 </r>
       <r>  -62.5958    1.0000 </r>
       <r>  -62.5954    1.0000 </r>
       <r>  -62.5710    1.0000 </r>
       <r>  -62.5636    1.0000 </r>
       <r>  -62.5636    1.0000 </r>
       <r>  -62.5443    1.0000 </r>
       <r>  -62.5403    1.0000 </r>
       <r>  -62.5403    1.0000 </r>
       <r>  -62.5362    1.0000 </r>
       <r>  -62.5193    1.0000 </r>
       <r>    0.2573    1.0000 </r>
       <r>    2.6118    1.0000 </r>
       <r>    2.6118    1.0000 </r>
       <r>    3.1436    1.0000 </r>
       <r>    3.2978    1.0000 </r>
       <r>    3.4002    1.0000 </r>
       <r>    3.4002    1.0000 </r>
       <r>    3.7914    1.0000 </r>
       <r>    3.9415    1.0000 </r>
       <r>    3.9415    1.0000 </r>
       <r>    4.1254    1.0000 </r>
       <r>    4.3752    1.0000 </r>
       <r>    4.6839    1.0000 </r>
       <r>    4.7938    1.0000 </r>
       <r>    5.0457    1.0000 </r>
       <r>    5.1697    1.0000 </r>
       <r>    5.1697    1.0000 </r>
       <r>    5.3860    1.0000 </r>
       <r>    5.3860    1.0000 </r>
       <r>    5.5219    1.0000 </r>
       <r>    5.6382    1.0000 </r>
       <r>    7.3062    0.8834 </r>
       <r>    7.3062    0.8834 </r>
       <r>   10.6736   -0.0000 </r>
       <r>   13.5819    0.0000 </r>
       <r>   16.3708    0.0000 </r>
       <r>   18.0385    0.0000 </r>
       <r>   18.0385    0.0000 </r>
      </set>
      <set comment="kpoint 24">
       <r>  -62.6037    1.0000 </r>
       <r>  -62.5995    1.0000 </r>
       <r>  -62.5985    1.0000 </r>
       <r>  -62.5881    1.0000 </r>
       <r>  -62.5811    1.0000 </r>
       <r>  -62.5713    1.0000 </r>
       <r>  -62.5571    1.0000 </r>
       <r>  -62.5426    1.0000 </r>
       <r>  -62.5414    1.0000 </r>
       <r>  -62.5398    1.0000 </r>
       <r>  -62.5339    1.0000 </r>
       <r>  -62.5224    1.0000 </r>
       <r>    0.8745    1.0000 </r>
       <r>    2.1582    1.0000 </r>
       <r>    2.9037    1.0000 </r>
       <r>    3.1729    1.0000 </r>
       <r>    3.4293    1.0000 </r>
       <r>    3.5074    1.0000 </r>
       <r>    3.5609    1.0000 </r>
       <r>    3.7163    1.0000 </r>
       <r>    3.7271    1.0000 </r>
       <r>    3.9400    1.0000 </r>
       <r>    3.9939    1.0000 </r>
       <r>    4.2770    1.0000 </r>
       <r>    4.7967    1.0000 </r>
       <r>    4.8099    1.0000 </r>
       <r>    4.9596    1.0000 </r>
       <r>    5.0295    1.0000 </r>
       <r>    5.0308    1.0000 </r>
       <r>    5.1765    1.0000 </r>
       <r>    5.3920    1.0000 </r>
       <r>    5.4509    1.0000 </r>
       <r>    5.8717    1.0000 </r>
       <r>    6.6250    1.0000 </r>
       <r>    7.9453   -0.0005 </r>
       <r>    9.5969   -0.0000 </r>
       <r>   14.5270    0.0000 </r>
       <r>   16.7689    0.0000 </r>
       <r>   16.8470    0.0000 </r>
       <r>   18.2331    0.0000 </r>
      </set>
      <set comment="kpoint 25">
       <r>  -62.6021    1.0000 </r>
       <r>  -62.6021    1.0000 </r>
       <r>  -62.5905    1.0000 </r>
       <r>  -62.5905    1.0000 </r>
       <r>  -62.5797    1.0000 </r>
       <r>  -62.5797    1.0000 </r>
       <r>  -62.5497    1.0000 </r>
       <r>  -62.5497    1.0000 </r>
[...]
        <r>  0.0001  0.0005  0.0194  0.0330  0.0027  0.0017  0.0002  0.0444  0.0008 </r>
       </set>
       <set comment="band 34">
        <r>  0.0028  0.0206  0.0364  0.0121  0.0010  0.0032  0.0107  0.0034  0.0332 </r>
        <r>  0.0047  0.0338  0.0222  0.0014  0.0001  0.0019  0.0175  0.0291  0.0544 </r>
        <r>  0.0002  0.0014  0.0123  0.0357  0.0029  0.0011  0.0007  0.0525  0.0022 </r>
        <r>  0.0016  0.0114  0.0015  0.0218  0.0018  0.0001  0.0059  0.0861  0.0184 </r>
       </set>
       <set comment="band 35">
        <r>  0.0019  0.0141  0.0069  0.0095  0.0008  0.0006  0.0073  0.0960  0.0227 </r>
        <r>  0.0009  0.0064  0.0152  0.0398  0.0033  0.0013  0.0033  0.0228  0.0104 </r>
        <r>  0.0052  0.0377  0.0097  0.0068  0.0006  0.0008  0.0195  0.0359  0.0606 </r>
        <r>  0.0012  0.0090  0.0406  0.0149  0.0012  0.0036  0.0046  0.0164  0.0144 </r>
       </set>
       <set comment="band 36">
        <r>  0.0002  0.0012  0.0103  0.0490  0.0040  0.0009  0.0006  0.0258  0.0019 </r>
        <r>  0.0013  0.0095  0.0013  0.0107  0.0009  0.0001  0.0049  0.1180  0.0153 </r>
        <r>  0.0014  0.0101  0.0499  0.0101  0.0008  0.0044  0.0052  0.0031  0.0163 </r>
        <r>  0.0064  0.0463  0.0109  0.0013  0.0001  0.0010  0.0240  0.0243  0.0745 </r>
       </set>
       <set comment="band 37">
        <r>  0.0247  0.0009  0.0006  0.0019  0.0653  0.0218  0.0000  0.0240  0.0000 </r>
        <r>  0.0547  0.0021  0.0003  0.0007  0.0250  0.0098  0.0000  0.0627  0.0000 </r>
        <r>  0.0649  0.0025  0.0020  0.0006  0.0211  0.0675  0.0000  0.0091  0.0000 </r>
        <r>  0.1695  0.0065  0.0007  0.0003  0.0095  0.0258  0.0000  0.0202  0.0001 </r>
       </set>
       <set comment="band 38">
        <r>  0.1021  0.0039  0.0013  0.0001  0.0032  0.0442  0.0000  0.0342  0.0001 </r>
        <r>  0.1110  0.0042  0.0012  0.0011  0.0355  0.0406  0.0000  0.0031  0.0001 </r>
        <r>  0.0923  0.0035  0.0001  0.0013  0.0428  0.0033  0.0000  0.0378  0.0001 </r>
        <r>  0.0083  0.0003  0.0011  0.0012  0.0393  0.0368  0.0000  0.0411  0.0000 </r>
       </set>
       <set comment="band 39">
        <r>  0.0028  0.0001  0.0008  0.0015  0.0513  0.0262  0.0000  0.0415  0.0000 </r>
        <r>  0.0658  0.0025  0.0000  0.0013  0.0432  0.0011  0.0000  0.0492  0.0000 </r>
        <r>  0.1121  0.0043  0.0015  0.0007  0.0253  0.0530  0.0000  0.0011  0.0001 </r>
        <r>  0.1331  0.0051  0.0013  0.0000  0.0011  0.0446  0.0000  0.0243  0.0001 </r>
       </set>
       <set comment="band 40">
        <r>  0.1841  0.0070  0.0009  0.0000  0.0011  0.0328  0.0000  0.0165  0.0001 </r>
        <r>  0.0823  0.0031  0.0021  0.0005  0.0171  0.0733  0.0000  0.0010  0.0001 </r>
        <r>  0.0445  0.0017  0.0000  0.0009  0.0317  0.0011  0.0000  0.0681  0.0000 </r>
        <r>  0.0028  0.0001  0.0005  0.0021  0.0709  0.0177  0.0000  0.0304  0.0000 </r>
       </set>
      </set>
      <set comment="kpoint 196">
       <set comment="band 1">
        <r>  0.0000  0.0583  0.2513  0.0133  0.0000  0.0000  0.0000  0.0000  0.0000 </r>
        <r>  0.0000  0.2404  0.0609  0.0147  0.0000  0.0000  0.0000  0.0000  0.0000 </r>
        <r>  0.0000  0.0147  0.0139  0.2404  0.0000  0.0000  0.0000  0.0000  0.0000 </r>
        <r>  0.0000  0.0133  0.0153  0.0583  0.0000  0.0000  0.0000  0.0000  0.0000 </r>
       </set>
       <set comment="band 2">
        <r>  0.0000  0.0481  0.0114  0.0686  0.0000  0.0000  0.0000  0.0000  0.0000 </r>
        <r>  0.0000  0.0110  0.0503  0.1990  0.0000  0.0000  0.0000  0.0000  0.0000 </r>
        <r>  0.0000  0.1990  0.0717  0.0110  0.0000  0.0000  0.0000  0.0000  0.0000 </r>
        <r>  0.0000  0.0686  0.2080  0.0481  0.0000  0.0000  0.0000  0.0000  0.0000 </r>
       </set>
       <set comment="band 3">
        <r>  0.0000  0.2094  0.0614  0.0193  0.0000  0.0000  0.0000  0.0000  0.0000 </r>
        <r>  0.0000  0.0588  0.2189  0.0392  0.0000  0.0000  0.0000  0.0000  0.0000 </r>
        <r>  0.0000  0.0392  0.0202  0.0588  0.0000  0.0000  0.0000  0.0000  0.0000 </r>
        <r>  0.0000  0.0193  0.0410  0.2094  0.0000  0.0000  0.0000  0.0000  0.0000 </r>
       </set>
       <set comment="band 4">
        <r>  0.0000  0.0109  0.0173  0.2255  0.0000  0.0000  0.0000  0.0000  0.0000 </r>
        <r>  0.0000  0.0165  0.0113  0.0738  0.0000  0.0000  0.0000  0.0000  0.0000 </r>
        <r>  0.0000  0.0738  0.2357  0.0165  0.0000  0.0000  0.0000  0.0000  0.0000 </r>
        <r>  0.0000  0.2255  0.0771  0.0109  0.0000  0.0000  0.0000  0.0000  0.0000 </r>
       </set>
       <set comment="band 5">
        <r>  0.0000  0.0111  0.0000  0.2673  0.0000  0.0000  0.0000  0.0000  0.0000 </r>
        <r>  0.0000  0.1889  0.0000  0.0315  0.0000  0.0000  0.0000  0.0000  0.0000 </r>
        <r>  0.0000  0.0315  0.0000  0.1889  0.0000  0.0000  0.0000  0.0000  0.0000 </r>
        <r>  0.0000  0.2673  0.0000  0.0111  0.0000  0.0000  0.0000  0.0000  0.0000 </r>
       </set>
       <set comment="band 6">
        <r>  0.0000  0.2605  0.0000  0.0246  0.0000  0.0000  0.0000  0.0000  0.0000 </r>
        <r>  0.0000  0.0670  0.0000  0.1466  0.0000  0.0000  0.0000  0.0000  0.0000 </r>
        <r>  0.0000  0.1466  0.0000  0.0670  0.0000  0.0000  0.0000  0.0000  0.0000 </r>
        <r>  0.0000  0.0246  0.0000  0.2605  0.0000  0.0000  0.0000  0.0000  0.0000 </r>
       </set>
       <set comment="band 7">
        <r>  0.0000  0.1440  0.0000  0.0140  0.0000  0.0000  0.0000  0.0000  0.0000 </r>
        <r>  0.0000  0.1074  0.0000  0.2334  0.0000  0.0000  0.0000  0.0000  0.0000 </r>
        <r>  0.0000  0.2334  0.0000  0.1074  0.0000  0.0000  0.0000  0.0000  0.0000 </r>
        <r>  0.0000  0.0140  0.0000  0.1440  0.0000  0.0000  0.0000  0.0000  0.0000 </r>
       </set>
       <set comment="band 8">
        <r>  0.0000  0.0832  0.0000  0.1929  0.0000  0.0000  0.0000  0.0000  0.0000 </r>
        <r>  0.0000  0.1355  0.0000  0.0872  0.0000  0.0000  0.0000  0.0000  0.0000 </r>
        <r>  0.0000  0.0872  0.0000  0.1355  0.0000  0.0000  0.0000  0.0000  0.0000 </r>
        <r>  0.0000  0.1929  0.0000  0.0832  0.0000  0.0000  0.0000  0.0000  0.0000 </r>
       </set>
       <set comment="band 9">
        <r>  0.0000  0.0194  0.3314  0.0344  0.0000  0.0000  0.0000  0.0000  0.0000 </r>
        <r>  0.0000  0.0866  0.0741  0.0308  0.0000  0.0000  0.0000  0.0000  0.0000 </r>
        <r>  0.0000  0.0308  0.1318  0.0866  0.0000  0.0000  0.0000  0.0000  0.0000 </r>
        <r>  0.0000  0.0344  0.1180  0.0194  0.0000  0.0000  0.0000  0.0000  0.0000 </r>
       </set>
       <set comment="band 10">
        <r>  0.0000  0.0029  0.2221  0.0584  0.0000  0.0000  0.0000  0.0000  0.0000 </r>
        <r>  0.0000  0.0580  0.0110  0.0519  0.0000  0.0000  0.0000  0.0000  0.0000 </r>
        <r>  0.0000  0.0519  0.2234  0.0580  0.0000  0.0000  0.0000  0.0000  0.0000 </r>
        <r>  0.0000  0.0584  0.1987  0.0029  0.0000  0.0000  0.0000  0.0000  0.0000 </r>
       </set>
       <set comment="band 11">
        <r>  0.0000  0.1155  0.0798  0.0024  0.0000  0.0000  0.0000  0.0000  0.0000 </r>
        <r>  0.0000  0.0208  0.4421  0.0324  0.0000  0.0000  0.0000  0.0000  0.0000 </r>
        <r>  0.0000  0.0324  0.0093  0.0208  0.0000  0.0000  0.0000  0.0000  0.0000 </r>
        <r>  0.0000  0.0024  0.1241  0.1155  0.0000  0.0000  0.0000  0.0000  0.0000 </r>
       </set>
       <set comment="band 12">
        <r>  0.0000  0.0334  0.0220  0.0759  0.0000  0.0000  0.0000  0.0000  0.0000 </r>
        <r>  0.0000  0.0057  0.1280  0.0561  0.0000  0.0000  0.0000  0.0000  0.0000 </r>
        <r>  0.0000  0.0561  0.2907  0.0057  0.0000  0.0000  0.0000  0.0000  0.0000 </r>
        <r>  0.0000  0.0759  0.2146  0.0334  0.0000  0.0000  0.0000  0.0000  0.0000 </r>
       </set>
       <set comment="band 13">
        <r>  0.0022  0.0000  0.0000  0.0000  0.0933  0.0727  0.0000  0.0418  0.0000 </r>
        <r>  0.0342  0.0000  0.0000  0.0000  0.0417  0.0046  0.0000  0.0934  0.0000 </r>
        <r>  0.0196  0.0000  0.0000  0.0000  0.0726  0.0934  0.0000  0.0046  0.0000 </r>
        <r>  0.0439  0.0000  0.0000  0.0000  0.0046  0.0418  0.0000  0.0727  0.0000 </r>
       </set>
       <set comment="band 14">
        <r>  0.0085  0.0000  0.0000  0.0000  0.0451  0.0804  0.0000  0.0689  0.0000 </r>
        <r>  0.0378  0.0000  0.0000  0.0000  0.0689  0.0180  0.0000  0.0451  0.0000 </r>
        <r>  0.0324  0.0000  0.0000  0.0000  0.0803  0.0451  0.0000  0.0180  0.0000 </r>
        <r>  0.0212  0.0000  0.0000  0.0000  0.0180  0.0689  0.0000  0.0804  0.0000 </r>
       </set>
       <set comment="band 15">
        <r>  0.0247  0.0000  0.0000  0.0000  0.0365  0.0255  0.0000  0.0979  0.0000 </r>
        <r>  0.0120  0.0000  0.0000  0.0000  0.0978  0.0526  0.0000  0.0365  0.0000 </r>
        <r>  0.0461  0.0000  0.0000  0.0000  0.0254  0.0365  0.0000  0.0526  0.0000 </r>
        <r>  0.0172  0.0000  0.0000  0.0000  0.0525  0.0979  0.0000  0.0255  0.0000 </r>
       </set>
       <set comment="band 16">
        <r>  0.0645  0.0000  0.0000  0.0000  0.0374  0.0339  0.0000  0.0038  0.0000 </r>
        <r>  0.0160  0.0000  0.0000  0.0000  0.0038  0.1372  0.0000  0.0375  0.0000 </r>
        <r>  0.0018  0.0000  0.0000  0.0000  0.0339  0.0375  0.0000  0.1372  0.0000 </r>
        <r>  0.0176  0.0000  0.0000  0.0000  0.1371  0.0038  0.0000  0.0339  0.0000 </r>
       </set>
       <set comment="band 17">
        <r>  0.0000  0.0000  0.0000  0.0000  0.0000  0.0700  0.0000  0.0731  0.0068 </r>
        <r>  0.0000  0.0000  0.0000  0.0000  0.0000  0.0024  0.0000  0.0446  0.2014 </r>
        <r>  0.0000  0.0000  0.0000  0.0000  0.0000  0.0446  0.0000  0.0024  0.2103 </r>
        <r>  0.0000  0.0000  0.0000  0.0000  0.0000  0.0731  0.0000  0.0700  0.1282 </r>
       </set>
       <set comment="band 18">
        <r>  0.0000  0.0000  0.0000  0.0000  0.0000  0.0010  0.0000  0.0078  0.4580 </r>
        <r>  0.0000  0.0000  0.0000  0.0000  0.0000  0.1593  0.0000  0.0220  0.0030 </r>
        <r>  0.0000  0.0000  0.0000  0.0000  0.0000  0.0220  0.0000  0.1593  0.0224 </r>
        <r>  0.0000  0.0000  0.0000  0.0000  0.0000  0.0078  0.0000  0.0010  0.0634 </r>
       </set>
       <set comment="band 19">
        <r>  0.0000  0.0000  0.0000  0.0000  0.0000  0.1162  0.0000  0.0383  0.0042 </r>
        <r>  0.0000  0.0000  0.0000  0.0000  0.0000  0.0014  0.0000  0.0342  0.3342 </r>
        <r>  0.0000  0.0000  0.0000  0.0000  0.0000  0.0342  0.0000  0.0014  0.1101 </r>
        <r>  0.0000  0.0000  0.0000  0.0000  0.0000  0.0383  0.0000  0.1162  0.0983 </r>
       </set>
       <set comment="band 20">
        <r>  0.0000  0.0000  0.0000  0.0000  0.0000  0.0029  0.0000  0.0709  0.0777 </r>
        <r>  0.0000  0.0000  0.0000  0.0000  0.0000  0.0270  0.0000  0.0893  0.0082 </r>
        <r>  0.0000  0.0000  0.0000  0.0000  0.0000  0.0893  0.0000  0.0270  0.2040 </r>
        <r>  0.0000  0.0000  0.0000  0.0000  0.0000  0.0709  0.0000  0.0029  0.2568 </r>
       </set>
       <set comment="band 21">
        <r>  0.0000  0.0000  0.0000  0.0000  0.1271  0.0098  0.0097  0.0197  0.0000 </r>
        <r>  0.0000  0.0000  0.0000  0.0000  0.0765  0.0011  0.0857  0.0327  0.0000 </r>
        <r>  0.0000  0.0000  0.0000  0.0000  0.0379  0.0327  0.1732  0.0011  0.0000 </r>
        <r>  0.0000  0.0000  0.0000  0.0000  0.0043  0.0197  0.2877  0.0098  0.0000 </r>
       </set>
       <set comment="band 22">
        <r>  0.0000  0.0000  0.0000  0.0000  0.0118  0.0486  0.0264  0.0086  0.0000 </r>
        <r>  0.0000  0.0000  0.0000  0.0000  0.0335  0.0030  0.4274  0.0030  0.0000 </r>
        <r>  0.0000  0.0000  0.0000  0.0000  0.1887  0.0030  0.0759  0.0030  0.0000 </r>
        <r>  0.0000  0.0000  0.0000  0.0000  0.0116  0.0086  0.0266  0.0486  0.0000 </r>
       </set>
       <set comment="band 23">
        <r>  0.0000  0.0000  0.0000  0.0000  0.0229  0.0018  0.3543  0.0153  0.0000 </r>
        <r>  0.0000  0.0000  0.0000  0.0000  0.0592  0.0403  0.0161  0.0059  0.0000 </r>
        <r>  0.0000  0.0000  0.0000  0.0000  0.0071  0.0059  0.1341  0.0403  0.0000 </r>
        <r>  0.0000  0.0000  0.0000  0.0000  0.1565  0.0153  0.0518  0.0018  0.0000 </r>
       </set>
       <set comment="band 24">
        <r>  0.0000  0.0000  0.0000  0.0000  0.0840  0.0031  0.1660  0.0197  0.0000 </r>
        <r>  0.0000  0.0000  0.0000  0.0000  0.0764  0.0189  0.0271  0.0216  0.0000 </r>
        <r>  0.0000  0.0000  0.0000  0.0000  0.0120  0.0216  0.1731  0.0189  0.0000 </r>
        <r>  0.0000  0.0000  0.0000  0.0000  0.0733  0.0197  0.1902  0.0031  0.0000 </r>
       </set>
       <set comment="band 25">
        <r>  0.0000  0.0000  0.0000  0.0000  0.0112  0.0445  0.0419  0.0385  0.0000 </r>
        <r>  0.0000  0.0000  0.0000  0.0000  0.1597  0.0103  0.1811  0.0027  0.0000 </r>
        <r>  0.0000  0.0000  0.0000  0.0000  0.1845  0.0027  0.1568  0.0103  0.0000 </r>
        <r>  0.0000  0.0000  0.0000  0.0000  0.0427  0.0385  0.0110  0.0445  0.0000 </r>
       </set>
       <set comment="band 26">
        <r>  0.0000  0.0000  0.0000  0.0000  0.2588  0.0107  0.0327  0.0149  0.0000 </r>
        <r>  0.0000  0.0000  0.0000  0.0000  0.0617  0.0080  0.0434  0.0624  0.0000 </r>
        <r>  0.0000  0.0000  0.0000  0.0000  0.0442  0.0624  0.0606  0.0080  0.0000 </r>
        <r>  0.0000  0.0000  0.0000  0.0000  0.0333  0.0149  0.2541  0.0107  0.0000 </r>
       </set>
       <set comment="band 27">
        <r>  0.0000  0.0000  0.0000  0.0000  0.0424  0.0080  0.3132  0.0008  0.0000 </r>
        <r>  0.0000  0.0000  0.0000  0.0000  0.0034  0.0770  0.0327  0.0102  0.0000 </r>
        <r>  0.0000  0.0000  0.0000  0.0000  0.0333  0.0102  0.0033  0.0770  0.0000 </r>
        <r>  0.0000  0.0000  0.0000  0.0000  0.3190  0.0008  0.0416  0.0080  0.0000 </r>
       </set>
       <set comment="band 28">
        <r>  0.0000  0.0000  0.0000  0.0000  0.0857  0.0328  0.0030  0.0418  0.0000 </r>
        <r>  0.0000  0.0000  0.0000  0.0000  0.1733  0.0007  0.1336  0.0207  0.0000 </r>
        <r>  0.0000  0.0000  0.0000  0.0000  0.1361  0.0207  0.1701  0.0007  0.0000 </r>
        <r>  0.0000  0.0000  0.0000  0.0000  0.0030  0.0418  0.0841  0.0328  0.0000 </r>
       </set>
       <set comment="band 29">
        <r>  0.0000  0.0000  0.0000  0.0000  0.0000  0.1067  0.0000  0.0388  0.1345 </r>
        <r>  0.0000  0.0000  0.0000  0.0000  0.0000  0.0978  0.0000  0.0475  0.1468 </r>
        <r>  0.0000  0.0000  0.0000  0.0000  0.0000  0.0475  0.0000  0.0978  0.0533 </r>
        <r>  0.0000  0.0000  0.0000  0.0000  0.0000  0.0388  0.0000  0.1067  0.0654 </r>
       </set>
       <set comment="band 30">
        <r>  0.0000  0.0000  0.0000  0.0000  0.0000  0.0596  0.0000  0.1849  0.0630 </r>
        <r>  0.0000  0.0000  0.0000  0.0000  0.0000  0.0458  0.0000  0.0004  0.0820 </r>
        <r>  0.0000  0.0000  0.0000  0.0000  0.0000  0.0004  0.0000  0.0458  0.2544 </r>
        <r>  0.0000  0.0000  0.0000  0.0000  0.0000  0.1849  0.0000  0.0596  0.0005 </r>
       </set>
       <set comment="band 31">
        <r>  0.0000  0.0000  0.0000  0.0000  0.0000  0.0971  0.0000  0.0248  0.0191 </r>
        <r>  0.0000  0.0000  0.0000  0.0000  0.0000  0.0138  0.0000  0.1549  0.1336 </r>
        <r>  0.0000  0.0000  0.0000  0.0000  0.0000  0.1549  0.0000  0.0138  0.0341 </r>
        <r>  0.0000  0.0000  0.0000  0.0000  0.0000  0.0248  0.0000  0.0971  0.2131 </r>
       </set>
       <set comment="band 32">
        <r>  0.0000  0.0000  0.0000  0.0000  0.0000  0.0273  0.0000  0.0422  0.1834 </r>
        <r>  0.0000  0.0000  0.0000  0.0000  0.0000  0.1333  0.0000  0.0879  0.0376 </r>
        <r>  0.0000  0.0000  0.0000  0.0000  0.0000  0.0879  0.0000  0.1333  0.0581 </r>
        <r>  0.0000  0.0000  0.0000  0.0000  0.0000  0.0422  0.0000  0.0273  0.1209 </r>
       </set>
       <set comment="band 33">
        <r>  0.0000  0.0045  0.0183  0.0390  0.0000  0.0000  0.0000  0.0000  0.0000 </r>
        <r>  0.0000  0.0179  0.0045  0.0442  0.0000  0.0000  0.0000  0.0000  0.0000 </r>
        <r>  0.0000  0.0442  0.0398  0.0179  0.0000  0.0000  0.0000  0.0000  0.0000 </r>
        <r>  0.0000  0.0390  0.0451  0.0045  0.0000  0.0000  0.0000  0.0000  0.0000 </r>
       </set>
       <set comment="band 34">
        <r>  0.0000  0.0628  0.0148  0.0075  0.0000  0.0000  0.0000  0.0000  0.0000 </r>
        <r>  0.0000  0.0145  0.0641  0.0207  0.0000  0.0000  0.0000  0.0000  0.0000 </r>
        <r>  0.0000  0.0207  0.0077  0.0145  0.0000  0.0000  0.0000  0.0000  0.0000 </r>
        <r>  0.0000  0.0075  0.0211  0.0628  0.0000  0.0000  0.0000  0.0000  0.0000 </r>
       </set>
       <set comment="band 35">
        <r>  0.0000  0.0008  0.0526  0.0223  0.0000  0.0000  0.0000  0.0000  0.0000 </r>
        <r>  0.0000  0.0516  0.0009  0.0308  0.0000  0.0000  0.0000  0.0000  0.0000 </r>
        <r>  0.0000  0.0308  0.0228  0.0516  0.0000  0.0000  0.0000  0.0000  0.0000 </r>
        <r>  0.0000  0.0223  0.0314  0.0008  0.0000  0.0000  0.0000  0.0000  0.0000 </r>
       </set>
       <set comment="band 36">
        <r>  0.0000  0.0374  0.0220  0.0367  0.0000  0.0000  0.0000  0.0000  0.0000 </r>
        <r>  0.0000  0.0215  0.0382  0.0099  0.0000  0.0000  0.0000  0.0000  0.0000 </r>
        <r>  0.0000  0.0099  0.0375  0.0215  0.0000  0.0000  0.0000  0.0000  0.0000 </r>
        <r>  0.0000  0.0367  0.0101  0.0374  0.0000  0.0000  0.0000  0.0000  0.0000 </r>
       </set>
       <set comment="band 37">
        <r>  0.0670  0.0000  0.0000  0.0000  0.0232  0.0011  0.0000  0.0783  0.0000 </r>
        <r>  0.0027  0.0000  0.0000  0.0000  0.0756  0.0263  0.0000  0.0240  0.0000 </r>
        <r>  0.1990  0.0000  0.0000  0.0000  0.0010  0.0240  0.0000  0.0263  0.0000 </r>
        <r>  0.0611  0.0000  0.0000  0.0000  0.0254  0.0783  0.0000  0.0011  0.0000 </r>
       </set>
       <set comment="band 38">
        <r>  0.1334  0.0000  0.0000  0.0000  0.0244  0.0324  0.0000  0.0196  0.0000 </r>
        <r>  0.0825  0.0000  0.0000  0.0000  0.0189  0.0524  0.0000  0.0252  0.0000 </r>
        <r>  0.0497  0.0000  0.0000  0.0000  0.0314  0.0252  0.0000  0.0524  0.0000 </r>
        <r>  0.0642  0.0000  0.0000  0.0000  0.0507  0.0196  0.0000  0.0324  0.0000 </r>
       </set>
       <set comment="band 39">
        <r>  0.1108  0.0000  0.0000  0.0000  0.0375  0.0194  0.0000  0.0280  0.0000 </r>
        <r>  0.0492  0.0000  0.0000  0.0000  0.0270  0.0436  0.0000  0.0388  0.0000 </r>
        <r>  0.0712  0.0000  0.0000  0.0000  0.0187  0.0388  0.0000  0.0436  0.0000 </r>
        <r>  0.0986  0.0000  0.0000  0.0000  0.0421  0.0280  0.0000  0.0194  0.0000 </r>
       </set>
       <set comment="band 40">
        <r>  0.0187  0.0000  0.0000  0.0000  0.0402  0.0768  0.0000  0.0039  0.0000 </r>
        <r>  0.1954  0.0000  0.0000  0.0000  0.0038  0.0074  0.0000  0.0416  0.0000 </r>
        <r>  0.0099  0.0000  0.0000  0.0000  0.0742  0.0416  0.0000  0.0074  0.0000 </r>
        <r>  0.1058  0.0000  0.0000  0.0000  0.0071  0.0039  0.0000  0.0768  0.0000 </r>
       </set>
      </set>
     </set>
    </set>
   </array>
  </projected>
 </calculation>
 <structure name="finalpos" >
  <crystal>
   <varray name="basis" >
    <v>       3.57743067       0.00000000       0.00000000 </v>
    <v>       0.00000000       3.57743067       0.00000000 </v>
    <v>       0.00000000       0.00000000       3.54165636 </v>
   </varray>
   <i name="volume">     45.32615432 </i>
   <varray name="rec_basis" >
    <v>       0.27953022      -0.00000000       0.00000000 </v>
    <v>       0.00000000       0.27953022       0.00000000 </v>
    <v>      -0.00000000      -0.00000000       0.28235376 </v>
   </varray>
  </crystal>
  <varray name="positions" >
   <v>       0.00000000       0.00000000       0.00000000 </v>
   <v>       0.00000000       0.50000000       0.50000000 </v>
   <v>       0.50000000       0.00000000       0.50000000 </v>
   <v>       0.50000000       0.50000000       0.00000000 </v>
  </varray>
 </structure>
</modeling>
