   4   4   1   0
  0.1144571E+02  0.3577475E-09  0.3577431E-09  0.3577475E-09  0.5000000E-15
   1.0000000000000000E-004
  CAR 
 unknown system                          
     24.54611115    -66.88783653  301      7.28941064      1.00000000
    -66.888  0.0000E+00  0.0000E+00
    -66.583  0.0000E+00  0.0000E+00
    -66.278  0.0000E+00  0.0000E+00
    -65.973  0.0000E+00  0.0000E+00
    -65.669  0.0000E+00  0.0000E+00
    -65.364  0.0000E+00  0.0000E+00
    -65.059  0.0000E+00  0.0000E+00
    -64.754  0.0000E+00  0.0000E+00
    -64.450 -0.7332E-31 -0.2235E-31
    -64.145 -0.1905E-20 -0.5806E-21
    -63.840 -0.4626E-12 -0.1410E-12
    -63.535 -0.1088E-05 -0.3316E-06
    -63.230 -0.2321E-01 -0.7074E-02
    -62.926 -0.2440E+01 -0.7507E+00
    -62.621  0.5436E+02  0.1582E+02
    -62.316  0.2828E+02  0.2443E+02
    -62.011 -0.1421E+01  0.2400E+02
    -61.707 -0.2462E-02  0.2400E+02
    -61.402 -0.2797E-07  0.2400E+02
    -61.097 -0.1476E-14  0.2400E+02
    -60.792  0.0000E+00  0.2400E+02
    -60.487  0.0000E+00  0.2400E+02
    -60.183  0.0000E+00  0.2400E+02
    -59.878  0.0000E+00  0.2400E+02
    -59.573  0.0000E+00  0.2400E+02
    -59.268  0.0000E+00  0.2400E+02
    -58.964  0.0000E+00  0.2400E+02
    -58.659  0.0000E+00  0.2400E+02
    -58.354  0.0000E+00  0.2400E+02
    -58.049  0.0000E+00  0.2400E+02
    -57.744  0.0000E+00  0.2400E+02
    -57.440  0.0000E+00  0.2400E+02
    -57.135  0.0000E+00  0.2400E+02
    -56.830  0.0000E+00  0.2400E+02
    -56.525  0.0000E+00  0.2400E+02
    -56.221  0.0000E+00  0.2400E+02
    -55.916  0.0000E+00  0.2400E+02
    -55.611  0.0000E+00  0.2400E+02
    -55.306  0.0000E+00  0.2400E+02
    -55.001  0.0000E+00  0.2400E+02
    -54.697  0.0000E+00  0.2400E+02
    -54.392  0.0000E+00  0.2400E+02
    -54.087  0.0000E+00  0.2400E+02
    -53.782  0.0000E+00  0.2400E+02
    -53.478  0.0000E+00  0.2400E+02
    -53.173  0.0000E+00  0.2400E+02
    -52.868  0.0000E+00  0.2400E+02
    -52.563  0.0000E+00  0.2400E+02
    -52.258  0.0000E+00  0.2400E+02
    -51.954  0.0000E+00  0.2400E+02
    -51.649  0.0000E+00  0.2400E+02
    -51.344  0.0000E+00  0.2400E+02
    -51.039  0.0000E+00  0.2400E+02
    -50.735  0.0000E+00  0.2400E+02
    -50.430  0.0000E+00  0.2400E+02
    -50.125  0.0000E+00  0.2400E+02
    -49.820  0.0000E+00  0.2400E+02
    -49.515  0.0000E+00  0.2400E+02
    -49.211  0.0000E+00  0.2400E+02
    -48.906  0.0000E+00  0.2400E+02
    -48.601  0.0000E+00  0.2400E+02
    -48.296  0.0000E+00  0.2400E+02
    -47.991  0.0000E+00  0.2400E+02
    -47.687  0.0000E+00  0.2400E+02
    -47.382  0.0000E+00  0.2400E+02
    -47.077  0.0000E+00  0.2400E+02
    -46.772  0.0000E+00  0.2400E+02
    -46.468  0.0000E+00  0.2400E+02
    -46.163  0.0000E+00  0.2400E+02
    -45.858  0.0000E+00  0.2400E+02
    -45.553  0.0000E+00  0.2400E+02
    -45.248  0.0000E+00  0.2400E+02
    -44.944  0.0000E+00  0.2400E+02
    -44.639  0.0000E+00  0.2400E+02
    -44.334  0.0000E+00  0.2400E+02
    -44.029  0.0000E+00  0.2400E+02
    -43.725  0.0000E+00  0.2400E+02
    -43.420  0.0000E+00  0.2400E+02
    -43.115  0.0000E+00  0.2400E+02
    -42.810  0.0000E+00  0.2400E+02
    -42.505  0.0000E+00  0.2400E+02
    -42.201  0.0000E+00  0.2400E+02
    -41.896  0.0000E+00  0.2400E+02
    -41.591  0.0000E+00  0.2400E+02
    -41.286  0.0000E+00  0.2400E+02
    -40.982  0.0000E+00  0.2400E+02
    -40.677  0.0000E+00  0.2400E+02
    -40.372  0.0000E+00  0.2400E+02
    -40.067  0.0000E+00  0.2400E+02
    -39.762  0.0000E+00  0.2400E+02
    -39.458  0.0000E+00  0.2400E+02
    -39.153  0.0000E+00  0.2400E+02
    -38.848  0.0000E+00  0.2400E+02
    -38.543  0.0000E+00  0.2400E+02
    -38.239  0.0000E+00  0.2400E+02
    -37.934  0.0000E+00  0.2400E+02
    -37.629  0.0000E+00  0.2400E+02
    -37.324  0.0000E+00  0.2400E+02
    -37.019  0.0000E+00  0.2400E+02
    -36.715  0.0000E+00  0.2400E+02
    -36.410  0.0000E+00  0.2400E+02
    -36.105  0.0000E+00  0.2400E+02
    -35.800  0.0000E+00  0.2400E+02
    -35.496  0.0000E+00  0.2400E+02
    -35.191  0.0000E+00  0.2400E+02
    -34.886  0.0000E+00  0.2400E+02
    -34.581  0.0000E+00  0.2400E+02
    -34.276  0.0000E+00  0.2400E+02
    -33.972  0.0000E+00  0.2400E+02
    -33.667  0.0000E+00  0.2400E+02
    -33.362  0.0000E+00  0.2400E+02
    -33.057  0.0000E+00  0.2400E+02
    -32.752  0.0000E+00  0.2400E+02
    -32.448  0.0000E+00  0.2400E+02
    -32.143  0.0000E+00  0.2400E+02
    -31.838  0.0000E+00  0.2400E+02
    -31.533  0.0000E+00  0.2400E+02
    -31.229  0.0000E+00  0.2400E+02
    -30.924  0.0000E+00  0.2400E+02
    -30.619  0.0000E+00  0.2400E+02
    -30.314  0.0000E+00  0.2400E+02
    -30.009  0.0000E+00  0.2400E+02
    -29.705  0.0000E+00  0.2400E+02
    -29.400  0.0000E+00  0.2400E+02
    -29.095  0.0000E+00  0.2400E+02
    -28.790  0.0000E+00  0.2400E+02
    -28.486  0.0000E+00  0.2400E+02
    -28.181  0.0000E+00  0.2400E+02
    -27.876  0.0000E+00  0.2400E+02
    -27.571  0.0000E+00  0.2400E+02
    -27.266  0.0000E+00  0.2400E+02
    -26.962  0.0000E+00  0.2400E+02
    -26.657  0.0000E+00  0.2400E+02
    -26.352  0.0000E+00  0.2400E+02
    -26.047  0.0000E+00  0.2400E+02
    -25.743  0.0000E+00  0.2400E+02
    -25.438  0.0000E+00  0.2400E+02
    -25.133  0.0000E+00  0.2400E+02
    -24.828  0.0000E+00  0.2400E+02
    -24.523  0.0000E+00  0.2400E+02
    -24.219  0.0000E+00  0.2400E+02
    -23.914  0.0000E+00  0.2400E+02
    -23.609  0.0000E+00  0.2400E+02
    -23.304  0.0000E+00  0.2400E+02
    -23.000  0.0000E+00  0.2400E+02
    -22.695  0.0000E+00  0.2400E+02
    -22.390  0.0000E+00  0.2400E+02
    -22.085  0.0000E+00  0.2400E+02
    -21.780  0.0000E+00  0.2400E+02
    -21.476  0.0000E+00  0.2400E+02
    -21.171  0.0000E+00  0.2400E+02
    -20.866  0.0000E+00  0.2400E+02
    -20.561  0.0000E+00  0.2400E+02
    -20.257  0.0000E+00  0.2400E+02
    -19.952  0.0000E+00  0.2400E+02
    -19.647  0.0000E+00  0.2400E+02
    -19.342  0.0000E+00  0.2400E+02
    -19.037  0.0000E+00  0.2400E+02
    -18.733  0.0000E+00  0.2400E+02
    -18.428  0.0000E+00  0.2400E+02
    -18.123  0.0000E+00  0.2400E+02
    -17.818  0.0000E+00  0.2400E+02
    -17.514  0.0000E+00  0.2400E+02
    -17.209  0.0000E+00  0.2400E+02
    -16.904  0.0000E+00  0.2400E+02
    -16.599  0.0000E+00  0.2400E+02
    -16.294  0.0000E+00  0.2400E+02
    -15.990  0.0000E+00  0.2400E+02
    -15.685  0.0000E+00  0.2400E+02
    -15.380  0.0000E+00  0.2400E+02
    -15.075  0.0000E+00  0.2400E+02
    -14.770  0.0000E+00  0.2400E+02
    -14.466  0.0000E+00  0.2400E+02
    -14.161  0.0000E+00  0.2400E+02
    -13.856  0.0000E+00  0.2400E+02
    -13.551  0.0000E+00  0.2400E+02
    -13.247  0.0000E+00  0.2400E+02
    -12.942  0.0000E+00  0.2400E+02
    -12.637  0.0000E+00  0.2400E+02
    -12.332  0.0000E+00  0.2400E+02
    -12.027  0.0000E+00  0.2400E+02
    -11.723  0.0000E+00  0.2400E+02
    -11.418  0.0000E+00  0.2400E+02
    -11.113  0.0000E+00  0.2400E+02
    -10.808  0.0000E+00  0.2400E+02
    -10.504  0.0000E+00  0.2400E+02
    -10.199  0.0000E+00  0.2400E+02
     -9.894  0.0000E+00  0.2400E+02
     -9.589  0.0000E+00  0.2400E+02
     -9.284  0.0000E+00  0.2400E+02
     -8.980  0.0000E+00  0.2400E+02
     -8.675  0.0000E+00  0.2400E+02
     -8.370  0.0000E+00  0.2400E+02
     -8.065  0.0000E+00  0.2400E+02
     -7.761  0.0000E+00  0.2400E+02
     -7.456  0.0000E+00  0.2400E+02
     -7.151  0.0000E+00  0.2400E+02
     -6.846  0.0000E+00  0.2400E+02
     -6.541  0.0000E+00  0.2400E+02
     -6.237  0.0000E+00  0.2400E+02
     -5.932  0.0000E+00  0.2400E+02
     -5.627  0.0000E+00  0.2400E+02
     -5.322  0.0000E+00  0.2400E+02
     -5.018  0.0000E+00  0.2400E+02
     -4.713  0.0000E+00  0.2400E+02
     -4.408  0.0000E+00  0.2400E+02
     -4.103 -0.2679E-35  0.2400E+02
     -3.798 -0.9401E-25  0.2400E+02
     -3.494 -0.3009E-16  0.2400E+02
     -3.189 -0.9267E-10  0.2400E+02
     -2.884 -0.2950E-05  0.2400E+02
     -2.579 -0.1028E-02  0.2400E+02
     -2.275  0.1661E-01  0.2400E+02
     -1.970  0.1280E+00  0.2404E+02
     -1.665  0.2056E+00  0.2411E+02
     -1.360  0.2919E+00  0.2420E+02
     -1.055  0.3097E+00  0.2429E+02
     -0.751  0.4084E+00  0.2441E+02
     -0.446  0.4002E+00  0.2454E+02
     -0.141  0.5144E+00  0.2469E+02
      0.164  0.5407E+00  0.2486E+02
      0.469  0.6132E+00  0.2504E+02
      0.773  0.6814E+00  0.2525E+02
      1.078  0.8405E+00  0.2551E+02
      1.383  0.8779E+00  0.2578E+02
      1.688  0.1296E+01  0.2617E+02
      1.992  0.1756E+01  0.2671E+02
      2.297  0.3453E+01  0.2776E+02
      2.602  0.4737E+01  0.2920E+02
      2.907  0.6680E+01  0.3124E+02
      3.212  0.8707E+01  0.3389E+02
      3.516  0.7929E+01  0.3631E+02
      3.821  0.9752E+01  0.3928E+02
      4.126  0.1294E+02  0.4323E+02
      4.431  0.1542E+02  0.4793E+02
      4.735  0.1084E+02  0.5123E+02
      5.040  0.1292E+02  0.5517E+02
      5.345  0.1248E+02  0.5897E+02
      5.650  0.1674E+02  0.6407E+02
      5.955  0.7082E+01  0.6623E+02
      6.259  0.1423E+01  0.6666E+02
      6.564  0.1395E+01  0.6709E+02
      6.869  0.1099E+01  0.6742E+02
      7.174  0.1564E+01  0.6790E+02
      7.478  0.8990E+00  0.6818E+02
      7.783  0.1256E+01  0.6856E+02
      8.088  0.1229E+01  0.6893E+02
      8.393  0.7565E+00  0.6916E+02
      8.698  0.1276E+01  0.6955E+02
      9.002  0.9467E+00  0.6984E+02
      9.307  0.9419E+00  0.7013E+02
      9.612  0.8741E+00  0.7039E+02
      9.917  0.1006E+01  0.7070E+02
     10.221  0.5847E+00  0.7088E+02
     10.526  0.8030E+00  0.7112E+02
     10.831  0.6629E+00  0.7133E+02
     11.136  0.5573E+00  0.7150E+02
     11.441  0.7977E+00  0.7174E+02
     11.745  0.1203E+01  0.7211E+02
     12.050  0.1142E+01  0.7245E+02
     12.355  0.1050E+01  0.7277E+02
     12.660  0.1308E+01  0.7317E+02
     12.964  0.1003E+01  0.7348E+02
     13.269  0.1003E+01  0.7378E+02
     13.574  0.9822E+00  0.7408E+02
     13.879  0.1058E+01  0.7440E+02
     14.184  0.8573E+00  0.7467E+02
     14.488  0.8698E+00  0.7493E+02
     14.793  0.9700E+00  0.7523E+02
     15.098  0.1183E+01  0.7559E+02
     15.403  0.1364E+01  0.7600E+02
     15.707  0.1438E+01  0.7644E+02
     16.012  0.1001E+01  0.7675E+02
     16.317  0.1632E+01  0.7724E+02
     16.622  0.1527E+01  0.7771E+02
     16.927  0.8920E+00  0.7798E+02
     17.231  0.1517E+01  0.7844E+02
     17.536  0.1178E+01  0.7880E+02
     17.841  0.1415E+01  0.7923E+02
     18.146  0.9066E+00  0.7951E+02
     18.451  0.6137E+00  0.7970E+02
     18.755  0.4711E+00  0.7984E+02
     19.060  0.2986E+00  0.7993E+02
     19.365  0.1551E+00  0.7998E+02
     19.670  0.1212E-01  0.7998E+02
     19.974  0.1536E-01  0.7999E+02
     20.279  0.3771E-01  0.8000E+02
     20.584  0.3964E-02  0.8000E+02
     20.889 -0.1759E-03  0.8000E+02
     21.194 -0.4554E-05  0.8000E+02
     21.498 -0.3955E-09  0.8000E+02
     21.803 -0.2648E-15  0.8000E+02
     22.108  0.0000E+00  0.8000E+02
     22.413  0.0000E+00  0.8000E+02
     22.717  0.0000E+00  0.8000E+02
     23.022  0.0000E+00  0.8000E+02
     23.327  0.0000E+00  0.8000E+02
     23.632  0.0000E+00  0.8000E+02
     23.937  0.0000E+00  0.8000E+02
     24.241  0.0000E+00  0.8000E+02
     24.546  0.0000E+00  0.8000E+02
     24.54611115    -66.88783653  301      7.28941064      1.00000000
    -66.888  0.0000E+00  0.0000E+00  0.0000E+00  0.0000E+00  0.0000E+00  0.0000E+00  0.0000E+00  0.0000E+00  0.0000E+00
    -66.583  0.0000E+00  0.0000E+00  0.0000E+00  0.0000E+00  0.0000E+00  0.0000E+00  0.0000E+00  0.0000E+00  0.0000E+00
    -66.278  0.0000E+00  0.0000E+00  0.0000E+00  0.0000E+00  0.0000E+00  0.0000E+00  0.0000E+00  0.0000E+00  0.0000E+00
    -65.973  0.0000E+00  0.0000E+00  0.0000E+00  0.0000E+00  0.0000E+00  0.0000E+00  0.0000E+00  0.0000E+00  0.0000E+00
    -65.669  0.0000E+00  0.0000E+00  0.0000E+00  0.0000E+00  0.0000E+00  0.0000E+00  0.0000E+00  0.0000E+00  0.0000E+00
    -65.364  0.0000E+00  0.0000E+00  0.0000E+00  0.0000E+00  0.0000E+00  0.0000E+00  0.0000E+00  0.0000E+00  0.0000E+00
    -65.059  0.0000E+00  0.0000E+00  0.0000E+00  0.0000E+00  0.0000E+00  0.0000E+00  0.0000E+00  0.0000E+00  0.0000E+00
    -64.754  0.0000E+00  0.0000E+00  0.0000E+00  0.0000E+00  0.0000E+00  0.0000E+00  0.0000E+00  0.0000E+00  0.0000E+00
    -64.450 -0.3112E-37 -0.5983E-32 -0.6131E-32 -0.6131E-32 -0.1071E-37 -0.1071E-37 -0.5273E-38 -0.1099E-37 -0.4219E-38
    -64.145 -0.8864E-27 -0.1559E-21 -0.1591E-21 -0.1591E-21 -0.2982E-27 -0.2982E-27 -0.1449E-27 -0.3057E-27 -0.1160E-27
    -63.840 -0.2331E-18 -0.3800E-13 -0.3857E-13 -0.3857E-13 -0.7790E-19 -0.7790E-19 -0.3750E-19 -0.7974E-19 -0.3022E-19
    -63.535 -0.5758E-12 -0.8968E-07 -0.9057E-07 -0.9057E-07 -0.1975E-12 -0.1975E-12 -0.9496E-13 -0.2017E-12 -0.7774E-13
    -63.230 -0.1196E-07 -0.1920E-02 -0.1929E-02 -0.1929E-02 -0.4473E-08 -0.4473E-08 -0.2209E-08 -0.4553E-08 -0.1867E-08
    -62.926 -0.9595E-06 -0.2027E+00 -0.2026E+00 -0.2026E+00 -0.4707E-06 -0.4707E-06 -0.2566E-06 -0.4758E-06 -0.2322E-06
    -62.621  0.2239E-04  0.4513E+01  0.4515E+01  0.4515E+01  0.1043E-04  0.1043E-04  0.5603E-05  0.1056E-04  0.5018E-05
    -62.316  0.8122E-05  0.2351E+01  0.2348E+01  0.2348E+01  0.4957E-05  0.4957E-05  0.2917E-05  0.4991E-05  0.2747E-05
    -62.011 -0.4077E-06 -0.1181E+00 -0.1180E+00 -0.1180E+00 -0.2485E-06 -0.2485E-06 -0.1463E-06 -0.2501E-06 -0.1378E-06
    -61.707 -0.4654E-09 -0.2047E-03 -0.2046E-03 -0.2046E-03 -0.3726E-09 -0.3726E-09 -0.2343E-09 -0.3735E-09 -0.2306E-09
    -61.402 -0.3887E-14 -0.2326E-08 -0.2325E-08 -0.2325E-08 -0.3754E-14 -0.3754E-14 -0.2416E-14 -0.3755E-14 -0.2454E-14
    -61.097 -0.6885E-22 -0.1230E-15 -0.1227E-15 -0.1227E-15 -0.1177E-21 -0.1177E-21 -0.4655E-22 -0.1155E-21 -0.6029E-22
    -60.792  0.0000E+00  0.0000E+00  0.0000E+00  0.0000E+00  0.0000E+00  0.0000E+00  0.0000E+00  0.0000E+00  0.0000E+00
    -60.487  0.0000E+00  0.0000E+00  0.0000E+00  0.0000E+00  0.0000E+00  0.0000E+00  0.0000E+00  0.0000E+00  0.0000E+00
    -60.183  0.0000E+00  0.0000E+00  0.0000E+00  0.0000E+00  0.0000E+00  0.0000E+00  0.0000E+00  0.0000E+00  0.0000E+00
    -59.878  0.0000E+00  0.0000E+00  0.0000E+00  0.0000E+00  0.0000E+00  0.0000E+00  0.0000E+00  0.0000E+00  0.0000E+00
    -59.573  0.0000E+00  0.0000E+00  0.0000E+00  0.0000E+00  0.0000E+00  0.0000E+00  0.0000E+00  0.0000E+00  0.0000E+00
    -59.268  0.0000E+00  0.0000E+00  0.0000E+00  0.0000E+00  0.0000E+00  0.0000E+00  0.0000E+00  0.0000E+00  0.0000E+00
    -58.964  0.0000E+00  0.0000E+00  0.0000E+00  0.0000E+00  0.0000E+00  0.0000E+00  0.0000E+00  0.0000E+00  0.0000E+00
    -58.659  0.0000E+00  0.0000E+00  0.0000E+00  0.0000E+00  0.0000E+00  0.0000E+00  0.0000E+00  0.0000E+00  0.0000E+00
    -58.354  0.0000E+00  0.0000E+00  0.0000E+00  0.0000E+00  0.0000E+00  0.0000E+00  0.0000E+00  0.0000E+00  0.0000E+00
    -58.049  0.0000E+00  0.0000E+00  0.0000E+00  0.0000E+00  0.0000E+00  0.0000E+00  0.0000E+00  0.0000E+00  0.0000E+00
    -57.744  0.0000E+00  0.0000E+00  0.0000E+00  0.0000E+00  0.0000E+00  0.0000E+00  0.0000E+00  0.0000E+00  0.0000E+00
    -57.440  0.0000E+00  0.0000E+00  0.0000E+00  0.0000E+00  0.0000E+00  0.0000E+00  0.0000E+00  0.0000E+00  0.0000E+00
    -57.135  0.0000E+00  0.0000E+00  0.0000E+00  0.0000E+00  0.0000E+00  0.0000E+00  0.0000E+00  0.0000E+00  0.0000E+00
    -56.830  0.0000E+00  0.0000E+00  0.0000E+00  0.0000E+00  0.0000E+00  0.0000E+00  0.0000E+00  0.0000E+00  0.0000E+00
    -56.525  0.0000E+00  0.0000E+00  0.0000E+00  0.0000E+00  0.0000E+00  0.0000E+00  0.0000E+00  0.0000E+00  0.0000E+00
    -56.221  0.0000E+00  0.0000E+00  0.0000E+00  0.0000E+00  0.0000E+00  0.0000E+00  0.0000E+00  0.0000E+00  0.0000E+00
    -55.916  0.0000E+00  0.0000E+00  0.0000E+00  0.0000E+00  0.0000E+00  0.0000E+00  0.0000E+00  0.0000E+00  0.0000E+00
    -55.611  0.0000E+00  0.0000E+00  0.0000E+00  0.0000E+00  0.0000E+00  0.0000E+00  0.0000E+00  0.0000E+00  0.0000E+00
    -55.306  0.0000E+00  0.0000E+00  0.0000E+00  0.0000E+00  0.0000E+00  0.0000E+00  0.0000E+00  0.0000E+00  0.0000E+00
    -55.001  0.0000E+00  0.0000E+00  0.0000E+00  0.0000E+00  0.0000E+00  0.0000E+00  0.0000E+00  0.0000E+00  0.0000E+00
    -54.697  0.0000E+00  0.0000E+00  0.0000E+00  0.0000E+00  0.0000E+00  0.0000E+00  0.0000E+00  0.0000E+00  0.0000E+00
    -54.392  0.0000E+00  0.0000E+00  0.0000E+00  0.0000E+00  0.0000E+00  0.0000E+00  0.0000E+00  0.0000E+00  0.0000E+00
    -54.087  0.0000E+00  0.0000E+00  0.0000E+00  0.0000E+00  0.0000E+00  0.0000E+00  0.0000E+00  0.0000E+00  0.0000E+00
    -53.782  0.0000E+00  0.0000E+00  0.0000E+00  0.0000E+00  0.0000E+00  0.0000E+00  0.0000E+00  0.0000E+00  0.0000E+00
    -53.478  0.0000E+00  0.0000E+00  0.0000E+00  0.0000E+00  0.0000E+00  0.0000E+00  0.0000E+00  0.0000E+00  0.0000E+00
    -53.173  0.0000E+00  0.0000E+00  0.0000E+00  0.0000E+00  0.0000E+00  0.0000E+00  0.0000E+00  0.0000E+00  0.0000E+00
    -52.868  0.0000E+00  0.0000E+00  0.0000E+00  0.0000E+00  0.0000E+00  0.0000E+00  0.0000E+00  0.0000E+00  0.0000E+00
    -52.563  0.0000E+00  0.0000E+00  0.0000E+00  0.0000E+00  0.0000E+00  0.0000E+00  0.0000E+00  0.0000E+00  0.0000E+00
    -52.258  0.0000E+00  0.0000E+00  0.0000E+00  0.0000E+00  0.0000E+00  0.0000E+00  0.0000E+00  0.0000E+00  0.0000E+00
    -51.954  0.0000E+00  0.0000E+00  0.0000E+00  0.0000E+00  0.0000E+00  0.0000E+00  0.0000E+00  0.0000E+00  0.0000E+00
    -51.649  0.0000E+00  0.0000E+00  0.0000E+00  0.0000E+00  0.0000E+00  0.0000E+00  0.0000E+00  0.0000E+00  0.0000E+00
    -51.344  0.0000E+00  0.0000E+00  0.0000E+00  0.0000E+00  0.0000E+00  0.0000E+00  0.0000E+00  0.0000E+00  0.0000E+00
    -51.039  0.0000E+00  0.0000E+00  0.0000E+00  0.0000E+00  0.0000E+00  0.0000E+00  0.0000E+00  0.0000E+00  0.0000E+00
    -50.735  0.0000E+00  0.0000E+00  0.0000E+00  0.0000E+00  0.0000E+00  0.0000E+00  0.0000E+00  0.0000E+00  0.0000E+00
    -50.430  0.0000E+00  0.0000E+00  0.0000E+00  0.0000E+00  0.0000E+00  0.0000E+00  0.0000E+00  0.0000E+00  0.0000E+00
    -50.125  0.0000E+00  0.0000E+00  0.0000E+00  0.0000E+00  0.0000E+00  0.0000E+00  0.0000E+00  0.0000E+00  0.0000E+00
    -49.820  0.0000E+00  0.0000E+00  0.0000E+00  0.0000E+00  0.0000E+00  0.0000E+00  0.0000E+00  0.0000E+00  0.0000E+00
    -49.515  0.0000E+00  0.0000E+00  0.0000E+00  0.0000E+00  0.0000E+00  0.0000E+00  0.0000E+00  0.0000E+00  0.0000E+00
    -49.211  0.0000E+00  0.0000E+00  0.0000E+00  0.0000E+00  0.0000E+00  0.0000E+00  0.0000E+00  0.0000E+00  0.0000E+00
    -48.906  0.0000E+00  0.0000E+00  0.0000E+00  0.0000E+00  0.0000E+00  0.0000E+00  0.0000E+00  0.0000E+00  0.0000E+00
    -48.601  0.0000E+00  0.0000E+00  0.0000E+00  0.0000E+00  0.0000E+00  0.0000E+00  0.0000E+00  0.0000E+00  0.0000E+00
    -48.296  0.0000E+00  0.0000E+00  0.0000E+00  0.0000E+00  0.0000E+00  0.0000E+00  0.0000E+00  0.0000E+00  0.0000E+00
    -47.991  0.0000E+00  0.0000E+00  0.0000E+00  0.0000E+00  0.0000E+00  0.0000E+00  0.0000E+00  0.0000E+00  0.0000E+00
    -47.687  0.0000E+00  0.0000E+00  0.0000E+00  0.0000E+00  0.0000E+00  0.0000E+00  0.0000E+00  0.0000E+00  0.0000E+00
    -47.382  0.0000E+00  0.0000E+00  0.0000E+00  0.0000E+00  0.0000E+00  0.0000E+00  0.0000E+00  0.0000E+00  0.0000E+00
    -47.077  0.0000E+00  0.0000E+00  0.0000E+00  0.0000E+00  0.0000E+00  0.0000E+00  0.0000E+00  0.0000E+00  0.0000E+00
    -46.772  0.0000E+00  0.0000E+00  0.0000E+00  0.0000E+00  0.0000E+00  0.0000E+00  0.0000E+00  0.0000E+00  0.0000E+00
    -46.468  0.0000E+00  0.0000E+00  0.0000E+00  0.0000E+00  0.0000E+00  0.0000E+00  0.0000E+00  0.0000E+00  0.0000E+00
    -46.163  0.0000E+00  0.0000E+00  0.0000E+00  0.0000E+00  0.0000E+00  0.0000E+00  0.0000E+00  0.0000E+00  0.0000E+00
    -45.858  0.0000E+00  0.0000E+00  0.0000E+00  0.0000E+00  0.0000E+00  0.0000E+00  0.0000E+00  0.0000E+00  0.0000E+00
    -45.553  0.0000E+00  0.0000E+00  0.0000E+00  0.0000E+00  0.0000E+00  0.0000E+00  0.0000E+00  0.0000E+00  0.0000E+00
    -45.248  0.0000E+00  0.0000E+00  0.0000E+00  0.0000E+00  0.0000E+00  0.0000E+00  0.0000E+00  0.0000E+00  0.0000E+00
    -44.944  0.0000E+00  0.0000E+00  0.0000E+00  0.0000E+00  0.0000E+00  0.0000E+00  0.0000E+00  0.0000E+00  0.0000E+00
    -44.639  0.0000E+00  0.0000E+00  0.0000E+00  0.0000E+00  0.0000E+00  0.0000E+00  0.0000E+00  0.0000E+00  0.0000E+00
    -44.334  0.0000E+00  0.0000E+00  0.0000E+00  0.0000E+00  0.0000E+00  0.0000E+00  0.0000E+00  0.0000E+00  0.0000E+00
    -44.029  0.0000E+00  0.0000E+00  0.0000E+00  0.0000E+00  0.0000E+00  0.0000E+00  0.0000E+00  0.0000E+00  0.0000E+00
    -43.725  0.0000E+00  0.0000E+00  0.0000E+00  0.0000E+00  0.0000E+00  0.0000E+00  0.0000E+00  0.0000E+00  0.0000E+00
    -43.420  0.0000E+00  0.0000E+00  0.0000E+00  0.0000E+00  0.0000E+00  0.0000E+00  0.0000E+00  0.0000E+00  0.0000E+00
    -43.115  0.0000E+00  0.0000E+00  0.0000E+00  0.0000E+00  0.0000E+00  0.0000E+00  0.0000E+00  0.0000E+00  0.0000E+00
    -42.810  0.0000E+00  0.0000E+00  0.0000E+00  0.0000E+00  0.0000E+00  0.0000E+00  0.0000E+00  0.0000E+00  0.0000E+00
    -42.505  0.0000E+00  0.0000E+00  0.0000E+00  0.0000E+00  0.0000E+00  0.0000E+00  0.0000E+00  0.0000E+00  0.0000E+00
    -42.201  0.0000E+00  0.0000E+00  0.0000E+00  0.0000E+00  0.0000E+00  0.0000E+00  0.0000E+00  0.0000E+00  0.0000E+00
    -41.896  0.0000E+00  0.0000E+00  0.0000E+00  0.0000E+00  0.0000E+00  0.0000E+00  0.0000E+00  0.0000E+00  0.0000E+00
    -41.591  0.0000E+00  0.0000E+00  0.0000E+00  0.0000E+00  0.0000E+00  0.0000E+00  0.0000E+00  0.0000E+00  0.0000E+00
    -41.286  0.0000E+00  0.0000E+00  0.0000E+00  0.0000E+00  0.0000E+00  0.0000E+00  0.0000E+00  0.0000E+00  0.0000E+00
    -40.982  0.0000E+00  0.0000E+00  0.0000E+00  0.0000E+00  0.0000E+00  0.0000E+00  0.0000E+00  0.0000E+00  0.0000E+00
    -40.677  0.0000E+00  0.0000E+00  0.0000E+00  0.0000E+00  0.0000E+00  0.0000E+00  0.0000E+00  0.0000E+00  0.0000E+00
    -40.372  0.0000E+00  0.0000E+00  0.0000E+00  0.0000E+00  0.0000E+00  0.0000E+00  0.0000E+00  0.0000E+00  0.0000E+00
    -40.067  0.0000E+00  0.0000E+00  0.0000E+00  0.0000E+00  0.0000E+00  0.0000E+00  0.0000E+00  0.0000E+00  0.0000E+00
    -39.762  0.0000E+00  0.0000E+00  0.0000E+00  0.0000E+00  0.0000E+00  0.0000E+00  0.0000E+00  0.0000E+00  0.0000E+00
    -39.458  0.0000E+00  0.0000E+00  0.0000E+00  0.0000E+00  0.0000E+00  0.0000E+00  0.0000E+00  0.0000E+00  0.0000E+00
    -39.153  0.0000E+00  0.0000E+00  0.0000E+00  0.0000E+00  0.0000E+00  0.0000E+00  0.0000E+00  0.0000E+00  0.0000E+00
    -38.848  0.0000E+00  0.0000E+00  0.0000E+00  0.0000E+00  0.0000E+00  0.0000E+00  0.0000E+00  0.0000E+00  0.0000E+00
    -38.543  0.0000E+00  0.0000E+00  0.0000E+00  0.0000E+00  0.0000E+00  0.0000E+00  0.0000E+00  0.0000E+00  0.0000E+00
    -38.239  0.0000E+00  0.0000E+00  0.0000E+00  0.0000E+00  0.0000E+00  0.0000E+00  0.0000E+00  0.0000E+00  0.0000E+00
    -37.934  0.0000E+00  0.0000E+00  0.0000E+00  0.0000E+00  0.0000E+00  0.0000E+00  0.0000E+00  0.0000E+00  0.0000E+00
    -37.629  0.0000E+00  0.0000E+00  0.0000E+00  0.0000E+00  0.0000E+00  0.0000E+00  0.0000E+00  0.0000E+00  0.0000E+00
    -37.324  0.0000E+00  0.0000E+00  0.0000E+00  0.0000E+00  0.0000E+00  0.0000E+00  0.0000E+00  0.0000E+00  0.0000E+00
    -37.019  0.0000E+00  0.0000E+00  0.0000E+00  0.0000E+00  0.0000E+00  0.0000E+00  0.0000E+00  0.0000E+00  0.0000E+00
    -36.715  0.0000E+00  0.0000E+00  0.0000E+00  0.0000E+00  0.0000E+00  0.0000E+00  0.0000E+00  0.0000E+00  0.0000E+00
    -36.410  0.0000E+00  0.0000E+00  0.0000E+00  0.0000E+00  0.0000E+00  0.0000E+00  0.0000E+00  0.0000E+00  0.0000E+00
    -36.105  0.0000E+00  0.0000E+00  0.0000E+00  0.0000E+00  0.0000E+00  0.0000E+00  0.0000E+00  0.0000E+00  0.0000E+00
    -35.800  0.0000E+00  0.0000E+00  0.0000E+00  0.0000E+00  0.0000E+00  0.0000E+00  0.0000E+00  0.0000E+00  0.0000E+00
    -35.496  0.0000E+00  0.0000E+00  0.0000E+00  0.0000E+00  0.0000E+00  0.0000E+00  0.0000E+00  0.0000E+00  0.0000E+00
    -35.191  0.0000E+00  0.0000E+00  0.0000E+00  0.0000E+00  0.0000E+00  0.0000E+00  0.0000E+00  0.0000E+00  0.0000E+00
    -34.886  0.0000E+00  0.0000E+00  0.0000E+00  0.0000E+00  0.0000E+00  0.0000E+00  0.0000E+00  0.0000E+00  0.0000E+00
    -34.581  0.0000E+00  0.0000E+00  0.0000E+00  0.0000E+00  0.0000E+00  0.0000E+00  0.0000E+00  0.0000E+00  0.0000E+00
    -34.276  0.0000E+00  0.0000E+00  0.0000E+00  0.0000E+00  0.0000E+00  0.0000E+00  0.0000E+00  0.0000E+00  0.0000E+00
    -33.972  0.0000E+00  0.0000E+00  0.0000E+00  0.0000E+00  0.0000E+00  0.0000E+00  0.0000E+00  0.0000E+00  0.0000E+00
    -33.667  0.0000E+00  0.0000E+00  0.0000E+00  0.0000E+00  0.0000E+00  0.0000E+00  0.0000E+00  0.0000E+00  0.0000E+00
    -33.362  0.0000E+00  0.0000E+00  0.0000E+00  0.0000E+00  0.0000E+00  0.0000E+00  0.0000E+00  0.0000E+00  0.0000E+00
    -33.057  0.0000E+00  0.0000E+00  0.0000E+00  0.0000E+00  0.0000E+00  0.0000E+00  0.0000E+00  0.0000E+00  0.0000E+00
    -32.752  0.0000E+00  0.0000E+00  0.0000E+00  0.0000E+00  0.0000E+00  0.0000E+00  0.0000E+00  0.0000E+00  0.0000E+00
    -32.448  0.0000E+00  0.0000E+00  0.0000E+00  0.0000E+00  0.0000E+00  0.0000E+00  0.0000E+00  0.0000E+00  0.0000E+00
    -32.143  0.0000E+00  0.0000E+00  0.0000E+00  0.0000E+00  0.0000E+00  0.0000E+00  0.0000E+00  0.0000E+00  0.0000E+00
    -31.838  0.0000E+00  0.0000E+00  0.0000E+00  0.0000E+00  0.0000E+00  0.0000E+00  0.0000E+00  0.0000E+00  0.0000E+00
    -31.533  0.0000E+00  0.0000E+00  0.0000E+00  0.0000E+00  0.0000E+00  0.0000E+00  0.0000E+00  0.0000E+00  0.0000E+00
    -31.229  0.0000E+00  0.0000E+00  0.0000E+00  0.0000E+00  0.0000E+00  0.0000E+00  0.0000E+00  0.0000E+00  0.0000E+00
    -30.924  0.0000E+00  0.0000E+00  0.0000E+00  0.0000E+00  0.0000E+00  0.0000E+00  0.0000E+00  0.0000E+00  0.0000E+00
    -30.619  0.0000E+00  0.0000E+00  0.0000E+00  0.0000E+00  0.0000E+00  0.0000E+00  0.0000E+00  0.0000E+00  0.0000E+00
    -30.314  0.0000E+00  0.0000E+00  0.0000E+00  0.0000E+00  0.0000E+00  0.0000E+00  0.0000E+00  0.0000E+00  0.0000E+00
    -30.009  0.0000E+00  0.0000E+00  0.0000E+00  0.0000E+00  0.0000E+00  0.0000E+00  0.0000E+00  0.0000E+00  0.0000E+00
    -29.705  0.0000E+00  0.0000E+00  0.0000E+00  0.0000E+00  0.0000E+00  0.0000E+00  0.0000E+00  0.0000E+00  0.0000E+00
    -29.400  0.0000E+00  0.0000E+00  0.0000E+00  0.0000E+00  0.0000E+00  0.0000E+00  0.0000E+00  0.0000E+00  0.0000E+00
    -29.095  0.0000E+00  0.0000E+00  0.0000E+00  0.0000E+00  0.0000E+00  0.0000E+00  0.0000E+00  0.0000E+00  0.0000E+00
    -28.790  0.0000E+00  0.0000E+00  0.0000E+00  0.0000E+00  0.0000E+00  0.0000E+00  0.0000E+00  0.0000E+00  0.0000E+00
    -28.486  0.0000E+00  0.0000E+00  0.0000E+00  0.0000E+00  0.0000E+00  0.0000E+00  0.0000E+00  0.0000E+00  0.0000E+00
    -28.181  0.0000E+00  0.0000E+00  0.0000E+00  0.0000E+00  0.0000E+00  0.0000E+00  0.0000E+00  0.0000E+00  0.0000E+00
    -27.876  0.0000E+00  0.0000E+00  0.0000E+00  0.0000E+00  0.0000E+00  0.0000E+00  0.0000E+00  0.0000E+00  0.0000E+00
    -27.571  0.0000E+00  0.0000E+00  0.0000E+00  0.0000E+00  0.0000E+00  0.0000E+00  0.0000E+00  0.0000E+00  0.0000E+00
    -27.266  0.0000E+00  0.0000E+00  0.0000E+00  0.0000E+00  0.0000E+00  0.0000E+00  0.0000E+00  0.0000E+00  0.0000E+00
    -26.962  0.0000E+00  0.0000E+00  0.0000E+00  0.0000E+00  0.0000E+00  0.0000E+00  0.0000E+00  0.0000E+00  0.0000E+00
    -26.657  0.0000E+00  0.0000E+00  0.0000E+00  0.0000E+00  0.0000E+00  0.0000E+00  0.0000E+00  0.0000E+00  0.0000E+00
    -26.352  0.0000E+00  0.0000E+00  0.0000E+00  0.0000E+00  0.0000E+00  0.0000E+00  0.0000E+00  0.0000E+00  0.0000E+00
    -26.047  0.0000E+00  0.0000E+00  0.0000E+00  0.0000E+00  0.0000E+00  0.0000E+00  0.0000E+00  0.0000E+00  0.0000E+00
    -25.743  0.0000E+00  0.0000E+00  0.0000E+00  0.0000E+00  0.0000E+00  0.0000E+00  0.0000E+00  0.0000E+00  0.0000E+00
    -25.438  0.0000E+00  0.0000E+00  0.0000E+00  0.0000E+00  0.0000E+00  0.0000E+00  0.0000E+00  0.0000E+00  0.0000E+00
    -25.133  0.0000E+00  0.0000E+00  0.0000E+00  0.0000E+00  0.0000E+00  0.0000E+00  0.0000E+00  0.0000E+00  0.0000E+00
    -24.828  0.0000E+00  0.0000E+00  0.0000E+00  0.0000E+00  0.0000E+00  0.0000E+00  0.0000E+00  0.0000E+00  0.0000E+00
    -24.523  0.0000E+00  0.0000E+00  0.0000E+00  0.0000E+00  0.0000E+00  0.0000E+00  0.0000E+00  0.0000E+00  0.0000E+00
    -24.219  0.0000E+00  0.0000E+00  0.0000E+00  0.0000E+00  0.0000E+00  0.0000E+00  0.0000E+00  0.0000E+00  0.0000E+00
    -23.914  0.0000E+00  0.0000E+00  0.0000E+00  0.0000E+00  0.0000E+00  0.0000E+00  0.0000E+00  0.0000E+00  0.0000E+00
    -23.609  0.0000E+00  0.0000E+00  0.0000E+00  0.0000E+00  0.0000E+00  0.0000E+00  0.0000E+00  0.0000E+00  0.0000E+00
    -23.304  0.0000E+00  0.0000E+00  0.0000E+00  0.0000E+00  0.0000E+00  0.0000E+00  0.0000E+00  0.0000E+00  0.0000E+00
    -23.000  0.0000E+00  0.0000E+00  0.0000E+00  0.0000E+00  0.0000E+00  0.0000E+00  0.0000E+00  0.0000E+00  0.0000E+00
    -22.695  0.0000E+00  0.0000E+00  0.0000E+00  0.0000E+00  0.0000E+00  0.0000E+00  0.0000E+00  0.0000E+00  0.0000E+00
    -22.390  0.0000E+00  0.0000E+00  0.0000E+00  0.0000E+00  0.0000E+00  0.0000E+00  0.0000E+00  0.0000E+00  0.0000E+00
    -22.085  0.0000E+00  0.0000E+00  0.0000E+00  0.0000E+00  0.0000E+00  0.0000E+00  0.0000E+00  0.0000E+00  0.0000E+00
    -21.780  0.0000E+00  0.0000E+00  0.0000E+00  0.0000E+00  0.0000E+00  0.0000E+00  0.0000E+00  0.0000E+00  0.0000E+00
    -21.476  0.0000E+00  0.0000E+00  0.0000E+00  0.0000E+00  0.0000E+00  0.0000E+00  0.0000E+00  0.0000E+00  0.0000E+00
    -21.171  0.0000E+00  0.0000E+00  0.0000E+00  0.0000E+00  0.0000E+00  0.0000E+00  0.0000E+00  0.0000E+00  0.0000E+00
    -20.866  0.0000E+00  0.0000E+00  0.0000E+00  0.0000E+00  0.0000E+00  0.0000E+00  0.0000E+00  0.0000E+00  0.0000E+00
    -20.561  0.0000E+00  0.0000E+00  0.0000E+00  0.0000E+00  0.0000E+00  0.0000E+00  0.0000E+00  0.0000E+00  0.0000E+00
    -20.257  0.0000E+00  0.0000E+00  0.0000E+00  0.0000E+00  0.0000E+00  0.0000E+00  0.0000E+00  0.0000E+00  0.0000E+00
    -19.952  0.0000E+00  0.0000E+00  0.0000E+00  0.0000E+00  0.0000E+00  0.0000E+00  0.0000E+00  0.0000E+00  0.0000E+00
    -19.647  0.0000E+00  0.0000E+00  0.0000E+00  0.0000E+00  0.0000E+00  0.0000E+00  0.0000E+00  0.0000E+00  0.0000E+00
    -19.342  0.0000E+00  0.0000E+00  0.0000E+00  0.0000E+00  0.0000E+00  0.0000E+00  0.0000E+00  0.0000E+00  0.0000E+00