    1    1    1    2
  0.1658294E+02  0.2862368E-09  0.2862368E-09  0.2862368E-09  0.5000000E-15
   1.0000000000000000E-004
  CAR 
 unknown system                          
      3    120     48

  0.1262379E-14  0.1262379E-14  0.1262379E-14  0.2962963E-03
    1       -3.151808     -3.153182   1.000000   1.000000
    2       20.539715     20.538798   0.000000   0.000000
    3       20.539715     20.538798   0.000000   0.000000
    4       20.539715     20.538798   0.000000   0.000000
    5       21.994463     21.989402   0.000000   0.000000
    6       21.994463     21.989402   0.000000   0.000000
    7       21.994463     21.989402   0.000000   0.000000
    8       24.376552     24.377056   0.000000   0.000000
    9       27.314394     27.310947   0.000000   0.000000
   10       27.314394     27.310947   0.000000   0.000000
   11       30.160869     30.158388   0.000000   0.000000
   12       32.510785     32.510231   0.000000   0.000000
   13       32.510785     32.510231   0.000000   0.000000
   14       32.510785     32.510231   0.000000   0.000000
   15       41.061707     41.059238   0.000000   0.000000
   16       56.017661     56.016330   0.000000   0.000000
   17       56.017661     56.016330   0.000000   0.000000
   18       56.017661     56.016330   0.000000   0.000000
   19       56.053725     56.053575   0.000000   0.000000
   20       59.213387     59.210830   0.000000   0.000000
   21       59.213387     59.210830   0.000000   0.000000
   22       59.213387     59.210830   0.000000   0.000000
   23       62.833294     62.833226   0.000000   0.000000
   24       62.833294     62.833226   0.000000   0.000000
   25       65.076910     65.073313   0.000000   0.000000
   26       65.076910     65.073313   0.000000   0.000000
   27       65.076910     65.073314   0.000000   0.000000
   28       73.177473     73.176663   0.000000   0.000000
   29       73.177473     73.176663   0.000000   0.000000
   30       73.177473     73.176664   0.000000   0.000000
   31       80.818758     80.818091   0.000000   0.000000
   32       83.077783     83.076218   0.000000   0.000000
   33       83.077783     83.076218   0.000000   0.000000
   34       87.205687     87.205978   0.000000   0.000000
   35       87.205687     87.205979   0.000000   0.000000
   36       87.205687     87.205981   0.000000   0.000000
   37       90.088522     90.082663   0.000000   0.000000
   38       90.088522     90.082664   0.000000   0.000000
   39       90.088523     90.082664   0.000000   0.000000
   40       90.896618     90.889510   0.000000   0.000000
   41       93.460024     93.460244   0.000000   0.000000
   42       93.460025     93.460244   0.000000   0.000000
   43       93.460025     93.460244   0.000000   0.000000
   44       93.934902     93.931646   0.000000   0.000000
   45       93.934903     93.931646   0.000000   0.000000
   46       93.934903     93.931646   0.000000   0.000000
   47       96.373722     96.374603   0.000000   0.000000
   48       96.373722     96.374603   0.000000   0.000000

  0.6666667E-01  0.1265298E-14  0.1265298E-14  0.2370370E-02
    1       -3.031384     -3.032758   1.000000   1.000000
    2       18.586859     18.585188   0.000000   0.000000
    3       20.120853     20.119155   0.000000   0.000000
    4       20.120853     20.119155   0.000000   0.000000
    5       22.599423     22.595058   0.000000   0.000000
    6       22.599423     22.595059   0.000000   0.000000
    7       22.632961     22.629413   0.000000   0.000000
    8       25.606212     25.606020   0.000000   0.000000
    9       26.643603     26.640614   0.000000   0.000000
   10       26.643603     26.640614   0.000000   0.000000
   11       29.724814     29.722557   0.000000   0.000000
   12       33.120909     33.119969   0.000000   0.000000
   13       33.424168     33.423211   0.000000   0.000000
   14       33.424169     33.423211   0.000000   0.000000
   15       41.544359     41.541978   0.000000   0.000000
   16       55.552263     55.551485   0.000000   0.000000
   17       55.872429     55.871060   0.000000   0.000000
   18       55.872429     55.871060   0.000000   0.000000
   19       56.299285     56.298522   0.000000   0.000000
   20       57.955587     57.953062   0.000000   0.000000
   21       57.955587     57.953063   0.000000   0.000000
   22       59.219599     59.217107   0.000000   0.000000
   23       61.741091     61.740209   0.000000   0.000000
   24       61.741091     61.740210   0.000000   0.000000
   25       65.184872     65.181251   0.000000   0.000000
   26       67.666373     67.663658   0.000000   0.000000
   27       67.666373     67.663658   0.000000   0.000000
   28       72.189271     72.188583   0.000000   0.000000
   29       73.066286     73.065344   0.000000   0.000000
   30       73.066286     73.065345   0.000000   0.000000
   31       81.934511     81.933821   0.000000   0.000000
   32       82.427111     82.425288   0.000000   0.000000
   33       82.427111     82.425289   0.000000   0.000000
   34       84.825541     84.822832   0.000000   0.000000
   35       86.331537     86.331438   0.000000   0.000000
   36       86.331537     86.331438   0.000000   0.000000
   37       88.824406     88.821384   0.000000   0.000000
   38       88.824406     88.821385   0.000000   0.000000
   39       90.205735     90.204421   0.000000   0.000000
   40       90.244991     90.238841   0.000000   0.000000
   41       91.862555     91.861340   0.000000   0.000000
   42       91.862555     91.861341   0.000000   0.000000
   43       92.404826     92.402985   0.000000   0.000000
   44       95.266308     95.267256   0.000000   0.000000
   45       95.266308     95.267256   0.000000   0.000000
   46       96.138721     96.135799   0.000000   0.000000
   47       96.138721     96.135799   0.000000   0.000000
   48       96.970065     96.970388   0.000000   0.000000

  0.1333333E+00  0.1259557E-14  0.1259557E-14  0.2370370E-02
    1       -2.670754     -2.672128   1.000000   1.000000
    2       15.903342     15.901707   0.000000   0.000000
    3       19.517224     19.515096   0.000000   0.000000
    4       19.517224     19.515096   0.000000   0.000000
    5       22.591126     22.588328   0.000000   0.000000
    6       23.667754     23.663397   0.000000   0.000000
    7       23.667754     23.663398   0.000000   0.000000
    8       25.430452     25.428269   0.000000   0.000000
    9       25.430452     25.428269   0.000000   0.000000
   10       28.105471     28.104630   0.000000   0.000000
   11       28.745319     28.743213   0.000000   0.000000
   12       34.733381     34.731888   0.000000   0.000000
   13       35.450601     35.449164   0.000000   0.000000
   14       35.450601     35.449164   0.000000   0.000000
   15       42.843518     42.841362   0.000000   0.000000
   16       54.090657     54.088670   0.000000   0.000000
   17       54.090657     54.088670   0.000000   0.000000
   18       54.711385     54.710568   0.000000   0.000000
   19       56.450065     56.449223   0.000000   0.000000
   20       56.540888     56.539195   0.000000   0.000000
   21       56.540888     56.539195   0.000000   0.000000
   22       59.118125     59.115819   0.000000   0.000000
   23       61.558281     61.557144   0.000000   0.000000
   24       61.558280     61.557145   0.000000   0.000000
   25       65.506326     65.502628   0.000000   0.000000
   26       70.291895     70.291252   0.000000   0.000000
   27       70.850873     70.848621   0.000000   0.000000
   28       70.850873     70.848622   0.000000   0.000000
   29       72.925192     72.923652   0.000000   0.000000
   30       72.925193     72.923653   0.000000   0.000000
   31       80.434867     80.432740   0.000000   0.000000
   32       80.434867     80.432741   0.000000   0.000000
   33       80.897645     80.894605   0.000000   0.000000
   34       84.588192     84.588945   0.000000   0.000000
   35       84.588192     84.588945   0.000000   0.000000
   36       85.160834     85.159256   0.000000   0.000000
   37       86.889353     86.887840   0.000000   0.000000
   38       86.889353     86.887840   0.000000   0.000000
   39       86.989902     86.988684   0.000000   0.000000
   40       89.748801     89.743381   0.000000   0.000000
   41       90.322626     90.322639   0.000000   0.000000
   42       90.559706     90.557945   0.000000   0.000000
   43       90.559705     90.557946   0.000000   0.000000
   44       93.987106     93.988352   0.000000   0.000000
   45       96.611520     96.612323   0.000000   0.000000
   46       96.611520     96.612323   0.000000   0.000000
   47       98.447185     98.444162   0.000000   0.000000
   48       98.447186     98.444162   0.000000   0.000000

  0.2000000E+00  0.1261337E-14  0.1261337E-14  0.2370370E-02
    1       -2.071742     -2.073116   1.000000   1.000000
    2       13.266002     13.264433   0.000000   0.000000
    3       19.050073     19.047778   0.000000   0.000000
    4       19.050073     19.047778   0.000000   0.000000
    5       22.379393     22.376900   0.000000   0.000000
    6       23.541075     23.537583   0.000000   0.000000
    7       23.541075     23.537583   0.000000   0.000000
    8       25.625711     25.622988   0.000000   0.000000
    9       25.625711     25.622989   0.000000   0.000000
   10       27.561243     27.559161   0.000000   0.000000
   11       30.664782     30.663667   0.000000   0.000000
   12       37.166942     37.164933   0.000000   0.000000
   13       37.943743     37.941953   0.000000   0.000000
   14       37.943743     37.941954   0.000000   0.000000
   15       44.686329     44.684484   0.000000   0.000000
   16       50.797397     50.795462   0.000000   0.000000
   17       50.797397     50.795462   0.000000   0.000000
   18       53.519148     53.518349   0.000000   0.000000
   19       56.385151     56.383646   0.000000   0.000000
   20       56.385151     56.383646   0.000000   0.000000
   21       56.591712     56.590764   0.000000   0.000000
   22       58.726004     58.724034   0.000000   0.000000
   23       61.806499     61.805220   0.000000   0.000000
   24       61.806499     61.805221   0.000000   0.000000
   25       66.030204     66.026360   0.000000   0.000000
   26       68.383799     68.382760   0.000000   0.000000
   27       70.658350     70.656233   0.000000   0.000000
   28       70.658350     70.656233   0.000000   0.000000
   29       74.348773     74.347243   0.000000   0.000000
   30       74.348773     74.347245   0.000000   0.000000
   31       78.164877     78.161176   0.000000   0.000000
   32       78.728316     78.726427   0.000000   0.000000
   33       78.728317     78.726427   0.000000   0.000000
   34       82.136409     82.137100   0.000000   0.000000
   35       82.136409     82.137101   0.000000   0.000000
   36       84.047739     84.046695   0.000000   0.000000
   37       84.118345     84.118808   0.000000   0.000000
   38       86.674076     86.673067   0.000000   0.000000
   39       86.674076     86.673067   0.000000   0.000000
   40       88.156683     88.155672   0.000000   0.000000
   41       89.395511     89.390477   0.000000   0.000000
   42       89.872380     89.870468   0.000000   0.000000
   43       89.872380     89.870470   0.000000   0.000000
   44       93.751417     93.752454   0.000000   0.000000
   45       97.334879     97.334533   0.000000   0.000000
   46       97.334879     97.334533   0.000000   0.000000
   47      100.019066    100.018454   0.000000   0.000000
   48      100.019066    100.018455   0.000000   0.000000

  0.2666667E+00  0.1235029E-14  0.1235029E-14  0.2370370E-02
    1       -1.237295     -1.238669   1.000000   1.000000
    2       10.767828     10.766309   0.000000   0.000000
    3       18.767344     18.764964   0.000000   0.000000
    4       18.767344     18.764964   0.000000   0.000000
    5       22.231343     22.229029   0.000000   0.000000
    6       22.362870     22.359993   0.000000   0.000000
    7       22.362870     22.359993   0.000000   0.000000
    8       26.353490     26.351384   0.000000   0.000000
    9       27.201512     27.198257   0.000000   0.000000
   10       27.201512     27.198258   0.000000   0.000000
   11       33.097861     33.096498   0.000000   0.000000
   12       40.218038     40.215532   0.000000   0.000000
   13       40.613166     40.610988   0.000000   0.000000
   14       40.613166     40.610988   0.000000   0.000000
   15       46.831228     46.829733   0.000000   0.000000
   16       47.626912     47.625328   0.000000   0.000000
   17       47.626912     47.625329   0.000000   0.000000
   18       52.046404     52.045793   0.000000   0.000000
   19       56.354957     56.353486   0.000000   0.000000
   20       56.354958     56.353486   0.000000   0.000000
   21       56.761571     56.760490   0.000000   0.000000
   22       58.005278     58.003737   0.000000   0.000000
   23       62.143269     62.141770   0.000000   0.000000
   24       62.143270     62.141772   0.000000   0.000000
   25       66.505628     66.503672   0.000000   0.000000
   26       66.734570     66.730484   0.000000   0.000000
   27       68.118656     68.116348   0.000000   0.000000
   28       68.118656     68.116348   0.000000   0.000000
   29       74.428267     74.427767   0.000000   0.000000
   30       74.428268     74.427767   0.000000   0.000000
   31       75.980496     75.976770   0.000000   0.000000
   32       78.761234     78.762205   0.000000   0.000000
   33       79.148717     79.148366   0.000000   0.000000
   34       79.148718     79.148366   0.000000   0.000000
   35       80.040137     80.039267   0.000000   0.000000
   36       80.040137     80.039267   0.000000   0.000000
   37       81.406098     81.405323   0.000000   0.000000
   38       87.969294     87.968151   0.000000   0.000000
   39       87.969295     87.968153   0.000000   0.000000
   40       88.761449     88.757961   0.000000   0.000000
   41       89.510054     89.508128   0.000000   0.000000
   42       89.510044     89.508131   0.000000   0.000000
   43       90.983569     90.981950   0.000000   0.000000
   44       93.045734     93.046147   0.000000   0.000000
   45       97.472369     97.471473   0.000000   0.000000
   46       97.472361     97.471508   0.000000   0.000000
   47      101.470897    101.469812   0.000000   0.000000
   48      102.250710    102.250710   0.000000   0.000000

  0.3333333E+00  0.1237476E-14  0.1237476E-14  0.2370370E-02
    1       -0.171448     -0.172822   1.000000   1.000000
    2        8.441883      8.440398   0.214859   0.215728
    3       18.680710     18.678270   0.000000   0.000000
    4       18.680710     18.678270   0.000000   0.000000
    5       21.268252     21.265598   0.000000   0.000000
    6       21.268252     21.265599   0.000000   0.000000
    7       22.233314     22.231128   0.000000   0.000000
    8       25.226588     25.224441   0.000000   0.000000
    9       29.026558     29.022977   0.000000   0.000000
   10       29.026558     29.022977   0.000000   0.000000
   11       35.426487     35.424786   0.000000   0.000000
   12       42.382952     42.380286   0.000000   0.000000
   13       42.382952     42.380286   0.000000   0.000000
   14       43.562269     43.559285   0.000000   0.000000
   15       45.809426     45.808432   0.000000   0.000000
   16       45.809427     45.808432   0.000000   0.000000
   17       48.501963     48.500686   0.000000   0.000000
   18       51.113248     51.113201   0.000000   0.000000
   19       56.322589     56.321135   0.000000   0.000000
   20       56.322590     56.321136   0.000000   0.000000
   21       56.960023     56.958638   0.000000   0.000000
   22       56.975507     56.974435   0.000000   0.000000
   23       62.050403     62.048157   0.000000   0.000000
   24       62.050403     62.048158   0.000000   0.000000
   25       64.580622     64.577684   0.000000   0.000000
   26       65.156985     65.155502   0.000000   0.000000
   27       65.156985     65.155503   0.000000   0.000000
   28       67.570836     67.566370   0.000000   0.000000
   29       71.955269     71.954206   0.000000   0.000000
   30       73.980364     73.980077   0.000000   0.000000
   31       73.980366     73.980078   0.000000   0.000000
   32       76.654389     76.653302   0.000000   0.000000
   33       77.689100     77.689521   0.000000   0.000000
   34       77.689101     77.689521   0.000000   0.000000
   35       79.116994     79.116619   0.000000   0.000000
   36       80.308117     80.307022   0.000000   0.000000
   37       80.308118     80.307024   0.000000   0.000000
   38       88.582861     88.579217   0.000000   0.000000
   39       89.233722     89.231904   0.000000   0.000000
   40       89.233728     89.231904   0.000000   0.000000
   41       90.644569     90.643021   0.000000   0.000000
   42       90.644569     90.643021   0.000000   0.000000
   43       90.946055     90.946379   0.000000   0.000000
   44       93.871714     93.871021   0.000000   0.000000
   45       98.283494     98.282195   0.000000   0.000000
   46       98.283517     98.282203   0.000000   0.000000
   47      101.823692    101.821623   0.000000   0.000000
   48      103.861996    103.861924   0.000000   0.000000

  0.4000000E+00  0.1224379E-14  0.1224379E-14  0.2370370E-02
    1        1.120715      1.119345   1.000000   1.000000
    2        6.305391      6.303924   1.033454   1.033249
    3       18.794207     18.791699   0.000000   0.000000
    4       18.794207     18.791699   0.000000   0.000000
    5       20.351952     20.349439   0.000000   0.000000
    6       20.351952     20.349440   0.000000   0.000000
    7       22.424807     22.422743   0.000000   0.000000
    8       24.242119     24.239898   0.000000   0.000000
    9       30.908039     30.903979   0.000000   0.000000
   10       30.908039     30.903980   0.000000   0.000000
   11       37.598300     37.596081   0.000000   0.000000
   12       40.781162     40.779418   0.000000   0.000000
   13       40.781162     40.779419   0.000000   0.000000
   14       46.338477     46.336333   0.000000   0.000000
   15       47.892922     47.891301   0.000000   0.000000
   16       47.892922     47.891301   0.000000   0.000000
   17       47.999452     47.997681   0.000000   0.000000
   18       53.135911     53.136044   0.000000   0.000000
   19       55.609750     55.608530   0.000000   0.000000
   20       56.158455     56.157022   0.000000   0.000000
   21       56.158455     56.157023   0.000000   0.000000
   22       57.211259     57.209873   0.000000   0.000000
   23       59.896500     59.893771   0.000000   0.000000
   24       59.896501     59.893772   0.000000   0.000000
   25       62.861006     62.857644   0.000000   0.000000
   26       64.171989     64.171180   0.000000   0.000000
   27       64.171989     64.171180   0.000000   0.000000
   28       67.006937     67.006702   0.000000   0.000000
   29       68.423341     68.418312   0.000000   0.000000
   30       73.704615     73.704368   0.000000   0.000000
   31       73.704616     73.704371   0.000000   0.000000
   32       76.246489     76.246650   0.000000   0.000000
   33       76.246489     76.246651   0.000000   0.000000
   34       76.640358     76.638819   0.000000   0.000000
   35       77.295679     77.295880   0.000000   0.000000
   36       80.513164     80.512667   0.000000   0.000000
   37       80.513164     80.512669   0.000000   0.000000
   38       88.529539     88.525892   0.000000   0.000000
   39       89.004029     89.002310   0.000000   0.000000
   40       89.004038     89.002308   0.000000   0.000000
   41       89.897110     89.897624   0.000000   0.000000
   42       93.521311     93.519713   0.000000   0.000000
   43       93.521308     93.519716   0.000000   0.000000
   44       94.343082     94.342793   0.000000   0.000000
   45       99.994766     99.993281   0.000000   0.000000
   46       99.994951     99.993357   0.000000   0.000000
   47      103.406822    103.404215   0.000000   0.000000
   48      104.157167    104.156367   0.000000   0.000000

  0.4666667E+00  0.1226493E-14  0.1226493E-14  0.2370370E-02
    1        2.631043      2.629716   1.000000   1.000000
    2        4.371870      4.370371   1.000000   1.000000
    3       19.108276     19.105581   0.000000   0.000000
    4       19.108276     19.105582   0.000000   0.000000
    5       19.633568     19.631275   0.000000   0.000000
    6       19.633568     19.631275   0.000000   0.000000
    7       22.819609     22.817851   0.000000   0.000000
    8       23.439264     23.436759   0.000000   0.000000
    9       32.414613     32.409808   0.000000   0.000000
   10       32.414613     32.409809   0.000000   0.000000
   11       38.987957     38.987113   0.000000   0.000000
   12       38.987957     38.987113   0.000000   0.000000
   13       39.219427     39.216475   0.000000   0.000000
   14       45.634658     45.634898   0.000000   0.000000
   15       50.013011     50.009355   0.000000   0.000000
   16       50.802360     50.800366   0.000000   0.000000
   17       50.802360     50.800366   0.000000   0.000000
   18       53.924497     53.923099   0.000000   0.000000
   19       55.186070     55.184508   0.000000   0.000000
   20       55.186070     55.184508   0.000000   0.000000
   21       55.821909     55.821729   0.000000   0.000000
   22       57.730675     57.728376   0.000000   0.000000
   23       57.730675     57.728377   0.000000   0.000000
   24       57.863147     57.861858   0.000000   0.000000
   25       61.344443     61.342929   0.000000   0.000000
   26       63.142705     63.141227   0.000000   0.000000
   27       64.250642     64.249772   0.000000   0.000000
   28       64.250642     64.249773   0.000000   0.000000
   29       69.032243     69.026628   0.000000   0.000000
   30       73.590696     73.590492   0.000000   0.000000
   31       73.590696     73.590492   0.000000   0.000000
   32       75.439502     75.439514   0.000000   0.000000
   33       75.439502     75.439514   0.000000   0.000000
   34       76.202978     76.203773   0.000000   0.000000
   35       76.901685     76.900055   0.000000   0.000000
   36       80.543029     80.542779   0.000000   0.000000
   37       80.543029     80.542781   0.000000   0.000000
   38       88.623334     88.619201   0.000000   0.000000
   39       88.866563     88.864882   0.000000   0.000000
   40       88.866563     88.864884   0.000000   0.000000
   41       89.100184     89.101202   0.000000   0.000000
   42       94.172299     94.172204   0.000000   0.000000
   43       95.302263     95.300723   0.000000   0.000000
   44       95.302264     95.300724   0.000000   0.000000
   45      101.284928    101.284410   0.000000   0.000000
   46      101.284929    101.284410   0.000000   0.000000
   47      105.641185    105.638723   0.000000   0.000000
   48      105.641186    105.638724   0.000000   0.000000

  0.6666667E-01  0.6666667E-01  0.1262379E-14  0.1777778E-02
    1       -2.991261     -2.992634   1.000000   1.000000
    2       19.229944     19.227881   0.000000   0.000000
    3       19.229944     19.227881   0.000000   0.000000
    4       19.524646     19.524021   0.000000   0.000000
    5       21.615810     21.610836   0.000000   0.000000
    6       23.538996     23.534976   0.000000   0.000000
    7       23.538996     23.534977   0.000000   0.000000
    8       25.460282     25.457716   0.000000   0.000000
    9       25.712383     25.712587   0.000000   0.000000
   10       27.463047     27.459575   0.000000   0.000000
   11       30.277089     30.274413   0.000000   0.000000
   12       32.694814     32.694347   0.000000   0.000000
   13       32.694815     32.694347   0.000000   0.000000
   14       34.537684     34.536203   0.000000   0.000000
   15       41.749758     41.747419   0.000000   0.000000
   16       55.607916     55.607380   0.000000   0.000000
   17       55.670466     55.668986   0.000000   0.000000
   18       55.670466     55.668986   0.000000   0.000000
   19       56.417531     56.416605   0.000000   0.000000
   20       57.986085     57.983533   0.000000   0.000000
   21       57.986085     57.983533   0.000000   0.000000
   22       59.319056     59.316490   0.000000   0.000000
   23       59.370512     59.369224   0.000000   0.000000
   24       62.808179     62.808077   0.000000   0.000000
   25       66.579478     66.576069   0.000000   0.000000
   26       66.579478     66.576069   0.000000   0.000000
   27       68.753552     68.751255   0.000000   0.000000
   28       71.462015     71.460964   0.000000   0.000000
   29       73.323553     73.322853   0.000000   0.000000
   30       73.323553     73.322854   0.000000   0.000000
   31       81.256278     81.254711   0.000000   0.000000
   32       82.778442     82.776829   0.000000   0.000000
   33       83.137786     83.136766   0.000000   0.000000
   34       84.465227     84.463339   0.000000   0.000000
   35       84.465228     84.463340   0.000000   0.000000
   36       84.915574     84.912917   0.000000   0.000000
   37       89.886972     89.884951   0.000000   0.000000
   38       89.886972     89.884951   0.000000   0.000000
   39       90.216568     90.218606   0.000000   0.000000
   40       90.876912     90.875195   0.000000   0.000000
   41       90.876913     90.875195   0.000000   0.000000
   42       91.924086     91.918802   0.000000   0.000000
   43       92.768503     92.766478   0.000000   0.000000
   44       93.628214     93.624275   0.000000   0.000000
   45       94.200454     94.200670   0.000000   0.000000
   46       96.963099     96.961231   0.000000   0.000000
   47       96.963099     96.961231   0.000000   0.000000
   48       98.605567     98.606497   0.000000   0.000000

  0.1333333E+00  0.6666667E-01  0.1264548E-14  0.7111111E-02
    1       -2.710775     -2.712149   1.000000   1.000000
    2       16.842008     16.840406   0.000000   0.000000
    3       18.482939     18.480747   0.000000   0.000000
    4       19.594074     19.592601   0.000000   0.000000
    5       21.857070     21.852320   0.000000   0.000000
    6       23.860714     23.858427   0.000000   0.000000
    7       23.965767     23.962805   0.000000   0.000000
    8       24.664165     24.660017   0.000000   0.000000
    9       26.992761     26.989815   0.000000   0.000000
   10       27.714428     27.713739   0.000000   0.000000
   11       29.925956     29.923661   0.000000   0.000000
   12       33.777885     33.777070   0.000000   0.000000
   13       33.812280     33.811287   0.000000   0.000000
   14       36.213037     36.211124   0.000000   0.000000
   15       42.882025     42.879882   0.000000   0.000000
   16       54.074128     54.072181   0.000000   0.000000
   17       54.448335     54.446863   0.000000   0.000000
   18       55.648324     55.647275   0.000000   0.000000
   19       56.156213     56.155098   0.000000   0.000000
   20       56.614776     56.613188   0.000000   0.000000
   21       56.988836     56.986965   0.000000   0.000000
   22       58.902485     58.900671   0.000000   0.000000
   23       59.341030     59.338557   0.000000   0.000000
   24       62.312740     62.312198   0.000000   0.000000
   25       67.260665     67.257382   0.000000   0.000000
   26       68.546323     68.544020   0.000000   0.000000
   27       70.517315     70.515541   0.000000   0.000000
   28       71.459304     71.457311   0.000000   0.000000
   29       72.879486     72.878558   0.000000   0.000000
   30       73.571699     73.570844   0.000000   0.000000
   31       79.793134     79.791178   0.000000   0.000000
   32       80.900343     80.897747   0.000000   0.000000
   33       81.853963     81.851066   0.000000   0.000000
   34       83.250832     83.249712   0.000000   0.000000
   35       83.564833     83.563241   0.000000   0.000000
   36       84.480544     84.479648   0.000000   0.000000
   37       86.973589     86.973895   0.000000   0.000000
   38       87.728630     87.727140   0.000000   0.000000
   39       89.130448     89.128325   0.000000   0.000000
   40       89.289929     89.289032   0.000000   0.000000
   41       91.453809     91.453246   0.000000   0.000000
   42       92.931852     92.932222   0.000000   0.000000
   43       93.282716     93.278847   0.000000   0.000000
   44       93.701373     93.700130   0.000000   0.000000
   45       94.469011     94.467049   0.000000   0.000000
   46       95.456755     95.454800   0.000000   0.000000
   47       97.437294     97.437416   0.000000   0.000000
   48       97.782674     97.782026   0.000000   0.000000

  0.2000000E+00  0.6666667E-01  0.1259390E-14  0.7111111E-02
    1       -2.191336     -2.192709   1.000000   1.000000
    2       14.206778     14.205217   0.000000   0.000000
    3       17.923246     17.920997   0.000000   0.000000
    4       19.294522     19.292553   0.000000   0.000000
    5       22.092317     22.088622   0.000000   0.000000
    6       23.253362     23.250630   0.000000   0.000000
    7       23.828409     23.825945   0.000000   0.000000
    8       25.176263     25.172149   0.000000   0.000000
    9       26.694420     26.691818   0.000000   0.000000
   10       28.839224     28.837031   0.000000   0.000000
   11       30.299318     30.298286   0.000000   0.000000
   12       35.943107     35.941807   0.000000   0.000000
   13       36.127498     36.125940   0.000000   0.000000
   14       38.342252     38.340011   0.000000   0.000000
   15       44.652162     44.650285   0.000000   0.000000
   16       50.752683     50.750801   0.000000   0.000000
   17       52.076901     52.075008   0.000000   0.000000
   18       54.672713     54.671565   0.000000   0.000000
   19       55.747384     55.746502   0.000000   0.000000
   20       56.350836     56.349409   0.000000   0.000000
   21       56.935390     56.933905   0.000000   0.000000
   22       59.088078     59.085881   0.000000   0.000000