 running on    4 total cores
 distrk:  each k-point on    4 cores,    1 groups
 distr:  one band on    1 cores,    4 groups
 vasp.6.2.1 16May21 (build Aug 15 2022 14:47:30) complex                         
 POSCAR found type information on POSCAR Cu
 POSCAR found :  1 types and       4 ions
 scaLAPACK will be used
 LDA part: xc-table for Pade appr. of Perdew
 POSCAR found type information on POSCAR Cu
 POSCAR found :  1 types and       4 ions
 POSCAR, INCAR and KPOINTS ok, starting setup
 FFT: planning ...
 WAVECAR not read
 entering main loop
       N       E                     dE             d eps       ncg     rms          rms(c)
DAV:   1     0.905420546017E+03    0.90542E+03   -0.46638E+04 18008   0.274E+03
DAV:   2     0.383892339037E+02   -0.86703E+03   -0.84705E+03 15992   0.760E+02
DAV:   3    -0.184158173161E+02   -0.56805E+02   -0.54834E+02 17152   0.217E+02
DAV:   4    -0.197634272429E+02   -0.13476E+01   -0.13334E+01 17128   0.330E+01
DAV:   5    -0.198048053080E+02   -0.41378E-01   -0.41377E-01 19368   0.548E+00    0.161E+01
RMM:   6    -0.177801632097E+02    0.20246E+01   -0.36104E+01 16019   0.606E+01    0.103E+01
RMM:   7    -0.163609156304E+02    0.14192E+01   -0.65166E+00 15713   0.280E+01    0.121E+00
RMM:   8    -0.163239414579E+02    0.36974E-01   -0.65879E-02 16469   0.301E+00    0.323E-01
RMM:   9    -0.163232672653E+02    0.67419E-03   -0.13684E-02 16819   0.958E-01    0.940E-02
RMM:  10    -0.163235198112E+02   -0.25255E-03   -0.29543E-03 17060   0.646E-01    0.664E-02
RMM:  11    -0.163235368027E+02   -0.16992E-04   -0.99191E-04 18036   0.256E-01    0.199E-02
RMM:  12    -0.163235566769E+02   -0.19874E-04   -0.24852E-04 20033   0.144E-01    0.703E-03
RMM:  13    -0.163235642322E+02   -0.75553E-05   -0.61183E-05 21304   0.502E-02    0.239E-03
RMM:  14    -0.163235658934E+02   -0.16611E-05   -0.90985E-06 22157   0.219E-02    0.100E-03
RMM:  15    -0.163235660154E+02   -0.12202E-06   -0.13112E-06 22253   0.767E-03    0.124E-04
RMM:  16    -0.163235660585E+02   -0.43117E-07   -0.15444E-07 16950   0.295E-03    0.329E-04
RMM:  17    -0.163235660195E+02    0.38985E-07   -0.20049E-08  9442   0.139E-03    0.170E-05
RMM:  18    -0.163235660223E+02   -0.28158E-08   -0.56263E-09  8641   0.691E-04
   1 F= -.16323566E+02 E0= -.16324478E+02  d E =0.273567E-02
