   1   1   1   0
  0.1658294E+02  0.2862368E-09  0.2862368E-09  0.2862368E-09  0.5000000E-15
   1.0000000000000000E-004
  CAR 
 unknown system                          
    117.12208914     -8.88041715  301      7.99045122      1.00000000
     -8.880  0.0000E+00  0.0000E+00  0.0000E+00  0.0000E+00
     -8.460  0.0000E+00  0.0000E+00  0.0000E+00  0.0000E+00
     -8.040  0.0000E+00  0.0000E+00  0.0000E+00  0.0000E+00
     -7.620  0.0000E+00  0.0000E+00  0.0000E+00  0.0000E+00
     -7.200  0.0000E+00  0.0000E+00  0.0000E+00  0.0000E+00
     -6.780  0.0000E+00  0.0000E+00  0.0000E+00  0.0000E+00
     -6.360  0.0000E+00  0.0000E+00  0.0000E+00  0.0000E+00
     -5.940  0.0000E+00  0.0000E+00  0.0000E+00  0.0000E+00
     -5.520  0.0000E+00  0.0000E+00  0.0000E+00  0.0000E+00
     -5.100  0.0000E+00  0.0000E+00  0.0000E+00  0.0000E+00
     -4.680  0.0000E+00  0.0000E+00  0.0000E+00  0.0000E+00
     -4.260  0.0000E+00  0.0000E+00  0.0000E+00  0.0000E+00
     -3.840  0.0000E+00  0.0000E+00  0.0000E+00  0.0000E+00
     -3.420  0.0000E+00  0.0000E+00  0.0000E+00  0.0000E+00
     -3.000  0.2101E-01  0.2111E-01  0.1572E-02  0.1596E-02
     -2.580  0.4255E-01  0.4262E-01  0.1514E-01  0.1520E-01
     -2.160  0.5676E-01  0.5681E-01  0.3621E-01  0.3628E-01
     -1.740  0.6838E-01  0.6841E-01  0.6276E-01  0.6285E-01
     -1.320  0.7922E-01  0.7924E-01  0.9380E-01  0.9390E-01
     -0.900  0.8764E-01  0.8767E-01  0.1288E+00  0.1289E+00
     -0.480  0.9633E-01  0.9635E-01  0.1675E+00  0.1676E+00
     -0.060  0.1037E+00  0.1038E+00  0.2095E+00  0.2096E+00
      0.360  0.1116E+00  0.1116E+00  0.2548E+00  0.2549E+00
      0.780  0.1181E+00  0.1181E+00  0.3030E+00  0.3031E+00
      1.200  0.1252E+00  0.1253E+00  0.3540E+00  0.3542E+00
      1.620  0.1315E+00  0.1315E+00  0.4080E+00  0.4082E+00
      2.040  0.1378E+00  0.1378E+00  0.4646E+00  0.4647E+00
      2.460  0.1449E+00  0.1449E+00  0.5239E+00  0.5241E+00
      2.880  0.1575E+00  0.1575E+00  0.5868E+00  0.5870E+00
      3.300  0.1682E+00  0.1682E+00  0.6562E+00  0.6564E+00
      3.720  0.1475E+00  0.1475E+00  0.7234E+00  0.7236E+00
      4.140  0.1745E+00  0.1745E+00  0.7885E+00  0.7887E+00
      4.560  0.1763E+00  0.1763E+00  0.8603E+00  0.8606E+00
      4.980  0.1980E+00  0.1980E+00  0.9394E+00  0.9397E+00
      5.400  0.2008E+00  0.2009E+00  0.1021E+01  0.1022E+01
      5.820  0.1717E+00  0.1716E+00  0.1100E+01  0.1101E+01
      6.240  0.1512E+00  0.1511E+00  0.1168E+01  0.1168E+01
      6.660  0.1981E+00  0.1984E+00  0.1237E+01  0.1237E+01
      7.080  0.2164E+00  0.2164E+00  0.1324E+01  0.1325E+01
      7.500  0.1960E+00  0.1958E+00  0.1414E+01  0.1414E+01
      7.920  0.1724E+00  0.1726E+00  0.1488E+01  0.1488E+01
      8.340  0.2159E+00  0.2162E+00  0.1568E+01  0.1569E+01
      8.760  0.2187E+00  0.2186E+00  0.1665E+01  0.1665E+01
      9.180  0.2062E+00  0.2063E+00  0.1753E+01  0.1754E+01
      9.600  0.2126E+00  0.2126E+00  0.1841E+01  0.1842E+01
     10.020  0.2284E+00  0.2283E+00  0.1934E+01  0.1935E+01
     10.440  0.2319E+00  0.2319E+00  0.2031E+01  0.2031E+01
     10.860  0.2280E+00  0.2280E+00  0.2128E+01  0.2128E+01
     11.280  0.2364E+00  0.2364E+00  0.2226E+01  0.2226E+01
     11.700  0.2466E+00  0.2466E+00  0.2328E+01  0.2328E+01
     12.120  0.2464E+00  0.2465E+00  0.2431E+01  0.2432E+01
     12.540  0.2621E+00  0.2624E+00  0.2538E+01  0.2538E+01
     12.960  0.2695E+00  0.2695E+00  0.2650E+01  0.2650E+01
     13.380  0.2912E+00  0.2914E+00  0.2767E+01  0.2767E+01
     13.800  0.3025E+00  0.3025E+00  0.2894E+01  0.2894E+01
     14.220  0.2825E+00  0.2825E+00  0.3015E+01  0.3016E+01
     14.640  0.2677E+00  0.2677E+00  0.3131E+01  0.3132E+01
     15.060  0.2670E+00  0.2670E+00  0.3244E+01  0.3244E+01
     15.480  0.2630E+00  0.2630E+00  0.3355E+01  0.3355E+01
     15.900  0.2622E+00  0.2623E+00  0.3465E+01  0.3465E+01
     16.320  0.2651E+00  0.2650E+00  0.3576E+01  0.3577E+01
     16.740  0.2626E+00  0.2626E+00  0.3687E+01  0.3687E+01
     17.160  0.2663E+00  0.2664E+00  0.3797E+01  0.3798E+01
     17.580  0.2734E+00  0.2735E+00  0.3911E+01  0.3911E+01
     18.000  0.2770E+00  0.2771E+00  0.4027E+01  0.4027E+01
     18.420  0.2850E+00  0.2851E+00  0.4144E+01  0.4145E+01
     18.840  0.3099E+00  0.3101E+00  0.4268E+01  0.4269E+01
     19.260  0.3221E+00  0.3223E+00  0.4401E+01  0.4402E+01
     19.680  0.3711E+00  0.3714E+00  0.4546E+01  0.4546E+01
     20.100  0.3974E+00  0.3967E+00  0.4711E+01  0.4712E+01
     20.520  0.3048E+00  0.3049E+00  0.4852E+01  0.4853E+01
     20.940  0.3029E+00  0.3028E+00  0.4986E+01  0.4987E+01
     21.360  0.2849E+00  0.2849E+00  0.5106E+01  0.5107E+01
     21.780  0.2844E+00  0.2842E+00  0.5223E+01  0.5224E+01
     22.200  0.2954E+00  0.2955E+00  0.5344E+01  0.5344E+01
     22.620  0.3609E+00  0.3612E+00  0.5476E+01  0.5477E+01
     23.040  0.4070E+00  0.4071E+00  0.5645E+01  0.5646E+01
     23.460  0.3264E+00  0.3257E+00  0.5799E+01  0.5800E+01
     23.880  0.3029E+00  0.3052E+00  0.5918E+01  0.5918E+01
     24.300  0.3010E+00  0.3006E+00  0.6062E+01  0.6062E+01
     24.720  0.3611E+00  0.3625E+00  0.6188E+01  0.6189E+01
     25.140  0.3970E+00  0.3966E+00  0.6358E+01  0.6360E+01
     25.560  0.3783E+00  0.3783E+00  0.6519E+01  0.6520E+01
     25.980  0.3951E+00  0.3947E+00  0.6681E+01  0.6682E+01
     26.400  0.4209E+00  0.4195E+00  0.6846E+01  0.6847E+01
     26.820  0.3344E+00  0.3345E+00  0.6997E+01  0.6998E+01
     27.240  0.3630E+00  0.3636E+00  0.7142E+01  0.7143E+01
     27.660  0.3139E+00  0.3138E+00  0.7289E+01  0.7290E+01
     28.080  0.3452E+00  0.3450E+00  0.7427E+01  0.7428E+01
     28.500  0.4180E+00  0.4189E+00  0.7583E+01  0.7584E+01
     28.920  0.4323E+00  0.4315E+00  0.7769E+01  0.7771E+01
     29.340  0.3694E+00  0.3702E+00  0.7926E+01  0.7928E+01
     29.760  0.4280E+00  0.4328E+00  0.8101E+01  0.8102E+01
     30.180  0.3952E+00  0.3946E+00  0.8281E+01  0.8282E+01
     30.600  0.3610E+00  0.3612E+00  0.8436E+01  0.8437E+01
     31.020  0.3943E+00  0.3945E+00  0.8595E+01  0.8596E+01
     31.440  0.4601E+00  0.4607E+00  0.8772E+01  0.8774E+01
     31.860  0.4395E+00  0.4391E+00  0.8965E+01  0.8967E+01
     32.280  0.4164E+00  0.4166E+00  0.9143E+01  0.9144E+01
     32.700  0.4043E+00  0.4063E+00  0.9320E+01  0.9321E+01
     33.120  0.3580E+00  0.3577E+00  0.9479E+01  0.9480E+01
     33.540  0.3249E+00  0.3244E+00  0.9621E+01  0.9622E+01
     33.960  0.2951E+00  0.2944E+00  0.9748E+01  0.9749E+01
     34.380  0.2778E+00  0.2768E+00  0.9867E+01  0.9867E+01
     34.800  0.1761E+00  0.1753E+00  0.9960E+01  0.9960E+01
     35.220  0.1662E+00  0.1662E+00  0.1003E+02  0.1003E+02
     35.640  0.1761E+00  0.1761E+00  0.1010E+02  0.1010E+02
     36.060  0.2047E+00  0.2045E+00  0.1018E+02  0.1018E+02
     36.480  0.2557E+00  0.2556E+00  0.1027E+02  0.1027E+02
     36.900  0.2582E+00  0.2582E+00  0.1038E+02  0.1038E+02
     37.321  0.2763E+00  0.2764E+00  0.1049E+02  0.1049E+02
     37.741  0.2934E+00  0.2934E+00  0.1061E+02  0.1061E+02
     38.161  0.3165E+00  0.3167E+00  0.1074E+02  0.1074E+02
     38.581  0.3598E+00  0.3597E+00  0.1088E+02  0.1088E+02
     39.001  0.3289E+00  0.3290E+00  0.1102E+02  0.1102E+02
     39.421  0.3741E+00  0.3743E+00  0.1116E+02  0.1117E+02
     39.841  0.5510E+00  0.5519E+00  0.1135E+02  0.1136E+02
     40.261  0.5065E+00  0.5058E+00  0.1159E+02  0.1159E+02
     40.681  0.4452E+00  0.4455E+00  0.1178E+02  0.1178E+02
     41.101  0.5486E+00  0.5489E+00  0.1199E+02  0.1199E+02
     41.521  0.5360E+00  0.5355E+00  0.1222E+02  0.1222E+02
     41.941  0.4553E+00  0.4558E+00  0.1241E+02  0.1241E+02
     42.361  0.4202E+00  0.4206E+00  0.1259E+02  0.1259E+02
     42.781  0.5242E+00  0.5253E+00  0.1278E+02  0.1278E+02
     43.201  0.5213E+00  0.5218E+00  0.1301E+02  0.1301E+02
     43.621  0.5506E+00  0.5502E+00  0.1324E+02  0.1324E+02
     44.041  0.4108E+00  0.4107E+00  0.1343E+02  0.1343E+02
     44.461  0.4053E+00  0.4053E+00  0.1361E+02  0.1361E+02
     44.881  0.3879E+00  0.3879E+00  0.1377E+02  0.1377E+02
     45.301  0.4516E+00  0.4518E+00  0.1394E+02  0.1395E+02
     45.721  0.5224E+00  0.5229E+00  0.1414E+02  0.1414E+02
     46.141  0.5367E+00  0.5364E+00  0.1437E+02  0.1437E+02
     46.561  0.4854E+00  0.4848E+00  0.1459E+02  0.1459E+02
     46.981  0.4285E+00  0.4281E+00  0.1478E+02  0.1478E+02
     47.401  0.4452E+00  0.4454E+00  0.1496E+02  0.1496E+02
     47.821  0.4252E+00  0.4252E+00  0.1514E+02  0.1514E+02
     48.241  0.4650E+00  0.4653E+00  0.1533E+02  0.1533E+02
     48.661  0.5137E+00  0.5135E+00  0.1553E+02  0.1553E+02
     49.081  0.5440E+00  0.5446E+00  0.1575E+02  0.1575E+02
     49.501  0.4430E+00  0.4428E+00  0.1596E+02  0.1596E+02
     49.921  0.4286E+00  0.4297E+00  0.1613E+02  0.1613E+02
     50.341  0.3570E+00  0.3563E+00  0.1631E+02  0.1631E+02
     50.761  0.4004E+00  0.4007E+00  0.1646E+02  0.1646E+02
     51.181  0.5765E+00  0.5768E+00  0.1666E+02  0.1666E+02
     51.601  0.6106E+00  0.6099E+00  0.1691E+02  0.1691E+02
     52.021  0.4497E+00  0.4495E+00  0.1713E+02  0.1714E+02
     52.441  0.4032E+00  0.4031E+00  0.1731E+02  0.1731E+02
     52.861  0.5649E+00  0.5649E+00  0.1752E+02  0.1752E+02
     53.281  0.7299E+00  0.7297E+00  0.1780E+02  0.1780E+02
     53.701  0.8091E+00  0.8098E+00  0.1809E+02  0.1809E+02
     54.121  0.8859E+00  0.8860E+00  0.1845E+02  0.1845E+02
     54.541  0.8945E+00  0.8942E+00  0.1887E+02  0.1887E+02
     54.961  0.1334E+01  0.1335E+01  0.1927E+02  0.1928E+02
     55.381  0.1243E+01  0.1244E+01  0.1974E+02  0.1974E+02
     55.801  0.1357E+01  0.1358E+01  0.2022E+02  0.2022E+02
     56.221  0.1482E+01  0.1481E+01  0.2083E+02  0.2083E+02
     56.641  0.1077E+01  0.1080E+01  0.2128E+02  0.2128E+02
     57.061  0.1197E+01  0.1188E+01  0.2179E+02  0.2179E+02
     57.481  0.9702E+00  0.9646E+00  0.2215E+02  0.2215E+02
     57.901  0.6687E+00  0.6680E+00  0.2247E+02  0.2247E+02
     58.321  0.5425E+00  0.5426E+00  0.2271E+02  0.2271E+02
     58.741  0.6940E+00  0.6960E+00  0.2296E+02  0.2296E+02
     59.161  0.1052E+01  0.1053E+01  0.2332E+02  0.2332E+02
     59.581  0.8242E+00  0.8224E+00  0.2372E+02  0.2372E+02
     60.001  0.5545E+00  0.5536E+00  0.2397E+02  0.2397E+02
     60.421  0.6590E+00  0.6548E+00  0.2420E+02  0.2421E+02
     60.841  0.5528E+00  0.5521E+00  0.2445E+02  0.2445E+02
     61.261  0.5682E+00  0.5683E+00  0.2468E+02  0.2468E+02
     61.681  0.6946E+00  0.6957E+00  0.2494E+02  0.2494E+02
     62.101  0.5759E+00  0.5757E+00  0.2522E+02  0.2522E+02
     62.521  0.4751E+00  0.4749E+00  0.2544E+02  0.2544E+02
     62.941  0.6180E+00  0.6180E+00  0.2566E+02  0.2566E+02
     63.361  0.5700E+00  0.5697E+00  0.2590E+02  0.2590E+02
     63.781  0.4707E+00  0.4705E+00  0.2612E+02  0.2612E+02
     64.201  0.4894E+00  0.4895E+00  0.2632E+02  0.2632E+02
     64.621  0.5426E+00  0.5430E+00  0.2653E+02  0.2653E+02
     65.041  0.5204E+00  0.5199E+00  0.2676E+02  0.2676E+02
     65.461  0.4837E+00  0.4839E+00  0.2696E+02  0.2696E+02
     65.881  0.4865E+00  0.4865E+00  0.2716E+02  0.2716E+02
     66.301  0.4682E+00  0.4678E+00  0.2737E+02  0.2737E+02
     66.721  0.4752E+00  0.4752E+00  0.2756E+02  0.2756E+02
     67.141  0.4382E+00  0.4384E+00  0.2775E+02  0.2775E+02
     67.561  0.4481E+00  0.4478E+00  0.2794E+02  0.2794E+02
     67.981  0.5057E+00  0.5060E+00  0.2814E+02  0.2814E+02
     68.401  0.4438E+00  0.4438E+00  0.2834E+02  0.2834E+02
     68.821  0.4415E+00  0.4415E+00  0.2853E+02  0.2853E+02
     69.241  0.4494E+00  0.4493E+00  0.2871E+02  0.2871E+02
     69.661  0.4501E+00  0.4494E+00  0.2891E+02  0.2891E+02
     70.081  0.4239E+00  0.4241E+00  0.2908E+02  0.2908E+02
     70.501  0.4706E+00  0.4700E+00  0.2928E+02  0.2928E+02
     70.921  0.4400E+00  0.4401E+00  0.2947E+02  0.2947E+02
     71.341  0.4933E+00  0.4934E+00  0.2966E+02  0.2966E+02
     71.761  0.6427E+00  0.6430E+00  0.2990E+02  0.2990E+02
     72.181  0.5435E+00  0.5435E+00  0.3014E+02  0.3015E+02
     72.601  0.5648E+00  0.5660E+00  0.3037E+02  0.3037E+02
     73.021  0.4627E+00  0.4622E+00  0.3060E+02  0.3060E+02
     73.441  0.4029E+00  0.4029E+00  0.3078E+02  0.3078E+02
     73.861  0.3853E+00  0.3853E+00  0.3094E+02  0.3094E+02
     74.281  0.4172E+00  0.4172E+00  0.3111E+02  0.3111E+02
     74.701  0.4362E+00  0.4364E+00  0.3129E+02  0.3129E+02
     75.121  0.4475E+00  0.4477E+00  0.3148E+02  0.3148E+02
     75.541  0.4740E+00  0.4743E+00  0.3167E+02  0.3167E+02
     75.961  0.4578E+00  0.4580E+00  0.3186E+02  0.3186E+02
     76.381  0.4998E+00  0.4998E+00  0.3207E+02  0.3207E+02
     76.801  0.5273E+00  0.5277E+00  0.3229E+02  0.3229E+02
     77.221  0.5248E+00  0.5241E+00  0.3250E+02  0.3250E+02
     77.641  0.5227E+00  0.5233E+00  0.3271E+02  0.3271E+02
     78.061  0.6251E+00  0.6226E+00  0.3295E+02  0.3295E+02
     78.481  0.6071E+00  0.6075E+00  0.3321E+02  0.3321E+02
     78.901  0.6722E+00  0.6708E+00  0.3350E+02  0.3350E+02
     79.321  0.3517E+00  0.3514E+00  0.3371E+02  0.3371E+02
     79.741  0.5799E+00  0.5810E+00  0.3389E+02  0.3389E+02
     80.161  0.7951E+00  0.7944E+00  0.3419E+02  0.3419E+02
     80.581  0.5636E+00  0.5629E+00  0.3446E+02  0.3447E+02
     81.001  0.5310E+00  0.5313E+00  0.3469E+02  0.3469E+02
     81.421  0.5713E+00  0.5712E+00  0.3492E+02  0.3492E+02
     81.841  0.5847E+00  0.5848E+00  0.3516E+02  0.3517E+02
     82.261  0.5525E+00  0.5523E+00  0.3541E+02  0.3541E+02
     82.681  0.4800E+00  0.4798E+00  0.3562E+02  0.3562E+02
     83.101  0.4455E+00  0.4462E+00  0.3581E+02  0.3581E+02
     83.521  0.4855E+00  0.4860E+00  0.3600E+02  0.3600E+02
     83.941  0.5701E+00  0.5705E+00  0.3623E+02  0.3623E+02
     84.361  0.6109E+00  0.6107E+00  0.3648E+02  0.3648E+02
     84.781  0.5065E+00  0.5069E+00  0.3670E+02  0.3670E+02
     85.201  0.5741E+00  0.5743E+00  0.3693E+02  0.3693E+02
     85.621  0.5118E+00  0.5114E+00  0.3717E+02  0.3717E+02
     86.041  0.4872E+00  0.4873E+00  0.3737E+02  0.3737E+02
     86.461  0.4797E+00  0.4796E+00  0.3758E+02  0.3758E+02
     86.881  0.4599E+00  0.4600E+00  0.3778E+02  0.3778E+02
     87.301  0.6217E+00  0.6218E+00  0.3800E+02  0.3800E+02
     87.722  0.6188E+00  0.6192E+00  0.3826E+02  0.3826E+02
     88.142  0.5546E+00  0.5546E+00  0.3851E+02  0.3851E+02
     88.562  0.6103E+00  0.6108E+00  0.3875E+02  0.3875E+02
     88.982  0.7187E+00  0.7180E+00  0.3903E+02  0.3903E+02
     89.402  0.6538E+00  0.6540E+00  0.3930E+02  0.3930E+02
     89.822  0.5342E+00  0.5339E+00  0.3957E+02  0.3957E+02
     90.242  0.4461E+00  0.4463E+00  0.3976E+02  0.3976E+02
     90.662  0.4581E+00  0.4583E+00  0.3995E+02  0.3995E+02
     91.082  0.5791E+00  0.5789E+00  0.4017E+02  0.4017E+02
     91.502  0.4777E+00  0.4775E+00  0.4039E+02  0.4039E+02
     91.922  0.4729E+00  0.4729E+00  0.4059E+02  0.4059E+02
     92.342  0.5751E+00  0.5753E+00  0.4080E+02  0.4080E+02
     92.762  0.6712E+00  0.6705E+00  0.4107E+02  0.4107E+02
     93.182  0.5322E+00  0.5321E+00  0.4131E+02  0.4131E+02
     93.602  0.5287E+00  0.5290E+00  0.4153E+02  0.4153E+02
     94.022  0.5440E+00  0.5441E+00  0.4175E+02  0.4175E+02
     94.442  0.6158E+00  0.6156E+00  0.4200E+02  0.4200E+02
     94.862  0.6271E+00  0.6273E+00  0.4225E+02  0.4225E+02
     95.282  0.7100E+00  0.7106E+00  0.4253E+02  0.4253E+02
     95.702  0.7051E+00  0.7049E+00  0.4283E+02  0.4283E+02
     96.122  0.6427E+00  0.6422E+00  0.4311E+02  0.4311E+02
     96.542  0.5108E+00  0.5108E+00  0.4335E+02  0.4335E+02
     96.962  0.5360E+00  0.5358E+00  0.4358E+02  0.4358E+02
     97.382  0.5309E+00  0.5305E+00  0.4379E+02  0.4379E+02
     97.802  0.5056E+00  0.5056E+00  0.4401E+02  0.4401E+02
     98.222  0.5534E+00  0.5542E+00  0.4422E+02  0.4422E+02
     98.642  0.5299E+00  0.5300E+00  0.4445E+02  0.4445E+02
     99.062  0.5076E+00  0.5077E+00  0.4467E+02  0.4467E+02
     99.482  0.5500E+00  0.5503E+00  0.4488E+02  0.4488E+02
     99.902  0.6234E+00  0.6235E+00  0.4512E+02  0.4512E+02
    100.322  0.6932E+00  0.6933E+00  0.4540E+02  0.4540E+02
    100.742  0.7776E+00  0.7784E+00  0.4570E+02  0.4570E+02
    101.162  0.5572E+00  0.5569E+00  0.4596E+02  0.4596E+02
    101.582  0.5644E+00  0.5642E+00  0.4619E+02  0.4619E+02
    102.002  0.4930E+00  0.4930E+00  0.4640E+02  0.4640E+02
    102.422  0.5197E+00  0.5196E+00  0.4663E+02  0.4663E+02
    102.842  0.4816E+00  0.4815E+00  0.4682E+02  0.4682E+02
    103.262  0.5355E+00  0.5357E+00  0.4703E+02  0.4704E+02
    103.682  0.4172E+00  0.4217E+00  0.4723E+02  0.4723E+02
    104.102  0.3609E+00  0.3613E+00  0.4740E+02  0.4740E+02
    104.522  0.2906E+00  0.2905E+00  0.4754E+02  0.4754E+02
    104.942  0.2534E+00  0.2533E+00  0.4765E+02  0.4765E+02
    105.362  0.2552E+00  0.2547E+00  0.4775E+02  0.4775E+02
    105.782  0.2153E+00  0.2149E+00  0.4785E+02  0.4785E+02
    106.202  0.1587E+00  0.1581E+00  0.4793E+02  0.4793E+02
    106.622  0.2683E-01  0.2672E-01  0.4796E+02  0.4796E+02
    107.042  0.1963E-01  0.1959E-01  0.4797E+02  0.4797E+02
    107.462  0.1238E-01  0.1238E-01  0.4798E+02  0.4798E+02
    107.882  0.1018E-01  0.1018E-01  0.4798E+02  0.4798E+02
    108.302  0.8745E-02  0.8746E-02  0.4799E+02  0.4799E+02
    108.722  0.8058E-02  0.8063E-02  0.4799E+02  0.4799E+02
    109.142  0.7365E-02  0.7362E-02  0.4799E+02  0.4799E+02
    109.562  0.6083E-02  0.6073E-02  0.4800E+02  0.4800E+02
    109.982  0.2138E-02  0.2069E-02  0.4800E+02  0.4800E+02
    110.402  0.9921E-03  0.9796E-03  0.4800E+02  0.4800E+02
    110.822  0.3302E-03  0.3192E-03  0.4800E+02  0.4800E+02
    111.242  0.2348E-04  0.1968E-04  0.4800E+02  0.4800E+02
    111.662  0.0000E+00  0.0000E+00  0.4800E+02  0.4800E+02
    112.082  0.0000E+00  0.0000E+00  0.4800E+02  0.4800E+02
    112.502  0.0000E+00  0.0000E+00  0.4800E+02  0.4800E+02
    112.922  0.0000E+00  0.0000E+00  0.4800E+02  0.4800E+02
    113.342  0.0000E+00  0.0000E+00  0.4800E+02  0.4800E+02
    113.762  0.0000E+00  0.0000E+00  0.4800E+02  0.4800E+02
    114.182  0.0000E+00  0.0000E+00  0.4800E+02  0.4800E+02
    114.602  0.0000E+00  0.0000E+00  0.4800E+02  0.4800E+02
    115.022  0.0000E+00  0.0000E+00  0.4800E+02  0.4800E+02
    115.442  0.0000E+00  0.0000E+00  0.4800E+02  0.4800E+02
    115.862  0.0000E+00  0.0000E+00  0.4800E+02  0.4800E+02
    116.282  0.0000E+00  0.0000E+00  0.4800E+02  0.4800E+02
    116.702  0.0000E+00  0.0000E+00  0.4800E+02  0.4800E+02
    117.122  0.0000E+00  0.0000E+00  0.4800E+02  0.4800E+02
    117.12208914     -8.88041715  301      7.99045122      1.00000000
     -8.880  0.0000E+00  0.0000E+00  0.0000E+00  0.0000E+00  0.0000E+00  0.0000E+00  0.0000E+00  0.0000E+00  0.0000E+00  0.0000E+00  0.0000E+00  0.0000E+00  0.0000E+00  0.0000E+00  0.0000E+00  0.0000E+00  0.0000E+00  0.0000E+00
     -8.460  0.0000E+00  0.0000E+00  0.0000E+00  0.0000E+00  0.0000E+00  0.0000E+00  0.0000E+00  0.0000E+00  0.0000E+00  0.0000E+00  0.0000E+00  0.0000E+00  0.0000E+00  0.0000E+00  0.0000E+00  0.0000E+00  0.0000E+00  0.0000E+00
     -8.040  0.0000E+00  0.0000E+00  0.0000E+00  0.0000E+00  0.0000E+00  0.0000E+00  0.0000E+00  0.0000E+00  0.0000E+00  0.0000E+00  0.0000E+00  0.0000E+00  0.0000E+00  0.0000E+00  0.0000E+00  0.0000E+00  0.0000E+00  0.0000E+00
     -7.620  0.0000E+00  0.0000E+00  0.0000E+00  0.0000E+00  0.0000E+00  0.0000E+00  0.0000E+00  0.0000E+00  0.0000E+00  0.0000E+00  0.0000E+00  0.0000E+00  0.0000E+00  0.0000E+00  0.0000E+00  0.0000E+00  0.0000E+00  0.0000E+00
     -7.200  0.0000E+00  0.0000E+00  0.0000E+00  0.0000E+00  0.0000E+00  0.0000E+00  0.0000E+00  0.0000E+00  0.0000E+00  0.0000E+00  0.0000E+00  0.0000E+00  0.0000E+00  0.0000E+00  0.0000E+00  0.0000E+00  0.0000E+00  0.0000E+00
     -6.780  0.0000E+00  0.0000E+00  0.0000E+00  0.0000E+00  0.0000E+00  0.0000E+00  0.0000E+00  0.0000E+00  0.0000E+00  0.0000E+00  0.0000E+00  0.0000E+00  0.0000E+00  0.0000E+00  0.0000E+00  0.0000E+00  0.0000E+00  0.0000E+00
     -6.360  0.0000E+00  0.0000E+00  0.0000E+00  0.0000E+00  0.0000E+00  0.0000E+00  0.0000E+00  0.0000E+00  0.0000E+00  0.0000E+00  0.0000E+00  0.0000E+00  0.0000E+00  0.0000E+00  0.0000E+00  0.0000E+00  0.0000E+00  0.0000E+00
     -5.940  0.0000E+00  0.0000E+00  0.0000E+00  0.0000E+00  0.0000E+00  0.0000E+00  0.0000E+00  0.0000E+00  0.0000E+00  0.0000E+00  0.0000E+00  0.0000E+00  0.0000E+00  0.0000E+00  0.0000E+00  0.0000E+00  0.0000E+00  0.0000E+00
     -5.520  0.0000E+00  0.0000E+00  0.0000E+00  0.0000E+00  0.0000E+00  0.0000E+00  0.0000E+00  0.0000E+00  0.0000E+00  0.0000E+00  0.0000E+00  0.0000E+00  0.0000E+00  0.0000E+00  0.0000E+00  0.0000E+00  0.0000E+00  0.0000E+00
     -5.100  0.0000E+00  0.0000E+00  0.0000E+00  0.0000E+00  0.0000E+00  0.0000E+00  0.0000E+00  0.0000E+00  0.0000E+00  0.0000E+00  0.0000E+00  0.0000E+00  0.0000E+00  0.0000E+00  0.0000E+00  0.0000E+00  0.0000E+00  0.0000E+00
     -4.680  0.0000E+00  0.0000E+00  0.0000E+00  0.0000E+00  0.0000E+00  0.0000E+00  0.0000E+00  0.0000E+00  0.0000E+00  0.0000E+00  0.0000E+00  0.0000E+00  0.0000E+00  0.0000E+00  0.0000E+00  0.0000E+00  0.0000E+00  0.0000E+00
     -4.260  0.0000E+00  0.0000E+00  0.0000E+00  0.0000E+00  0.0000E+00  0.0000E+00  0.0000E+00  0.0000E+00  0.0000E+00  0.0000E+00  0.0000E+00  0.0000E+00  0.0000E+00  0.0000E+00  0.0000E+00  0.0000E+00  0.0000E+00  0.0000E+00
     -3.840  0.0000E+00  0.0000E+00  0.0000E+00  0.0000E+00  0.0000E+00  0.0000E+00  0.0000E+00  0.0000E+00  0.0000E+00  0.0000E+00  0.0000E+00  0.0000E+00  0.0000E+00  0.0000E+00  0.0000E+00  0.0000E+00  0.0000E+00  0.0000E+00
     -3.420  0.0000E+00  0.0000E+00  0.0000E+00  0.0000E+00  0.0000E+00  0.0000E+00  0.0000E+00  0.0000E+00  0.0000E+00  0.0000E+00  0.0000E+00  0.0000E+00  0.0000E+00  0.0000E+00  0.0000E+00  0.0000E+00  0.0000E+00  0.0000E+00
     -3.000  0.5583E-02  0.5612E-02  0.2525E-04  0.2554E-04  0.2525E-04  0.2554E-04  0.2525E-04  0.2554E-04  0.0000E+00  0.0000E+00  0.0000E+00  0.0000E+00  0.0000E+00  0.0000E+00  0.0000E+00  0.0000E+00  0.0000E+00  0.0000E+00
     -2.580  0.1096E-01  0.1099E-01  0.1667E-03  0.1672E-03  0.1667E-03  0.1672E-03  0.1667E-03  0.1672E-03  0.0000E+00  0.0000E+00  0.0000E+00  0.0000E+00  0.0000E+00  0.0000E+00  0.0000E+00  0.0000E+00  0.0000E+00  0.0000E+00
     -2.160  0.1415E-01  0.1417E-01  0.3819E-03  0.3827E-03  0.3819E-03  0.3827E-03  0.3819E-03  0.3827E-03  0.0000E+00  0.0000E+00  0.0000E+00  0.0000E+00  0.0000E+00  0.0000E+00  0.0000E+00  0.0000E+00  0.0000E+00  0.0000E+00
     -1.740  0.1647E-01  0.1649E-01  0.6469E-03  0.6480E-03  0.6469E-03  0.6480E-03  0.6469E-03  0.6480E-03  0.0000E+00  0.0000E+00  0.0000E+00  0.0000E+00  0.0000E+00  0.0000E+00  0.0000E+00  0.0000E+00  0.0000E+00  0.0000E+00
     -1.320  0.1849E-01  0.1850E-01  0.9417E-03  0.9431E-03  0.9417E-03  0.9431E-03  0.9417E-03  0.9431E-03  0.0000E+00  0.0000E+00  0.0000E+00  0.0000E+00  0.0000E+00  0.0000E+00  0.0000E+00  0.0000E+00  0.0000E+00  0.0000E+00
     -0.900  0.1969E-01  0.1971E-01  0.1285E-02  0.1286E-02  0.1285E-02  0.1286E-02  0.1285E-02  0.1286E-02  0.0000E+00  0.0000E+00  0.0000E+00  0.0000E+00  0.0000E+00  0.0000E+00  0.0000E+00  0.0000E+00  0.0000E+00  0.0000E+00
     -0.480  0.2090E-01  0.2091E-01  0.1647E-02  0.1649E-02  0.1647E-02  0.1649E-02  0.1647E-02  0.1649E-02  0.0000E+00  0.0000E+00  0.0000E+00  0.0000E+00  0.0000E+00  0.0000E+00  0.0000E+00  0.0000E+00  0.0000E+00  0.0000E+00
     -0.060  0.2162E-01  0.2164E-01  0.2046E-02  0.2048E-02  0.2046E-02  0.2048E-02  0.2046E-02  0.2048E-02  0.0000E+00  0.0000E+00  0.0000E+00  0.0000E+00  0.0000E+00  0.0000E+00  0.0000E+00  0.0000E+00  0.0000E+00  0.0000E+00
      0.360  0.2243E-01  0.2245E-01  0.2456E-02  0.2458E-02  0.2456E-02  0.2458E-02  0.2456E-02  0.2458E-02  0.0000E+00  0.0000E+00  0.0000E+00  0.0000E+00  0.0000E+00  0.0000E+00  0.0000E+00  0.0000E+00  0.0000E+00  0.0000E+00
      0.780  0.2268E-01  0.2270E-01  0.2912E-02  0.2914E-02  0.2912E-02  0.2914E-02  0.2912E-02  0.2914E-02  0.0000E+00  0.0000E+00  0.0000E+00  0.0000E+00  0.0000E+00  0.0000E+00  0.0000E+00  0.0000E+00  0.0000E+00  0.0000E+00
      1.200  0.2309E-01  0.2310E-01  0.3371E-02  0.3373E-02  0.3371E-02  0.3373E-02  0.3371E-02  0.3373E-02  0.0000E+00  0.0000E+00  0.0000E+00  0.0000E+00  0.0000E+00  0.0000E+00  0.0000E+00  0.0000E+00  0.0000E+00  0.0000E+00
      1.620  0.2307E-01  0.2308E-01  0.3876E-02  0.3879E-02  0.3876E-02  0.3879E-02  0.3876E-02  0.3879E-02  0.0000E+00  0.0000E+00  0.0000E+00  0.0000E+00  0.0000E+00  0.0000E+00  0.0000E+00  0.0000E+00  0.0000E+00  0.0000E+00
      2.040  0.2291E-01  0.2293E-01  0.4412E-02  0.4415E-02  0.4412E-02  0.4415E-02  0.4412E-02  0.4415E-02  0.0000E+00  0.0000E+00  0.0000E+00  0.0000E+00  0.0000E+00  0.0000E+00  0.0000E+00  0.0000E+00  0.0000E+00  0.0000E+00
      2.460  0.2267E-01  0.2269E-01  0.5017E-02  0.5020E-02  0.5017E-02  0.5020E-02  0.5017E-02  0.5020E-02  0.0000E+00  0.0000E+00  0.0000E+00  0.0000E+00  0.0000E+00  0.0000E+00  0.0000E+00  0.0000E+00  0.0000E+00  0.0000E+00
      2.880  0.2214E-01  0.2216E-01  0.6077E-02  0.6082E-02  0.6077E-02  0.6082E-02  0.6077E-02  0.6082E-02  0.0000E+00  0.0000E+00  0.0000E+00  0.0000E+00  0.0000E+00  0.0000E+00  0.0000E+00  0.0000E+00  0.0000E+00  0.0000E+00
      3.300  0.2112E-01  0.2114E-01  0.7101E-02  0.7104E-02  0.7101E-02  0.7104E-02  0.7101E-02  0.7104E-02  0.0000E+00  0.0000E+00  0.0000E+00  0.0000E+00  0.0000E+00  0.0000E+00  0.0000E+00  0.0000E+00  0.0000E+00  0.0000E+00
      3.720  0.1736E-01  0.1737E-01  0.6538E-02  0.6541E-02  0.6538E-02  0.6541E-02  0.6538E-02  0.6541E-02  0.0000E+00  0.0000E+00  0.0000E+00  0.0000E+00  0.0000E+00  0.0000E+00  0.0000E+00  0.0000E+00  0.0000E+00  0.0000E+00
      4.140  0.2022E-01  0.2024E-01  0.7848E-02  0.7851E-02  0.7848E-02  0.7851E-02  0.7848E-02  0.7851E-02  0.0000E+00  0.0000E+00  0.0000E+00  0.0000E+00  0.0000E+00  0.0000E+00  0.0000E+00  0.0000E+00  0.0000E+00  0.0000E+00
      4.560  0.2040E-01  0.2041E-01  0.8044E-02  0.8048E-02  0.8044E-02  0.8048E-02  0.8044E-02  0.8048E-02  0.0000E+00  0.0000E+00  0.0000E+00  0.0000E+00  0.0000E+00  0.0000E+00  0.0000E+00  0.0000E+00  0.0000E+00  0.0000E+00
      4.980  0.2065E-01  0.2065E-01  0.9710E-02  0.9714E-02  0.9710E-02  0.9714E-02  0.9710E-02  0.9714E-02  0.0000E+00  0.0000E+00  0.0000E+00  0.0000E+00  0.0000E+00  0.0000E+00  0.0000E+00  0.0000E+00  0.0000E+00  0.0000E+00
      5.400  0.2012E-01  0.2015E-01  0.1007E-01  0.1008E-01  0.1007E-01  0.1008E-01  0.1007E-01  0.1008E-01  0.0000E+00  0.0000E+00  0.0000E+00  0.0000E+00  0.0000E+00  0.0000E+00  0.0000E+00  0.0000E+00  0.0000E+00  0.0000E+00
      5.820  0.1788E-01  0.1789E-01  0.8451E-02  0.8454E-02  0.8451E-02  0.8454E-02  0.8451E-02  0.8454E-02  0.0000E+00  0.0000E+00  0.0000E+00  0.0000E+00  0.0000E+00  0.0000E+00  0.0000E+00  0.0000E+00  0.0000E+00  0.0000E+00
      6.240  0.1556E-01  0.1557E-01  0.7472E-02  0.7469E-02  0.7472E-02  0.7469E-02  0.7472E-02  0.7469E-02  0.0000E+00  0.0000E+00  0.0000E+00  0.0000E+00  0.0000E+00  0.0000E+00  0.0000E+00  0.0000E+00  0.0000E+00  0.0000E+00
      6.660  0.1845E-01  0.1849E-01  0.9968E-02  0.9987E-02  0.9968E-02  0.9987E-02  0.9968E-02  0.9987E-02  0.0000E+00  0.0000E+00  0.0000E+00  0.0000E+00  0.0000E+00  0.0000E+00  0.0000E+00  0.0000E+00  0.0000E+00  0.0000E+00
      7.080  0.2138E-01  0.2141E-01  0.1010E-01  0.1011E-01  0.1010E-01  0.1011E-01  0.1010E-01  0.1011E-01  0.0000E+00  0.0000E+00  0.0000E+00  0.0000E+00  0.0000E+00  0.0000E+00  0.0000E+00  0.0000E+00  0.0000E+00  0.0000E+00
      7.500  0.1659E-01  0.1660E-01  0.9715E-02  0.9714E-02  0.9715E-02  0.9714E-02  0.9715E-02  0.9714E-02  0.0000E+00  0.0000E+00  0.0000E+00  0.0000E+00  0.0000E+00  0.0000E+00  0.0000E+00  0.0000E+00  0.0000E+00  0.0000E+00
      7.920  0.1517E-01  0.1523E-01  0.8495E-02  0.8505E-02  0.8495E-02  0.8505E-02  0.8495E-02  0.8505E-02  0.0000E+00  0.0000E+00  0.0000E+00  0.0000E+00  0.0000E+00  0.0000E+00  0.0000E+00  0.0000E+00  0.0000E+00  0.0000E+00
      8.340  0.2254E-01  0.2258E-01  0.9898E-02  0.9915E-02  0.9898E-02  0.9915E-02  0.9898E-02  0.9915E-02  0.0000E+00  0.0000E+00  0.0000E+00  0.0000E+00  0.0000E+00  0.0000E+00  0.0000E+00  0.0000E+00  0.0000E+00  0.0000E+00
      8.760  0.2125E-01  0.2125E-01  0.1032E-01  0.1032E-01  0.1032E-01  0.1032E-01  0.1032E-01  0.1032E-01  0.0000E+00  0.0000E+00  0.0000E+00  0.0000E+00  0.0000E+00  0.0000E+00  0.0000E+00  0.0000E+00  0.0000E+00  0.0000E+00
      9.180  0.1912E-01  0.1914E-01  0.9885E-02  0.9894E-02  0.9885E-02  0.9894E-02  0.9885E-02  0.9894E-02  0.0000E+00  0.0000E+00  0.0000E+00  0.0000E+00  0.0000E+00  0.0000E+00  0.0000E+00  0.0000E+00  0.0000E+00  0.0000E+00
      9.600  0.2076E-01  0.2078E-01  0.1011E-01  0.1012E-01  0.1011E-01  0.1012E-01  0.1011E-01  0.1012E-01  0.0000E+00  0.0000E+00  0.0000E+00  0.0000E+00  0.0000E+00  0.0000E+00  0.0000E+00  0.0000E+00  0.0000E+00  0.0000E+00
     10.020  0.2354E-01  0.2353E-01  0.1093E-01  0.1094E-01  0.1093E-01  0.1094E-01  0.1093E-01  0.1094E-01  0.0000E+00  0.0000E+00  0.0000E+00  0.0000E+00  0.0000E+00  0.0000E+00  0.0000E+00  0.0000E+00  0.0000E+00  0.0000E+00
     10.440  0.2277E-01  0.2279E-01  0.1138E-01  0.1140E-01  0.1138E-01  0.1140E-01  0.1138E-01  0.1140E-01  0.0000E+00  0.0000E+00  0.0000E+00  0.0000E+00  0.0000E+00  0.0000E+00  0.0000E+00  0.0000E+00  0.0000E+00  0.0000E+00
     10.860  0.2257E-01  0.2258E-01  0.1136E-01  0.1137E-01  0.1136E-01  0.1137E-01  0.1136E-01  0.1137E-01  0.0000E+00  0.0000E+00  0.0000E+00  0.0000E+00  0.0000E+00  0.0000E+00  0.0000E+00  0.0000E+00  0.0000E+00  0.0000E+00
     11.280  0.2322E-01  0.2321E-01  0.1213E-01  0.1214E-01  0.1213E-01  0.1214E-01  0.1213E-01  0.1214E-01  0.0000E+00  0.0000E+00  0.0000E+00  0.0000E+00  0.0000E+00  0.0000E+00  0.0000E+00  0.0000E+00  0.0000E+00  0.0000E+00
     11.700  0.2306E-01  0.2307E-01  0.1314E-01  0.1315E-01  0.1314E-01  0.1315E-01  0.1314E-01  0.1315E-01  0.0000E+00  0.0000E+00  0.0000E+00  0.0000E+00  0.0000E+00  0.0000E+00  0.0000E+00  0.0000E+00  0.0000E+00  0.0000E+00
     12.120  0.2216E-01  0.2216E-01  0.1346E-01  0.1348E-01  0.1346E-01  0.1348E-01  0.1346E-01  0.1348E-01  0.0000E+00  0.0000E+00  0.0000E+00  0.0000E+00  0.0000E+00  0.0000E+00  0.0000E+00  0.0000E+00  0.0000E+00  0.0000E+00