    1    1    1    2
  0.1658294E+02  0.2862368E-09  0.2862368E-09  0.2862368E-09  0.5000000E-15
   1.0000000000000000E-004
  CAR 
 unknown system                          
      3    145     48

  0.1262379E-14  0.1262379E-14  0.1262379E-14  0.2441406E-03
    1       -3.151770     -3.153031   1.000000   1.000000
    2       20.539760     20.538953   0.000000   0.000000
    3       20.539760     20.538953   0.000000   0.000000
    4       20.539760     20.538953   0.000000   0.000000
    5       21.994604     21.990041   0.000000   0.000000
    6       21.994605     21.990041   0.000000   0.000000
    7       21.994605     21.990041   0.000000   0.000000
    8       24.376616     24.376846   0.000000   0.000000
    9       27.314321     27.311300   0.000000   0.000000
   10       27.314321     27.311300   0.000000   0.000000
   11       30.160997     30.158294   0.000000   0.000000
   12       32.510863     32.510300   0.000000   0.000000
   13       32.510863     32.510300   0.000000   0.000000
   14       32.510863     32.510300   0.000000   0.000000
   15       41.062421     41.059978   0.000000   0.000000
   16       56.020725     56.019701   0.000000   0.000000
   17       56.020725     56.019702   0.000000   0.000000
   18       56.020725     56.019702   0.000000   0.000000
   19       56.057057     56.057204   0.000000   0.000000
   20       59.213948     59.211455   0.000000   0.000000
   21       59.213948     59.211455   0.000000   0.000000
   22       59.213948     59.211455   0.000000   0.000000
   23       62.833551     62.833605   0.000000   0.000000
   24       62.833551     62.833605   0.000000   0.000000
   25       65.076758     65.073577   0.000000   0.000000
   26       65.076758     65.073577   0.000000   0.000000
   27       65.076758     65.073577   0.000000   0.000000
   28       73.177808     73.176874   0.000000   0.000000
   29       73.177808     73.176874   0.000000   0.000000
   30       73.177808     73.176875   0.000000   0.000000
   31       80.819033     80.818077   0.000000   0.000000
   32       83.078132     83.076770   0.000000   0.000000
   33       83.078132     83.076770   0.000000   0.000000
   34       87.206094     87.206283   0.000000   0.000000
   35       87.206094     87.206283   0.000000   0.000000
   36       87.206094     87.206285   0.000000   0.000000
   37       90.088423     90.083013   0.000000   0.000000
   38       90.088423     90.083014   0.000000   0.000000
   39       90.088424     90.083014   0.000000   0.000000
   40       90.896762     90.889934   0.000000   0.000000
   41       93.460029     93.460309   0.000000   0.000000
   42       93.460030     93.460309   0.000000   0.000000
   43       93.460030     93.460309   0.000000   0.000000
   44       93.934609     93.931818   0.000000   0.000000
   45       93.934610     93.931819   0.000000   0.000000
   46       93.934610     93.931819   0.000000   0.000000
   47       96.373734     96.374523   0.000000   0.000000
   48       96.373735     96.374523   0.000000   0.000000

  0.6250000E-01  0.1262418E-14  0.1262418E-14  0.1953125E-02
    1       -3.045925     -3.047185   1.000000   1.000000
    2       18.750232     18.748732   0.000000   0.000000
    3       20.159602     20.158131   0.000000   0.000000
    4       20.159602     20.158132   0.000000   0.000000
    5       22.538745     22.534778   0.000000   0.000000
    6       22.538745     22.534779   0.000000   0.000000
    7       22.615938     22.612618   0.000000   0.000000
    8       25.470099     25.469815   0.000000   0.000000
    9       26.714046     26.711387   0.000000   0.000000
   10       26.714046     26.711387   0.000000   0.000000
   11       29.772958     29.770527   0.000000   0.000000
   12       33.050697     33.049742   0.000000   0.000000
   13       33.324009     33.323127   0.000000   0.000000
   14       33.324009     33.323128   0.000000   0.000000
   15       41.488190     41.485821   0.000000   0.000000
   16       55.595007     55.594510   0.000000   0.000000
   17       55.901436     55.900371   0.000000   0.000000
   18       55.901437     55.900372   0.000000   0.000000
   19       56.291359     56.290900   0.000000   0.000000
   20       58.094134     58.091729   0.000000   0.000000
   21       58.094134     58.091729   0.000000   0.000000
   22       59.221094     59.218683   0.000000   0.000000
   23       61.786792     61.786086   0.000000   0.000000
   24       61.786792     61.786087   0.000000   0.000000
   25       65.171678     65.168477   0.000000   0.000000
   26       67.448743     67.446323   0.000000   0.000000
   27       67.448743     67.446323   0.000000   0.000000
   28       72.293797     72.292954   0.000000   0.000000
   29       73.079800     73.078766   0.000000   0.000000
   30       73.079801     73.078767   0.000000   0.000000
   31       81.828878     81.827920   0.000000   0.000000
   32       82.510145     82.508564   0.000000   0.000000
   33       82.510145     82.508564   0.000000   0.000000
   34       85.009377     85.006896   0.000000   0.000000
   35       86.418373     86.418217   0.000000   0.000000
   36       86.418373     86.418218   0.000000   0.000000
   37       88.963930     88.961020   0.000000   0.000000
   38       88.963930     88.961020   0.000000   0.000000
   39       90.266788     90.260970   0.000000   0.000000
   40       90.415160     90.414102   0.000000   0.000000
   41       91.967419     91.966352   0.000000   0.000000
   42       91.967419     91.966352   0.000000   0.000000
   43       92.282587     92.280548   0.000000   0.000000
   44       95.230611     95.231496   0.000000   0.000000
   45       95.230612     95.231496   0.000000   0.000000
   46       95.973864     95.971384   0.000000   0.000000
   47       95.973864     95.971384   0.000000   0.000000
   48       97.206361     97.204924   0.000000   0.000000

  0.1250000E+00  0.1261318E-14  0.1261318E-14  0.1953125E-02
    1       -2.728883     -2.730143   1.000000   1.000000
    2       16.239679     16.238189   0.000000   0.000000
    3       19.587207     19.585339   0.000000   0.000000
    4       19.587207     19.585339   0.000000   0.000000
    5       22.614037     22.611358   0.000000   0.000000
    6       23.541301     23.537413   0.000000   0.000000
    7       23.541301     23.537414   0.000000   0.000000
    8       25.567751     25.565736   0.000000   0.000000
    9       25.567751     25.565736   0.000000   0.000000
   10       27.780367     27.779506   0.000000   0.000000
   11       28.883925     28.881729   0.000000   0.000000
   12       34.484235     34.482750   0.000000   0.000000
   13       35.164505     35.163219   0.000000   0.000000
   14       35.164505     35.163220   0.000000   0.000000
   15       42.646709     42.644530   0.000000   0.000000
   16       54.463769     54.462021   0.000000   0.000000
   17       54.463769     54.462021   0.000000   0.000000
   18       54.836991     54.836405   0.000000   0.000000
   19       56.435927     56.435387   0.000000   0.000000
   20       56.600447     56.598976   0.000000   0.000000
   21       56.600447     56.598976   0.000000   0.000000
   22       59.144570     59.142373   0.000000   0.000000
   23       61.546339     61.545340   0.000000   0.000000
   24       61.546340     61.545341   0.000000   0.000000
   25       65.454673     65.451410   0.000000   0.000000
   26       70.536921     70.536136   0.000000   0.000000
   27       70.548919     70.546797   0.000000   0.000000
   28       70.548920     70.546798   0.000000   0.000000
   29       72.897474     72.896045   0.000000   0.000000
   30       72.897475     72.896046   0.000000   0.000000
   31       80.725957     80.724046   0.000000   0.000000
   32       80.725957     80.724046   0.000000   0.000000
   33       81.261069     81.258274   0.000000   0.000000
   34       84.836692     84.834874   0.000000   0.000000
   35       84.860173     84.860753   0.000000   0.000000
   36       84.860173     84.860753   0.000000   0.000000
   37       87.040163     87.038773   0.000000   0.000000
   38       87.040163     87.038774   0.000000   0.000000
   39       87.377120     87.376126   0.000000   0.000000
   40       89.824280     89.819066   0.000000   0.000000
   41       90.683605     90.682016   0.000000   0.000000
   42       90.683605     90.682017   0.000000   0.000000
   43       91.052130     91.051928   0.000000   0.000000
   44       93.953017     93.954110   0.000000   0.000000
   45       96.421877     96.422705   0.000000   0.000000
   46       96.421877     96.422705   0.000000   0.000000
   47       98.244404     98.241413   0.000000   0.000000
   48       98.244428     98.241413   0.000000   0.000000

  0.1875000E+00  0.1270836E-14  0.1270836E-14  0.1953125E-02
    1       -2.202056     -2.203317   1.000000   1.000000
    2       13.751454     13.750016   0.000000   0.000000
    3       19.124298     19.122271   0.000000   0.000000
    4       19.124298     19.122271   0.000000   0.000000
    5       22.418211     22.415789   0.000000   0.000000
    6       23.730050     23.726679   0.000000   0.000000
    7       23.730050     23.726679   0.000000   0.000000
    8       25.400346     25.398122   0.000000   0.000000
    9       25.400346     25.398122   0.000000   0.000000
   10       27.789313     27.787192   0.000000   0.000000
   11       30.194306     30.193174   0.000000   0.000000
   12       36.655948     36.654021   0.000000   0.000000
   13       37.454343     37.452756   0.000000   0.000000
   14       37.454343     37.452756   0.000000   0.000000
   15       44.311123     44.309205   0.000000   0.000000
   16       51.424072     51.422285   0.000000   0.000000
   17       51.424072     51.422285   0.000000   0.000000
   18       53.769914     53.769263   0.000000   0.000000
   19       56.398546     56.397342   0.000000   0.000000
   20       56.398546     56.397342   0.000000   0.000000
   21       56.566738     56.566095   0.000000   0.000000
   22       58.827117     58.825259   0.000000   0.000000
   23       61.746501     61.745355   0.000000   0.000000
   24       61.746501     61.745356   0.000000   0.000000
   25       65.917119     65.913739   0.000000   0.000000
   26       68.735146     68.734105   0.000000   0.000000
   27       70.955779     70.953816   0.000000   0.000000
   28       70.955779     70.953817   0.000000   0.000000
   29       74.091074     74.089512   0.000000   0.000000
   30       74.091074     74.089513   0.000000   0.000000
   31       78.627445     78.623927   0.000000   0.000000
   32       78.879211     78.877461   0.000000   0.000000
   33       78.879211     78.877461   0.000000   0.000000
   34       82.601146     82.601851   0.000000   0.000000
   35       82.601146     82.601851   0.000000   0.000000
   36       84.577148     84.576295   0.000000   0.000000
   37       85.187818     85.187971   0.000000   0.000000
   38       86.600377     86.599422   0.000000   0.000000
   39       86.600377     86.599422   0.000000   0.000000
   40       87.691340     87.690104   0.000000   0.000000
   41       89.422618     89.417883   0.000000   0.000000
   42       89.967475     89.965765   0.000000   0.000000
   43       89.967475     89.965767   0.000000   0.000000
   44       93.868160     93.869090   0.000000   0.000000
   45       97.309053     97.308896   0.000000   0.000000
   46       97.309053     97.308896   0.000000   0.000000
   47       99.645900     99.644998   0.000000   0.000000
   48       99.645900     99.644999   0.000000   0.000000

  0.2500000E+00  0.1266309E-14  0.1266309E-14  0.1953125E-02
    1       -1.467727     -1.468987   1.000000   1.000000
    2       11.377184     11.375789   0.000000   0.000000
    3       18.819978     18.817871   0.000000   0.000000
    4       18.819978     18.817872   0.000000   0.000000
    5       22.256684     22.254409   0.000000   0.000000
    6       22.658314     22.655667   0.000000   0.000000
    7       22.658314     22.655667   0.000000   0.000000
    8       26.651125     26.649013   0.000000   0.000000
    9       26.774434     26.771582   0.000000   0.000000
   10       26.774434     26.771583   0.000000   0.000000
   11       32.500620     32.499256   0.000000   0.000000
   12       39.413476     39.411147   0.000000   0.000000
   13       39.950251     39.948362   0.000000   0.000000
   14       39.950251     39.948362   0.000000   0.000000
   15       46.283569     46.281953   0.000000   0.000000
   16       48.375805     48.374272   0.000000   0.000000
   17       48.375805     48.374273   0.000000   0.000000
   18       52.429300     52.428700   0.000000   0.000000
   19       56.369806     56.368648   0.000000   0.000000
   20       56.369807     56.368648   0.000000   0.000000
   21       56.721708     56.720938   0.000000   0.000000
   22       58.222920     58.221487   0.000000   0.000000
   23       62.066506     62.065190   0.000000   0.000000
   24       62.066506     62.065190   0.000000   0.000000
   25       66.543751     66.540183   0.000000   0.000000
   26       66.983020     66.981300   0.000000   0.000000
   27       68.865408     68.863210   0.000000   0.000000
   28       68.865408     68.863211   0.000000   0.000000
   29       74.535585     74.534972   0.000000   0.000000
   30       74.535587     74.534975   0.000000   0.000000
   31       76.540436     76.536707   0.000000   0.000000
   32       79.035110     79.033948   0.000000   0.000000
   33       79.035112     79.033949   0.000000   0.000000
   34       79.955898     79.956642   0.000000   0.000000
   35       80.433563     80.433517   0.000000   0.000000
   36       80.433563     80.433518   0.000000   0.000000
   37       82.036847     82.036208   0.000000   0.000000
   38       87.496887     87.495936   0.000000   0.000000
   39       87.496889     87.495938   0.000000   0.000000
   40       88.808132     88.804997   0.000000   0.000000
   41       89.585370     89.583655   0.000000   0.000000
   42       89.585371     89.583655   0.000000   0.000000
   43       90.500852     90.498635   0.000000   0.000000
   44       93.171610     93.172113   0.000000   0.000000
   45       97.397756     97.396998   0.000000   0.000000
   46       97.397773     97.397033   0.000000   0.000000
   47      101.374590    101.373780   0.000000   0.000000
   48      101.697572    101.697467   0.000000   0.000000

  0.3125000E+00  0.1234192E-14  0.1234192E-14  0.1953125E-02
    1       -0.529046     -0.530306   1.000000   1.000000
    2        9.149091      9.147727  -0.064274  -0.064222
    3       18.686480     18.684321   0.000000   0.000000
    4       18.686480     18.684321   0.000000   0.000000
    5       21.592824     21.590411   0.000000   0.000000
    6       21.592824     21.590411   0.000000   0.000000
    7       22.213698     22.211525   0.000000   0.000000
    8       25.565847     25.563717   0.000000   0.000000
    9       28.441139     28.437999   0.000000   0.000000
   10       28.441139     28.438000   0.000000   0.000000
   11       34.709874     34.708226   0.000000   0.000000
   12       42.146663     42.144289   0.000000   0.000000
   13       42.146663     42.144289   0.000000   0.000000
   14       42.511459     42.508729   0.000000   0.000000
   15       46.008282     46.007293   0.000000   0.000000
   16       46.008282     46.007293   0.000000   0.000000
   17       48.191097     48.189699   0.000000   0.000000
   18       51.173258     51.173017   0.000000   0.000000
   19       56.341929     56.340789   0.000000   0.000000
   20       56.341929     56.340789   0.000000   0.000000
   21       56.898010     56.897089   0.000000   0.000000
   22       57.333821     57.332747   0.000000   0.000000
   23       62.211575     62.209801   0.000000   0.000000
   24       62.211575     62.209802   0.000000   0.000000
   25       65.179456     65.176894   0.000000   0.000000
   26       65.989453     65.987752   0.000000   0.000000
   27       65.989453     65.987752   0.000000   0.000000
   28       67.300203     67.296342   0.000000   0.000000
   29       73.477277     73.475501   0.000000   0.000000
   30       74.105374     74.105017   0.000000   0.000000
   31       74.105375     74.105017   0.000000   0.000000
   32       76.906226     76.905523   0.000000   0.000000
   33       78.230526     78.231033   0.000000   0.000000
   34       78.230527     78.231034   0.000000   0.000000
   35       79.789398     79.789072   0.000000   0.000000
   36       80.167706     80.166417   0.000000   0.000000
   37       80.167707     80.166418   0.000000   0.000000
   38       88.627495     88.624044   0.000000   0.000000
   39       89.307388     89.305743   0.000000   0.000000
   40       89.307394     89.305744   0.000000   0.000000
   41       89.724861     89.723533   0.000000   0.000000
   42       89.724861     89.723533   0.000000   0.000000
   43       91.215652     91.215619   0.000000   0.000000
   44       93.501059     93.500270   0.000000   0.000000
   45       97.932156     97.931070   0.000000   0.000000
   46       97.932170     97.931077   0.000000   0.000000
   47      101.647737    101.646116   0.000000   0.000000
   48      103.509872    103.509828   0.000000   0.000000

  0.3750000E+00  0.1229499E-14  0.1229499E-14  0.1953125E-02
    1        0.610074      0.608816   1.000000   1.000000
    2        7.083611      7.082267   1.010389   1.010897
    3       18.728141     18.725932   0.000000   0.000000
    4       18.728141     18.725933   0.000000   0.000000
    5       20.673094     20.670813   0.000000   0.000000
    6       20.673094     20.670814   0.000000   0.000000
    7       22.329509     22.327425   0.000000   0.000000
    8       24.591958     24.589787   0.000000   0.000000
    9       30.211593     30.208100   0.000000   0.000000
   10       30.211593     30.208101   0.000000   0.000000
   11       36.815034     36.812989   0.000000   0.000000
   12       41.576275     41.574396   0.000000   0.000000
   13       41.576275     41.574396   0.000000   0.000000
   14       45.543279     45.540369   0.000000   0.000000
   15       46.848734     46.847439   0.000000   0.000000
   16       46.848734     46.847439   0.000000   0.000000
   17       48.168326     48.167269   0.000000   0.000000
   18       52.138568     52.138572   0.000000   0.000000
   19       56.168871     56.167897   0.000000   0.000000
   20       56.259284     56.258159   0.000000   0.000000
   21       56.259285     56.258160   0.000000   0.000000
   22       57.110091     57.108999   0.000000   0.000000
   23       60.936644     60.934105   0.000000   0.000000
   24       60.936645     60.934106   0.000000   0.000000
   25       63.461387     63.458297   0.000000   0.000000
   26       64.277640     64.276889   0.000000   0.000000
   27       64.277641     64.276889   0.000000   0.000000
   28       68.113973     68.109678   0.000000   0.000000
   29       68.824188     68.823652   0.000000   0.000000
   30       73.786968     73.786636   0.000000   0.000000
   31       73.786971     73.786639   0.000000   0.000000
   32       76.567416     76.565874   0.000000   0.000000
   33       76.724214     76.724451   0.000000   0.000000
   34       76.724214     76.724452   0.000000   0.000000
   35       77.911377     77.911499   0.000000   0.000000
   36       80.471826     80.471175   0.000000   0.000000
   37       80.471827     80.471176   0.000000   0.000000
   38       88.533458     88.530002   0.000000   0.000000
   39       89.083812     89.082245   0.000000   0.000000
   40       89.083819     89.082245   0.000000   0.000000
   41       90.285528     90.285879   0.000000   0.000000
   42       92.512774     92.511280   0.000000   0.000000
   43       92.512773     92.511282   0.000000   0.000000
   44       94.299396     94.298956   0.000000   0.000000
   45       99.270219     99.268869   0.000000   0.000000
   46       99.270283     99.268914   0.000000   0.000000
   47      102.626203    102.623851   0.000000   0.000000
   48      104.120725    104.120264   0.000000   0.000000

  0.4375000E+00  0.1224805E-14  0.1224805E-14  0.1953125E-02
    1        1.944496      1.943250   1.000000   1.000000
    2        5.191663      5.190318   1.000000   1.000000
    3       18.946531     18.944237   0.000000   0.000000
    4       18.946531     18.944238   0.000000   0.000000
    5       19.922717     19.920560   0.000000   0.000000
    6       19.922717     19.920560   0.000000   0.000000
    7       22.622175     22.620223   0.000000   0.000000
    8       23.765962     23.763684   0.000000   0.000000
    9       31.858590     31.854525   0.000000   0.000000
   10       31.858590     31.854525   0.000000   0.000000
   11       38.633078     38.630441   0.000000   0.000000
   12       39.645226     39.644163   0.000000   0.000000
   13       39.645226     39.644163   0.000000   0.000000
   14       46.095944     46.095554   0.000000   0.000000
   15       49.024507     49.021362   0.000000   0.000000
   16       49.581031     49.579305   0.000000   0.000000
   17       49.581031     49.579306   0.000000   0.000000
   18       54.527771     54.526897   0.000000   0.000000
   19       54.899197     54.899022   0.000000   0.000000
   20       55.792124     55.790944   0.000000   0.000000
   21       55.792124     55.790944   0.000000   0.000000
   22       57.450590     57.449341   0.000000   0.000000
   23       58.418641     58.416385   0.000000   0.000000
   24       58.418641     58.416386   0.000000   0.000000
   25       62.057924     62.055215   0.000000   0.000000
   26       64.202058     64.201300   0.000000   0.000000
   27       64.202058     64.201301   0.000000   0.000000
   28       64.532146     64.531634   0.000000   0.000000
   29       68.819907     68.815063   0.000000   0.000000
   30       73.623751     73.623444   0.000000   0.000000
   31       73.623751     73.623444   0.000000   0.000000
   32       75.701423     75.701494   0.000000   0.000000
   33       75.701423     75.701495   0.000000   0.000000
   34       76.566603     76.567282   0.000000   0.000000
   35       76.799079     76.797385   0.000000   0.000000
   36       80.537054     80.536721   0.000000   0.000000
   37       80.537054     80.536723   0.000000   0.000000
   38       88.561647     88.558116   0.000000   0.000000
   39       88.909835     88.908317   0.000000   0.000000
   40       88.909835     88.908319   0.000000   0.000000
   41       89.392666     89.393148   0.000000   0.000000
   42       94.254521     94.254400   0.000000   0.000000
   43       94.715066     94.713621   0.000000   0.000000
   44       94.715067     94.713622   0.000000   0.000000
   45      100.949568    100.948744   0.000000   0.000000
   46      100.949569    100.948744   0.000000   0.000000
   47      104.596341    104.594713   0.000000   0.000000
   48      104.596344    104.594713   0.000000   0.000000

  0.5000000E+00  0.1248200E-14  0.1248200E-14  0.9765625E-03
    1        3.374793      3.374112   1.000000   1.000000
    2        3.575296      3.573390   1.000000   1.000000
    3       19.305081     19.301563   0.000000   0.000000
    4       19.305081     19.301563   0.000000   0.000000
    5       19.386241     19.385322   0.000000   0.000000
    6       19.386241     19.385322   0.000000   0.000000
    7       23.042514     23.042169   0.000000   0.000000
    8       23.165066     23.161189   0.000000   0.000000
    9       32.671209     32.666638   0.000000   0.000000
   10       32.671209     32.666639   0.000000   0.000000
   11       38.689328     38.688821   0.000000   0.000000
   12       38.689328     38.688822   0.000000   0.000000
   13       39.485383     39.482265   0.000000   0.000000
   14       45.404650     45.404956   0.000000   0.000000
   15       50.568270     50.564617   0.000000   0.000000
   16       51.534500     51.532482   0.000000   0.000000
   17       51.534500     51.532482   0.000000   0.000000
   18       53.502165     53.501062   0.000000   0.000000
   19       54.652055     54.650762   0.000000   0.000000
   20       54.652055     54.650762   0.000000   0.000000
   21       56.248132     56.247831   0.000000   0.000000
   22       57.502959     57.501109   0.000000   0.000000
   23       57.502959     57.501109   0.000000   0.000000
   24       58.421565     58.420168   0.000000   0.000000
   25       60.612033     60.611972   0.000000   0.000000
   26       62.630099     62.627722   0.000000   0.000000
   27       64.274723     64.273927   0.000000   0.000000
   28       64.274723     64.273928   0.000000   0.000000
   29       69.122731     69.117576   0.000000   0.000000
   30       73.578972     73.578688   0.000000   0.000000
   31       73.578972     73.578688   0.000000   0.000000
   32       75.332781     75.332785   0.000000   0.000000
   33       75.332782     75.332786   0.000000   0.000000
   34       76.051610     76.052604   0.000000   0.000000
   35       76.948270     76.946535   0.000000   0.000000
   36       80.544622     80.544379   0.000000   0.000000
   37       80.544623     80.544382   0.000000   0.000000
   38       88.686417     88.681331   0.000000   0.000000
   39       88.847998     88.846500   0.000000   0.000000
   40       88.847998     88.846501   0.000000   0.000000
   41       88.940774     88.942811   0.000000   0.000000
   42       94.132827     94.132799   0.000000   0.000000
   43       95.545449     95.544010   0.000000   0.000000
   44       95.545450     95.544011   0.000000   0.000000
   45      101.359591    101.359374   0.000000   0.000000
   46      101.359592    101.359374   0.000000   0.000000
   47      107.179759    107.176891   0.000000   0.000000
   48      107.179765    107.176891   0.000000   0.000000

  0.6250000E-01  0.6250000E-01  0.1262379E-14  0.1464844E-02
    1       -3.010652     -3.011912   1.000000   1.000000
    2       19.334120     19.332305   0.000000   0.000000
    3       19.334120     19.332306   0.000000   0.000000
    4       19.622793     19.622190   0.000000   0.000000
    5       21.659094     21.654586   0.000000   0.000000
    6       23.406866     23.403225   0.000000   0.000000
    7       23.406866     23.403225   0.000000   0.000000
    8       25.575515     25.575535   0.000000   0.000000
    9       25.648874     25.646552   0.000000   0.000000
   10       27.445000     27.441959   0.000000   0.000000
   11       30.236494     30.233711   0.000000   0.000000
   12       32.672371     32.671878   0.000000   0.000000
   13       32.672371     32.671879   0.000000   0.000000
   14       34.360116     34.358749   0.000000   0.000000
   15       41.664816     41.662483   0.000000   0.000000
   16       55.640413     55.640150   0.000000   0.000000
   17       55.727927     55.726746   0.000000   0.000000
   18       55.727927     55.726746   0.000000   0.000000
   19       56.399744     56.399140   0.000000   0.000000
   20       58.092662     58.090243   0.000000   0.000000
   21       58.092662     58.090243   0.000000   0.000000
   22       59.306964     59.304464   0.000000   0.000000
   23       59.632174     59.631132   0.000000   0.000000
   24       62.813492     62.813518   0.000000   0.000000
   25       66.431414     66.428351   0.000000   0.000000
   26       66.431414     66.428352   0.000000   0.000000
   27       68.467358     68.465332   0.000000   0.000000
   28       71.635785     71.634647   0.000000   0.000000
   29       73.306786     73.305942   0.000000   0.000000
   30       73.306786     73.305943   0.000000   0.000000
   31       81.329376     81.327887   0.000000   0.000000
   32       82.811265     82.809869   0.000000   0.000000
   33       83.010892     83.009750   0.000000   0.000000
   34       84.755926     84.754246   0.000000   0.000000
   35       84.755926     84.754246   0.000000   0.000000
   36       85.148369     85.145910   0.000000   0.000000
   37       89.866912     89.864908   0.000000   0.000000
   38       89.866912     89.864909   0.000000   0.000000
   39       90.449839     90.451293   0.000000   0.000000
   40       91.015828     91.014337   0.000000   0.000000
   41       91.015828     91.014338   0.000000   0.000000
   42       91.731840     91.726925   0.000000   0.000000
   43       92.875650     92.873887   0.000000   0.000000
   44       93.542113     93.538504   0.000000   0.000000
   45       94.113799     94.114077   0.000000   0.000000
   46       96.800637     96.798898   0.000000   0.000000
   47       96.800637     96.798898   0.000000   0.000000
   48       98.458714     98.459681   0.000000   0.000000

  0.1250000E+00  0.6250000E-01  0.1262334E-14  0.5859375E-02
    1       -2.764070     -2.765330   1.000000   1.000000
    2       17.112550     17.111091   0.000000   0.000000
    3       18.624929     18.622989   0.000000   0.000000
    4       19.684968     19.683659   0.000000   0.000000
    5       21.869263     21.864962   0.000000   0.000000
    6       23.794395     23.791488   0.000000   0.000000
    7       24.204036     24.202066   0.000000   0.000000
    8       24.456297     24.452582   0.000000   0.000000
    9       27.013132     27.010498   0.000000   0.000000
   10       27.404334     27.403637   0.000000   0.000000
   11       29.933104     29.930706   0.000000   0.000000
   12       33.635649     33.634885   0.000000   0.000000
   13       33.642604     33.641618   0.000000   0.000000
   14       35.918593     35.916859   0.000000   0.000000
   15       42.663341     42.661175   0.000000   0.000000
   16       54.430701     54.428985   0.000000   0.000000
   17       54.672720     54.671572   0.000000   0.000000
   18       55.691946     55.691151   0.000000   0.000000
   19       56.235481     56.234686   0.000000   0.000000
   20       56.715221     56.713843   0.000000   0.000000
   21       57.043839     57.042086   0.000000   0.000000
   22       59.091331     59.089761   0.000000   0.000000