<?xml version="1.0" encoding="ISO-8859-1"?>
<modeling>
 <generator>
  <i name="program" type="string">vasp </i>
  <i name="version" type="string">6.2.1  </i>
  <i name="subversion" type="string">16May21 (build Aug 15 2022 14:47:30) complex                          parallel </i>
  <i name="platform" type="string">LinuxGNU </i>
  <i name="date" type="string">2025 12 11 </i>
  <i name="time" type="string">13:49:20 </i>
 </generator>
 <incar>
  <i type="string" name="PREC">Accurate</i>
  <i type="string" name="ALGO">Fast</i>
  <i type="int" name="ISPIN">     2</i>
  <i type="int" name="NELM">   100</i>
  <i name="EDIFF">      0.00005000</i>
  <i type="int" name="NSW">     0</i>
  <i name="ENCUT">    520.00000000</i>
  <v name="MAGMOM">      0.60000000</v>
  <i type="logical" name="LREAL"> F  </i>
  <i type="int" name="ISMEAR">    -5</i>
  <i name="SIGMA">      0.05000000</i>
  <i type="logical" name="LWAVE"> F  </i>
  <i type="logical" name="LCHARG"> T  </i>
  <i type="int" name="LORBIT">    11</i>
  <i type="logical" name="LASPH"> T  </i>
 </incar>
 <primitive_cell>
  <structure name="primitive_cell" >
   <crystal>
    <varray name="basis" >
     <v>       0.00000000       2.02400000       2.02400000 </v>
     <v>       2.02400000       0.00000000       2.02400000 </v>
     <v>       2.02400000       2.02400000       0.00000000 </v>
    </varray>
    <i name="volume">     16.58293965 </i>
    <varray name="rec_basis" >
     <v>      -0.24703557       0.24703557       0.24703557 </v>
     <v>       0.24703557      -0.24703557       0.24703557 </v>
     <v>       0.24703557       0.24703557      -0.24703557 </v>
    </varray>
   </crystal>
   <varray name="positions" >
    <v>       0.00000000       0.00000000       0.00000000 </v>
   </varray>
  </structure>
  <varray name="primitive_index" >
   <v type="int" >        1 </v>
  </varray>
 </primitive_cell>
 <kpoints>
  <generation param="Gamma">
   <v type="int" name="divisions">      16       16       16 </v>
   <v name="usershift">      0.00000000       0.00000000       0.00000000 </v>
   <v name="genvec1">      0.06250000       0.00000000       0.00000000 </v>
   <v name="genvec2">      0.00000000       0.06250000       0.00000000 </v>
   <v name="genvec3">      0.00000000       0.00000000       0.06250000 </v>
   <v name="shift">      0.00000000       0.00000000       0.00000000 </v>
  </generation>
  <varray name="kpointlist" >
   <v>       0.00000000       0.00000000       0.00000000 </v>
   <v>       0.06250000       0.00000000       0.00000000 </v>
   <v>       0.12500000       0.00000000       0.00000000 </v>
   <v>       0.18750000       0.00000000       0.00000000 </v>
   <v>       0.25000000       0.00000000       0.00000000 </v>
   <v>       0.31250000       0.00000000       0.00000000 </v>
   <v>       0.37500000       0.00000000       0.00000000 </v>
   <v>       0.43750000       0.00000000       0.00000000 </v>
   <v>       0.50000000       0.00000000       0.00000000 </v>
   <v>       0.06250000       0.06250000       0.00000000 </v>
   <v>       0.12500000       0.06250000       0.00000000 </v>
   <v>       0.18750000       0.06250000       0.00000000 </v>
   <v>       0.25000000       0.06250000       0.00000000 </v>
   <v>       0.31250000       0.06250000       0.00000000 </v>
   <v>       0.37500000       0.06250000       0.00000000 </v>
   <v>       0.43750000       0.06250000       0.00000000 </v>
   <v>       0.50000000       0.06250000       0.00000000 </v>
   <v>      -0.43750000       0.06250000       0.00000000 </v>
   <v>      -0.37500000       0.06250000       0.00000000 </v>
   <v>      -0.31250000       0.06250000       0.00000000 </v>
   <v>      -0.25000000       0.06250000       0.00000000 </v>
   <v>      -0.18750000       0.06250000       0.00000000 </v>
   <v>      -0.12500000       0.06250000       0.00000000 </v>
   <v>      -0.06250000       0.06250000       0.00000000 </v>
   <v>       0.12500000       0.12500000       0.00000000 </v>
   <v>       0.18750000       0.12500000       0.00000000 </v>
   <v>       0.25000000       0.12500000       0.00000000 </v>
   <v>       0.31250000       0.12500000       0.00000000 </v>
   <v>       0.37500000       0.12500000       0.00000000 </v>
   <v>       0.43750000       0.12500000       0.00000000 </v>
   <v>       0.50000000       0.12500000       0.00000000 </v>
   <v>      -0.43750000       0.12500000       0.00000000 </v>
   <v>      -0.37500000       0.12500000       0.00000000 </v>
   <v>      -0.31250000       0.12500000       0.00000000 </v>
   <v>      -0.25000000       0.12500000       0.00000000 </v>
   <v>      -0.18750000       0.12500000       0.00000000 </v>
   <v>      -0.12500000       0.12500000       0.00000000 </v>
   <v>       0.18750000       0.18750000       0.00000000 </v>
   <v>       0.25000000       0.18750000       0.00000000 </v>
   <v>       0.31250000       0.18750000       0.00000000 </v>
   <v>       0.37500000       0.18750000       0.00000000 </v>
   <v>       0.43750000       0.18750000       0.00000000 </v>
   <v>       0.50000000       0.18750000       0.00000000 </v>
   <v>      -0.43750000       0.18750000       0.00000000 </v>
   <v>      -0.37500000       0.18750000       0.00000000 </v>
   <v>      -0.31250000       0.18750000       0.00000000 </v>
   <v>      -0.25000000       0.18750000       0.00000000 </v>
   <v>      -0.18750000       0.18750000       0.00000000 </v>
   <v>       0.25000000       0.25000000       0.00000000 </v>
   <v>       0.31250000       0.25000000       0.00000000 </v>
   <v>       0.37500000       0.25000000       0.00000000 </v>
   <v>       0.43750000       0.25000000       0.00000000 </v>
   <v>       0.50000000       0.25000000       0.00000000 </v>
   <v>      -0.43750000       0.25000000       0.00000000 </v>
   <v>      -0.37500000       0.25000000       0.00000000 </v>
   <v>      -0.31250000       0.25000000       0.00000000 </v>
   <v>      -0.25000000       0.25000000       0.00000000 </v>
   <v>       0.31250000       0.31250000       0.00000000 </v>
   <v>       0.37500000       0.31250000       0.00000000 </v>
   <v>       0.43750000       0.31250000       0.00000000 </v>
   <v>       0.50000000       0.31250000       0.00000000 </v>
   <v>      -0.43750000       0.31250000       0.00000000 </v>
   <v>      -0.37500000       0.31250000       0.00000000 </v>
   <v>      -0.31250000       0.31250000       0.00000000 </v>
   <v>       0.37500000       0.37500000       0.00000000 </v>
   <v>       0.43750000       0.37500000       0.00000000 </v>
   <v>       0.50000000       0.37500000       0.00000000 </v>
   <v>      -0.43750000       0.37500000       0.00000000 </v>
   <v>      -0.37500000       0.37500000       0.00000000 </v>
   <v>       0.43750000       0.43750000       0.00000000 </v>
   <v>       0.50000000       0.43750000       0.00000000 </v>
   <v>      -0.43750000       0.43750000       0.00000000 </v>
   <v>       0.50000000       0.50000000       0.00000000 </v>
   <v>       0.18750000       0.12500000       0.06250000 </v>
   <v>       0.25000000       0.12500000       0.06250000 </v>
   <v>       0.31250000       0.12500000       0.06250000 </v>
   <v>       0.37500000       0.12500000       0.06250000 </v>
   <v>       0.43750000       0.12500000       0.06250000 </v>
   <v>       0.50000000       0.12500000       0.06250000 </v>
   <v>      -0.43750000       0.12500000       0.06250000 </v>
   <v>       0.25000000       0.18750000       0.06250000 </v>
   <v>       0.31250000       0.18750000       0.06250000 </v>
   <v>       0.37500000       0.18750000       0.06250000 </v>
   <v>       0.43750000       0.18750000       0.06250000 </v>
   <v>       0.50000000       0.18750000       0.06250000 </v>
   <v>      -0.43750000       0.18750000       0.06250000 </v>
   <v>      -0.37500000       0.18750000       0.06250000 </v>
   <v>      -0.31250000       0.18750000       0.06250000 </v>
   <v>      -0.25000000       0.18750000       0.06250000 </v>
   <v>      -0.18750000       0.18750000       0.06250000 </v>
   <v>      -0.12500000       0.18750000       0.06250000 </v>
   <v>       0.31250000       0.25000000       0.06250000 </v>
   <v>       0.37500000       0.25000000       0.06250000 </v>
   <v>       0.43750000       0.25000000       0.06250000 </v>
   <v>       0.50000000       0.25000000       0.06250000 </v>
   <v>      -0.43750000       0.25000000       0.06250000 </v>
   <v>      -0.37500000       0.25000000       0.06250000 </v>
   <v>      -0.31250000       0.25000000       0.06250000 </v>
   <v>      -0.25000000       0.25000000       0.06250000 </v>
   <v>      -0.18750000       0.25000000       0.06250000 </v>
   <v>       0.37500000       0.31250000       0.06250000 </v>
   <v>       0.43750000       0.31250000       0.06250000 </v>
   <v>       0.50000000       0.31250000       0.06250000 </v>
   <v>      -0.43750000       0.31250000       0.06250000 </v>
   <v>      -0.37500000       0.31250000       0.06250000 </v>
   <v>      -0.31250000       0.31250000       0.06250000 </v>
   <v>      -0.25000000       0.31250000       0.06250000 </v>
   <v>       0.43750000       0.37500000       0.06250000 </v>
   <v>       0.50000000       0.37500000       0.06250000 </v>
   <v>      -0.43750000       0.37500000       0.06250000 </v>
   <v>      -0.37500000       0.37500000       0.06250000 </v>
   <v>      -0.31250000       0.37500000       0.06250000 </v>
   <v>       0.50000000       0.43750000       0.06250000 </v>
   <v>      -0.43750000       0.43750000       0.06250000 </v>
   <v>      -0.37500000       0.43750000       0.06250000 </v>
   <v>      -0.43750000       0.50000000       0.06250000 </v>
   <v>       0.37500000       0.25000000       0.12500000 </v>
   <v>       0.43750000       0.25000000       0.12500000 </v>
   <v>       0.50000000       0.25000000       0.12500000 </v>
   <v>      -0.43750000       0.25000000       0.12500000 </v>
   <v>      -0.37500000       0.25000000       0.12500000 </v>
   <v>       0.43750000       0.31250000       0.12500000 </v>
   <v>       0.50000000       0.31250000       0.12500000 </v>
   <v>      -0.43750000       0.31250000       0.12500000 </v>
   <v>      -0.37500000       0.31250000       0.12500000 </v>
   <v>      -0.31250000       0.31250000       0.12500000 </v>
   <v>      -0.25000000       0.31250000       0.12500000 </v>
   <v>      -0.18750000       0.31250000       0.12500000 </v>
   <v>       0.50000000       0.37500000       0.12500000 </v>
   <v>      -0.43750000       0.37500000       0.12500000 </v>
   <v>      -0.37500000       0.37500000       0.12500000 </v>
   <v>      -0.31250000       0.37500000       0.12500000 </v>
   <v>      -0.25000000       0.37500000       0.12500000 </v>
   <v>      -0.43750000       0.43750000       0.12500000 </v>
   <v>      -0.37500000       0.43750000       0.12500000 </v>
   <v>      -0.31250000       0.43750000       0.12500000 </v>
   <v>      -0.37500000       0.50000000       0.12500000 </v>
   <v>      -0.43750000       0.37500000       0.18750000 </v>
   <v>      -0.37500000       0.37500000       0.18750000 </v>
   <v>      -0.31250000       0.37500000       0.18750000 </v>
   <v>      -0.37500000       0.43750000       0.18750000 </v>
   <v>      -0.31250000       0.43750000       0.18750000 </v>
   <v>      -0.25000000       0.43750000       0.18750000 </v>
   <v>      -0.31250000       0.50000000       0.18750000 </v>
   <v>      -0.25000000       0.50000000       0.25000000 </v>
  </varray>
  <varray name="weights" >
   <v>       0.00024414 </v>
   <v>       0.00195312 </v>
   <v>       0.00195312 </v>
   <v>       0.00195312 </v>
   <v>       0.00195312 </v>
   <v>       0.00195312 </v>
   <v>       0.00195312 </v>
   <v>       0.00195312 </v>
   <v>       0.00097656 </v>
   <v>       0.00146484 </v>
   <v>       0.00585938 </v>
   <v>       0.00585938 </v>
   <v>       0.00585938 </v>
   <v>       0.00585938 </v>
   <v>       0.00585938 </v>
   <v>       0.00585938 </v>
   <v>       0.00585938 </v>
   <v>       0.00585938 </v>
   <v>       0.00585938 </v>
   <v>       0.00585938 </v>
   <v>       0.00585938 </v>
   <v>       0.00585938 </v>
   <v>       0.00585938 </v>
   <v>       0.00292969 </v>
   <v>       0.00146484 </v>
   <v>       0.00585938 </v>
   <v>       0.00585938 </v>
   <v>       0.00585938 </v>
   <v>       0.00585938 </v>
   <v>       0.00585938 </v>
   <v>       0.00585938 </v>
   <v>       0.00585938 </v>
   <v>       0.00585938 </v>
   <v>       0.00585938 </v>
   <v>       0.00585938 </v>
   <v>       0.00585938 </v>
   <v>       0.00292969 </v>
   <v>       0.00146484 </v>
   <v>       0.00585938 </v>
   <v>       0.00585938 </v>
   <v>       0.00585938 </v>
   <v>       0.00585938 </v>
   <v>       0.00585938 </v>
   <v>       0.00585938 </v>
   <v>       0.00585938 </v>
   <v>       0.00585938 </v>
   <v>       0.00585938 </v>
   <v>       0.00292969 </v>
   <v>       0.00146484 </v>
   <v>       0.00585938 </v>
   <v>       0.00585938 </v>
   <v>       0.00585938 </v>
   <v>       0.00585938 </v>
   <v>       0.00585938 </v>
   <v>       0.00585938 </v>
   <v>       0.00585938 </v>
   <v>       0.00292969 </v>
   <v>       0.00146484 </v>
   <v>       0.00585938 </v>
   <v>       0.00585938 </v>
   <v>       0.00585938 </v>
   <v>       0.00585938 </v>
   <v>       0.00585938 </v>
   <v>       0.00292969 </v>
   <v>       0.00146484 </v>
   <v>       0.00585938 </v>
   <v>       0.00585938 </v>
   <v>       0.00585938 </v>
   <v>       0.00292969 </v>
   <v>       0.00146484 </v>
   <v>       0.00585938 </v>
   <v>       0.00292969 </v>
   <v>       0.00073242 </v>
   <v>       0.00585938 </v>
   <v>       0.01171875 </v>
   <v>       0.01171875 </v>
   <v>       0.01171875 </v>
   <v>       0.01171875 </v>
   <v>       0.01171875 </v>
   <v>       0.00585938 </v>
   <v>       0.00585938 </v>
   <v>       0.01171875 </v>
   <v>       0.01171875 </v>
   <v>       0.01171875 </v>
   <v>       0.01171875 </v>
   <v>       0.01171875 </v>
   <v>       0.01171875 </v>
   <v>       0.01171875 </v>
   <v>       0.01171875 </v>
   <v>       0.01171875 </v>
   <v>       0.00585938 </v>
   <v>       0.00585938 </v>
   <v>       0.01171875 </v>
   <v>       0.01171875 </v>
   <v>       0.01171875 </v>
   <v>       0.01171875 </v>
   <v>       0.01171875 </v>
   <v>       0.01171875 </v>
   <v>       0.01171875 </v>
   <v>       0.00585938 </v>
   <v>       0.00585938 </v>
   <v>       0.01171875 </v>
   <v>       0.01171875 </v>
   <v>       0.01171875 </v>
   <v>       0.01171875 </v>
   <v>       0.01171875 </v>
   <v>       0.00585938 </v>
   <v>       0.00585938 </v>
   <v>       0.01171875 </v>
   <v>       0.01171875 </v>
   <v>       0.01171875 </v>
   <v>       0.00585938 </v>
   <v>       0.00585938 </v>
   <v>       0.01171875 </v>
   <v>       0.00585938 </v>
   <v>       0.00292969 </v>
   <v>       0.00585938 </v>
   <v>       0.01171875 </v>
   <v>       0.01171875 </v>
   <v>       0.01171875 </v>
   <v>       0.00585938 </v>
   <v>       0.00585938 </v>
   <v>       0.01171875 </v>
   <v>       0.01171875 </v>
   <v>       0.01171875 </v>
   <v>       0.01171875 </v>
   <v>       0.01171875 </v>
   <v>       0.00585938 </v>
   <v>       0.00585938 </v>
   <v>       0.01171875 </v>
   <v>       0.01171875 </v>
   <v>       0.01171875 </v>
   <v>       0.00585938 </v>
   <v>       0.00585938 </v>
   <v>       0.01171875 </v>
   <v>       0.00585938 </v>
   <v>       0.00292969 </v>
   <v>       0.00585938 </v>
   <v>       0.01171875 </v>
   <v>       0.00585938 </v>
   <v>       0.00585938 </v>
   <v>       0.01171875 </v>
   <v>       0.00585938 </v>
   <v>       0.00292969 </v>
   <v>       0.00146484 </v>
  </varray>
  <varray name="tetrahedronlist"  type="int" >
   <v type="int" >       24        1        2        2       10 </v>
   <v type="int" >       48        2       10       11       24 </v>
   <v type="int" >       48        2        3       11       24 </v>
   <v type="int" >       24        2        2       10       24 </v>
   <v type="int" >       48        3       11       12       23 </v>
   <v type="int" >       48        3        4       12       23 </v>
   <v type="int" >       48        3       11       23       24 </v>
   <v type="int" >       48        4       12       13       22 </v>
   <v type="int" >       48        4        5       13       22 </v>
   <v type="int" >       48        4       12       22       23 </v>
   <v type="int" >       48        5       13       14       21 </v>
   <v type="int" >       48        5        6       14       21 </v>
   <v type="int" >       48        5       13       21       22 </v>
   <v type="int" >       48        6       14       15       20 </v>
   <v type="int" >       48        6        7       15       20 </v>
   <v type="int" >       48        6       14       20       21 </v>
   <v type="int" >       48        7       15       16       19 </v>
   <v type="int" >       48        7        8       16       19 </v>
   <v type="int" >       48        7       15       19       20 </v>
   <v type="int" >       48        8       16       17       18 </v>
   <v type="int" >       48        8        9       17       18 </v>
   <v type="int" >       48        8       16       18       19 </v>
   <v type="int" >       48        9       17       17       18 </v>
   <v type="int" >       24       10       11       11       25 </v>
   <v type="int" >       24       10       11       11       24 </v>
   <v type="int" >       48       11       25       26       74 </v>
   <v type="int" >       48       11       12       26       74 </v>
   <v type="int" >       48       11       12       23       74 </v>
   <v type="int" >       24       11       11       25       74 </v>
   <v type="int" >       24       11       11       24       74 </v>
   <v type="int" >       48       11       23       24       74 </v>
   <v type="int" >       48       12       26       27       75 </v>
   <v type="int" >       48       12       13       27       75 </v>
   <v type="int" >       48       12       13       22       75 </v>
   <v type="int" >       48       12       26       74       75 </v>
   <v type="int" >       48       12       23       74       75 </v>
   <v type="int" >       48       12       22       23       75 </v>
   <v type="int" >       48       13       27       28       76 </v>
   <v type="int" >       48       13       14       28       76 </v>
   <v type="int" >       48       13       14       21       76 </v>
   <v type="int" >       48       13       27       75       76 </v>
   <v type="int" >       48       13       22       75       76 </v>
   <v type="int" >       48       13       21       22       76 </v>
   <v type="int" >       48       14       28       29       77 </v>
   <v type="int" >       48       14       15       29       77 </v>
   <v type="int" >       48       14       15       20       77 </v>
   <v type="int" >       48       14       28       76       77 </v>
   <v type="int" >       48       14       21       76       77 </v>
   <v type="int" >       48       14       20       21       77 </v>
   <v type="int" >       48       15       29       30       78 </v>
   <v type="int" >       48       15       16       30       78 </v>
   <v type="int" >       48       15       16       19       78 </v>
   <v type="int" >       48       15       29       77       78 </v>
   <v type="int" >       48       15       20       77       78 </v>
   <v type="int" >       48       15       19       20       78 </v>
   <v type="int" >       48       16       30       31       79 </v>
   <v type="int" >       48       16       17       31       79 </v>
   <v type="int" >       48       16       17       18       79 </v>
   <v type="int" >       48       16       30       78       79 </v>
   <v type="int" >       48       16       19       78       79 </v>
   <v type="int" >       48       16       18       19       79 </v>
   <v type="int" >       48       17       31       32       80 </v>
   <v type="int" >       48       17       18       32       80 </v>
   <v type="int" >       48       17       17       18       80 </v>
   <v type="int" >       48       17       31       79       80 </v>
   <v type="int" >       48       17       18       79       80 </v>
   <v type="int" >       48       18       32       33       79 </v>
   <v type="int" >       48       18       19       33       79 </v>
   <v type="int" >       48       18       32       79       80 </v>
   <v type="int" >       48       19       33       34       78 </v>
   <v type="int" >       48       19       20       34       78 </v>
   <v type="int" >       48       19       33       78       79 </v>
   <v type="int" >       48       20       34       35       77 </v>
   <v type="int" >       48       20       21       35       77 </v>
   <v type="int" >       48       20       34       77       78 </v>
   <v type="int" >       48       21       35       36       76 </v>
   <v type="int" >       48       21       22       36       76 </v>
   <v type="int" >       48       21       35       76       77 </v>
   <v type="int" >       48       22       36       37       75 </v>
   <v type="int" >       48       22       23       37       75 </v>
   <v type="int" >       48       22       36       75       76 </v>
   <v type="int" >       24       23       23       37       74 </v>
   <v type="int" >       24       23       23       24       74 </v>
   <v type="int" >       48       23       37       74       75 </v>
   <v type="int" >       24       25       26       26       38 </v>
   <v type="int" >       24       25       26       26       74 </v>
   <v type="int" >       48       26       38       39       81 </v>
   <v type="int" >       48       26       27       39       81 </v>
   <v type="int" >       48       26       27       75       81 </v>
   <v type="int" >       24       26       26       38       81 </v>
   <v type="int" >       24       26       26       74       81 </v>
   <v type="int" >       48       26       74       75       81 </v>
   <v type="int" >       48       27       39       40       82 </v>
   <v type="int" >       48       27       28       40       82 </v>
   <v type="int" >       48       27       28       76       82 </v>
   <v type="int" >       48       27       39       81       82 </v>
   <v type="int" >       48       27       75       81       82 </v>
   <v type="int" >       48       27       75       76       82 </v>
   <v type="int" >       48       28       40       41       83 </v>
   <v type="int" >       48       28       29       41       83 </v>
   <v type="int" >       48       28       29       77       83 </v>
   <v type="int" >       48       28       40       82       83 </v>
   <v type="int" >       48       28       76       82       83 </v>
   <v type="int" >       48       28       76       77       83 </v>
   <v type="int" >       48       29       41       42       84 </v>
   <v type="int" >       48       29       30       42       84 </v>
   <v type="int" >       48       29       30       78       84 </v>
   <v type="int" >       48       29       41       83       84 </v>
   <v type="int" >       48       29       77       83       84 </v>
   <v type="int" >       48       29       77       78       84 </v>
   <v type="int" >       48       30       42       43       85 </v>
   <v type="int" >       48       30       31       43       85 </v>
   <v type="int" >       48       30       31       79       85 </v>
   <v type="int" >       48       30       42       84       85 </v>
   <v type="int" >       48       30       78       84       85 </v>
   <v type="int" >       48       30       78       79       85 </v>
   <v type="int" >       48       31       43       44       86 </v>
   <v type="int" >       48       31       32       44       86 </v>
   <v type="int" >       48       31       32       80       86 </v>
   <v type="int" >       48       31       43       85       86 </v>
   <v type="int" >       48       31       79       85       86 </v>
   <v type="int" >       48       31       79       80       86 </v>
   <v type="int" >       48       32       44       45       87 </v>
   <v type="int" >       48       32       33       45       87 </v>
   <v type="int" >       48       32       33       79       87 </v>
   <v type="int" >       48       32       44       86       87 </v>
   <v type="int" >       48       32       80       86       87 </v>
   <v type="int" >       48       32       79       80       87 </v>
   <v type="int" >       48       33       45       46       88 </v>
   <v type="int" >       48       33       34       46       88 </v>
   <v type="int" >       48       33       34       78       88 </v>
   <v type="int" >       48       33       45       87       88 </v>
   <v type="int" >       48       33       79       87       88 </v>
   <v type="int" >       48       33       78       79       88 </v>
   <v type="int" >       48       34       46       47       89 </v>
   <v type="int" >       48       34       35       47       89 </v>
   <v type="int" >       48       34       35       77       89 </v>
   <v type="int" >       48       34       46       88       89 </v>
   <v type="int" >       48       34       78       88       89 </v>
   <v type="int" >       48       34       77       78       89 </v>
   <v type="int" >       48       35       47       48       90 </v>
   <v type="int" >       48       35       36       48       90 </v>
   <v type="int" >       48       35       36       76       90 </v>
   <v type="int" >       48       35       47       89       90 </v>
   <v type="int" >       48       35       77       89       90 </v>
   <v type="int" >       48       35       76       77       90 </v>
   <v type="int" >       24       36       36       48       91 </v>
   <v type="int" >       24       36       36       37       91 </v>
   <v type="int" >       48       36       37       75       91 </v>
   <v type="int" >       48       36       48       90       91 </v>
   <v type="int" >       48       36       76       90       91 </v>
   <v type="int" >       48       36       75       76       91 </v>
   <v type="int" >       24       37       75       75       91 </v>
   <v type="int" >       24       37       74       75       75 </v>
   <v type="int" >       24       38       39       39       49 </v>
   <v type="int" >       24       38       39       39       81 </v>
   <v type="int" >       48       39       49       50       92 </v>
   <v type="int" >       48       39       40       50       92 </v>
   <v type="int" >       48       39       40       82       92 </v>
   <v type="int" >       24       39       39       49       92 </v>
   <v type="int" >       24       39       39       81       92 </v>
   <v type="int" >       48       39       81       82       92 </v>
   <v type="int" >       48       40       50       51       93 </v>
   <v type="int" >       48       40       41       51       93 </v>
   <v type="int" >       48       40       41       83       93 </v>
   <v type="int" >       48       40       50       92       93 </v>
   <v type="int" >       48       40       82       92       93 </v>
   <v type="int" >       48       40       82       83       93 </v>
   <v type="int" >       48       41       51       52       94 </v>
   <v type="int" >       48       41       42       52       94 </v>
   <v type="int" >       48       41       42       84       94 </v>
   <v type="int" >       48       41       51       93       94 </v>
   <v type="int" >       48       41       83       93       94 </v>
   <v type="int" >       48       41       83       84       94 </v>
   <v type="int" >       48       42       52       53       95 </v>
   <v type="int" >       48       42       43       53       95 </v>
   <v type="int" >       48       42       43       85       95 </v>
   <v type="int" >       48       42       52       94       95 </v>
   <v type="int" >       48       42       84       94       95 </v>
   <v type="int" >       48       42       84       85       95 </v>
   <v type="int" >       48       43       53       54       96 </v>
   <v type="int" >       48       43       44       54       96 </v>
   <v type="int" >       48       43       44       86       96 </v>
   <v type="int" >       48       43       53       95       96 </v>
   <v type="int" >       48       43       85       95       96 </v>
   <v type="int" >       48       43       85       86       96 </v>
   <v type="int" >       48       44       54       55       97 </v>
   <v type="int" >       48       44       45       55       97 </v>
   <v type="int" >       48       44       45       87       97 </v>
   <v type="int" >       48       44       54       96       97 </v>
   <v type="int" >       48       44       86       96       97 </v>
   <v type="int" >       48       44       86       87       97 </v>
   <v type="int" >       48       45       55       56       98 </v>
   <v type="int" >       48       45       46       56       98 </v>
   <v type="int" >       48       45       46       88       98 </v>
   <v type="int" >       48       45       55       97       98 </v>
   <v type="int" >       48       45       87       97       98 </v>
   <v type="int" >       48       45       87       88       98 </v>
   <v type="int" >       48       46       56       57       99 </v>
   <v type="int" >       48       46       47       57       99 </v>
   <v type="int" >       48       46       47       89       99 </v>
   <v type="int" >       48       46       56       98       99 </v>
   <v type="int" >       48       46       88       98       99 </v>
   <v type="int" >       48       46       88       89       99 </v>
   <v type="int" >       24       47       47       57      100 </v>
   <v type="int" >       24       47       47       48      100 </v>
   <v type="int" >       48       47       48       90      100 </v>
   <v type="int" >       48       47       57       99      100 </v>
   <v type="int" >       48       47       89       99      100 </v>
   <v type="int" >       48       47       89       90      100 </v>
   <v type="int" >       24       48       90       90      100 </v>
   <v type="int" >       24       48       90       90       91 </v>
   <v type="int" >       24       49       50       50       58 </v>
   <v type="int" >       24       49       50       50       92 </v>
   <v type="int" >       48       50       58       59      101 </v>
   <v type="int" >       48       50       51       59      101 </v>
   <v type="int" >       48       50       51       93      101 </v>
   <v type="int" >       24       50       50       58      101 </v>
   <v type="int" >       24       50       50       92      101 </v>
   <v type="int" >       48       50       92       93      101 </v>
   <v type="int" >       48       51       59       60      102 </v>
   <v type="int" >       48       51       52       60      102 </v>
   <v type="int" >       48       51       52       94      102 </v>
   <v type="int" >       48       51       59      101      102 </v>
   <v type="int" >       48       51       93      101      102 </v>
   <v type="int" >       48       51       93       94      102 </v>
   <v type="int" >       48       52       60       61      103 </v>
   <v type="int" >       48       52       53       61      103 </v>
   <v type="int" >       48       52       53       95      103 </v>
   <v type="int" >       48       52       60      102      103 </v>
   <v type="int" >       48       52       94      102      103 </v>
   <v type="int" >       48       52       94       95      103 </v>
   <v type="int" >       48       53       61       62      104 </v>
   <v type="int" >       48       53       54       62      104 </v>
   <v type="int" >       48       53       54       96      104 </v>
   <v type="int" >       48       53       61      103      104 </v>
   <v type="int" >       48       53       95      103      104 </v>
   <v type="int" >       48       53       95       96      104 </v>
   <v type="int" >       48       54       62       63      105 </v>
   <v type="int" >       48       54       55       63      105 </v>
   <v type="int" >       48       54       55       97      105 </v>
   <v type="int" >       48       54       62      104      105 </v>
   <v type="int" >       48       54       96      104      105 </v>
   <v type="int" >       48       54       96       97      105 </v>
   <v type="int" >       48       55       63       64      106 </v>
   <v type="int" >       48       55       56       64      106 </v>
   <v type="int" >       48       55       56       98      106 </v>
   <v type="int" >       48       55       63      105      106 </v>
   <v type="int" >       48       55       97      105      106 </v>
   <v type="int" >       48       55       97       98      106 </v>
   <v type="int" >       24       56       56       64      107 </v>
   <v type="int" >       24       56       56       57      107 </v>
   <v type="int" >       48       56       57       99      107 </v>
   <v type="int" >       48       56       64      106      107 </v>
   <v type="int" >       48       56       98      106      107 </v>
   <v type="int" >       48       56       98       99      107 </v>
   <v type="int" >       24       57       99       99      107 </v>
   <v type="int" >       24       57       99       99      100 </v>
   <v type="int" >       24       58       59       59       65 </v>
   <v type="int" >       24       58       59       59      101 </v>
   <v type="int" >       48       59       65       66      108 </v>
   <v type="int" >       48       59       60       66      108 </v>
   <v type="int" >       48       59       60      102      108 </v>
   <v type="int" >       24       59       59       65      108 </v>
   <v type="int" >       24       59       59      101      108 </v>
   <v type="int" >       48       59      101      102      108 </v>
   <v type="int" >       48       60       66       67      109 </v>
   <v type="int" >       48       60       61       67      109 </v>
   <v type="int" >       48       60       61      103      109 </v>
   <v type="int" >       48       60       66      108      109 </v>
   <v type="int" >       48       60      102      108      109 </v>
   <v type="int" >       48       60      102      103      109 </v>
   <v type="int" >       48       61       67       68      110 </v>
   <v type="int" >       48       61       62       68      110 </v>
   <v type="int" >       48       61       62      104      110 </v>
   <v type="int" >       48       61       67      109      110 </v>
   <v type="int" >       48       61      103      109      110 </v>
   <v type="int" >       48       61      103      104      110 </v>
   <v type="int" >       48       62       68       69      111 </v>
   <v type="int" >       48       62       63       69      111 </v>
   <v type="int" >       48       62       63      105      111 </v>
   <v type="int" >       48       62       68      110      111 </v>
   <v type="int" >       48       62      104      110      111 </v>
   <v type="int" >       48       62      104      105      111 </v>
   <v type="int" >       24       63       63       69      112 </v>
   <v type="int" >       24       63       63       64      112 </v>
   <v type="int" >       48       63       64      106      112 </v>
   <v type="int" >       48       63       69      111      112 </v>
   <v type="int" >       48       63      105      111      112 </v>
   <v type="int" >       48       63      105      106      112 </v>
   <v type="int" >       24       64      106      106      112 </v>
   <v type="int" >       24       64      106      106      107 </v>
   <v type="int" >       24       65       66       66       70 </v>
   <v type="int" >       24       65       66       66      108 </v>
   <v type="int" >       48       66       70       71      113 </v>
   <v type="int" >       48       66       67       71      113 </v>
   <v type="int" >       48       66       67      109      113 </v>
   <v type="int" >       24       66       66       70      113 </v>
   <v type="int" >       24       66       66      108      113 </v>
   <v type="int" >       48       66      108      109      113 </v>
   <v type="int" >       48       67       71       72      114 </v>
   <v type="int" >       48       67       68       72      114 </v>
   <v type="int" >       48       67       68      110      114 </v>
   <v type="int" >       48       67       71      113      114 </v>
   <v type="int" >       48       67      109      113      114 </v>
   <v type="int" >       48       67      109      110      114 </v>
   <v type="int" >       24       68       68       72      115 </v>
   <v type="int" >       24       68       68       69      115 </v>
   <v type="int" >       48       68       69      111      115 </v>
   <v type="int" >       48       68       72      114      115 </v>
   <v type="int" >       48       68      110      114      115 </v>
   <v type="int" >       48       68      110      111      115 </v>
   <v type="int" >       24       69      111      111      115 </v>
   <v type="int" >       24       69      111      111      112 </v>
   <v type="int" >       24       70       71       71       73 </v>
   <v type="int" >       24       70       71       71      113 </v>
   <v type="int" >       48       71       71       73      116 </v>
   <v type="int" >       24       71       71       72      116 </v>
   <v type="int" >       48       71       72      114      116 </v>
   <v type="int" >       24       71       71      113      116 </v>
   <v type="int" >       48       71      113      114      116 </v>
   <v type="int" >       24       72      114      114      116 </v>
   <v type="int" >       24       72      114      114      115 </v>
   <v type="int" >       24       74       75       75       81 </v>
   <v type="int" >       48       75       81       82       91 </v>
   <v type="int" >       48       75       76       82       91 </v>
   <v type="int" >       24       75       75       81       91 </v>
   <v type="int" >       48       76       82       83       90 </v>
   <v type="int" >       48       76       77       83       90 </v>
   <v type="int" >       48       76       82       90       91 </v>
   <v type="int" >       48       77       83       84       89 </v>
   <v type="int" >       48       77       78       84       89 </v>
   <v type="int" >       48       77       83       89       90 </v>
   <v type="int" >       48       78       84       85       88 </v>
   <v type="int" >       48       78       79       85       88 </v>
   <v type="int" >       48       78       84       88       89 </v>
   <v type="int" >       48       79       85       86       87 </v>
   <v type="int" >       48       79       80       86       87 </v>
   <v type="int" >       48       79       85       87       88 </v>
   <v type="int" >       48       80       86       86       87 </v>
   <v type="int" >       24       81       82       82       92 </v>
   <v type="int" >       24       81       82       82       91 </v>
   <v type="int" >       48       82       92       93      117 </v>
   <v type="int" >       48       82       83       93      117 </v>
   <v type="int" >       48       82       83       90      117 </v>
   <v type="int" >       24       82       82       92      117 </v>
   <v type="int" >       24       82       82       91      117 </v>
   <v type="int" >       48       82       90       91      117 </v>
   <v type="int" >       48       83       93       94      118 </v>
   <v type="int" >       48       83       84       94      118 </v>
   <v type="int" >       48       83       84       89      118 </v>
   <v type="int" >       48       83       93      117      118 </v>
   <v type="int" >       48       83       90      117      118 </v>
   <v type="int" >       48       83       89       90      118 </v>
   <v type="int" >       48       84       94       95      119 </v>
   <v type="int" >       48       84       85       95      119 </v>
   <v type="int" >       48       84       85       88      119 </v>
   <v type="int" >       48       84       94      118      119 </v>
   <v type="int" >       48       84       89      118      119 </v>
   <v type="int" >       48       84       88       89      119 </v>
   <v type="int" >       48       85       95       96      120 </v>
   <v type="int" >       48       85       86       96      120 </v>
   <v type="int" >       48       85       86       87      120 </v>
   <v type="int" >       48       85       95      119      120 </v>
   <v type="int" >       48       85       88      119      120 </v>
   <v type="int" >       48       85       87       88      120 </v>
   <v type="int" >       48       86       96       97      121 </v>
   <v type="int" >       48       86       87       97      121 </v>
   <v type="int" >       48       86       86       87      121 </v>
   <v type="int" >       48       86       96      120      121 </v>
   <v type="int" >       48       86       87      120      121 </v>
   <v type="int" >       48       87       97       98      120 </v>
   <v type="int" >       48       87       88       98      120 </v>
   <v type="int" >       48       87       97      120      121 </v>
   <v type="int" >       48       88       98       99      119 </v>
   <v type="int" >       48       88       89       99      119 </v>
   <v type="int" >       48       88       98      119      120 </v>
   <v type="int" >       48       89       99      100      118 </v>
   <v type="int" >       48       89       90      100      118 </v>
   <v type="int" >       48       89       99      118      119 </v>
   <v type="int" >       24       90       90      100      117 </v>
   <v type="int" >       24       90       90       91      117 </v>
   <v type="int" >       48       90      100      117      118 </v>
   <v type="int" >       24       92       93       93      101 </v>
   <v type="int" >       24       92       93       93      117 </v>
   <v type="int" >       48       93      101      102      122 </v>
   <v type="int" >       48       93       94      102      122 </v>
   <v type="int" >       48       93       94      118      122 </v>
   <v type="int" >       24       93       93      101      122 </v>
   <v type="int" >       24       93       93      117      122 </v>
   <v type="int" >       48       93      117      118      122 </v>
   <v type="int" >       48       94      102      103      123 </v>
   <v type="int" >       48       94       95      103      123 </v>
   <v type="int" >       48       94       95      119      123 </v>
   <v type="int" >       48       94      102      122      123 </v>
   <v type="int" >       48       94      118      122      123 </v>
   <v type="int" >       48       94      118      119      123 </v>
   <v type="int" >       48       95      103      104      124 </v>
   <v type="int" >       48       95       96      104      124 </v>
   <v type="int" >       48       95       96      120      124 </v>
   <v type="int" >       48       95      103      123      124 </v>
   <v type="int" >       48       95      119      123      124 </v>
   <v type="int" >       48       95      119      120      124 </v>
   <v type="int" >       48       96      104      105      125 </v>
   <v type="int" >       48       96       97      105      125 </v>
   <v type="int" >       48       96       97      121      125 </v>
   <v type="int" >       48       96      104      124      125 </v>
   <v type="int" >       48       96      120      124      125 </v>
   <v type="int" >       48       96      120      121      125 </v>
   <v type="int" >       48       97      105      106      126 </v>
   <v type="int" >       48       97       98      106      126 </v>
   <v type="int" >       48       97       98      120      126 </v>
   <v type="int" >       48       97      105      125      126 </v>
   <v type="int" >       48       97      121      125      126 </v>
   <v type="int" >       48       97      120      121      126 </v>
   <v type="int" >       48       98      106      107      127 </v>
   <v type="int" >       48       98       99      107      127 </v>
   <v type="int" >       48       98       99      119      127 </v>
   <v type="int" >       48       98      106      126      127 </v>
   <v type="int" >       48       98      120      126      127 </v>
   <v type="int" >       48       98      119      120      127 </v>
   <v type="int" >       24       99       99      107      128 </v>
   <v type="int" >       24       99       99      100      128 </v>
   <v type="int" >       48       99      100      118      128 </v>
   <v type="int" >       48       99      107      127      128 </v>
   <v type="int" >       48       99      119      127      128 </v>
   <v type="int" >       48       99      118      119      128 </v>
   <v type="int" >       24      100      118      118      128 </v>
   <v type="int" >       24      100      117      118      118 </v>
   <v type="int" >       24      101      102      102      108 </v>
   <v type="int" >       24      101      102      102      122 </v>
   <v type="int" >       48      102      108      109      129 </v>
   <v type="int" >       48      102      103      109      129 </v>
   <v type="int" >       48      102      103      123      129 </v>
   <v type="int" >       24      102      102      108      129 </v>
   <v type="int" >       24      102      102      122      129 </v>
   <v type="int" >       48      102      122      123      129 </v>
   <v type="int" >       48      103      109      110      130 </v>
   <v type="int" >       48      103      104      110      130 </v>
   <v type="int" >       48      103      104      124      130 </v>
   <v type="int" >       48      103      109      129      130 </v>
   <v type="int" >       48      103      123      129      130 </v>
   <v type="int" >       48      103      123      124      130 </v>
   <v type="int" >       48      104      110      111      131 </v>
   <v type="int" >       48      104      105      111      131 </v>
   <v type="int" >       48      104      105      125      131 </v>
   <v type="int" >       48      104      110      130      131 </v>
   <v type="int" >       48      104      124      130      131 </v>
   <v type="int" >       48      104      124      125      131 </v>
   <v type="int" >       48      105      111      112      132 </v>
   <v type="int" >       48      105      106      112      132 </v>
   <v type="int" >       48      105      106      126      132 </v>
   <v type="int" >       48      105      111      131      132 </v>
   <v type="int" >       48      105      125      131      132 </v>
   <v type="int" >       48      105      125      126      132 </v>
   <v type="int" >       24      106      106      112      133 </v>
   <v type="int" >       24      106      106      107      133 </v>
   <v type="int" >       48      106      107      127      133 </v>
   <v type="int" >       48      106      112      132      133 </v>
   <v type="int" >       48      106      126      132      133 </v>
   <v type="int" >       48      106      126      127      133 </v>
   <v type="int" >       24      107      127      127      133 </v>
   <v type="int" >       24      107      127      127      128 </v>
   <v type="int" >       24      108      109      109      113 </v>
   <v type="int" >       24      108      109      109      129 </v>
   <v type="int" >       48      109      113      114      134 </v>
   <v type="int" >       48      109      110      114      134 </v>
   <v type="int" >       48      109      110      130      134 </v>
   <v type="int" >       24      109      109      113      134 </v>
   <v type="int" >       24      109      109      129      134 </v>
   <v type="int" >       48      109      129      130      134 </v>
   <v type="int" >       48      110      114      115      135 </v>
   <v type="int" >       48      110      111      115      135 </v>
   <v type="int" >       48      110      111      131      135 </v>
   <v type="int" >       48      110      114      134      135 </v>
   <v type="int" >       48      110      130      134      135 </v>
   <v type="int" >       48      110      130      131      135 </v>
   <v type="int" >       24      111      111      115      136 </v>
   <v type="int" >       24      111      111      112      136 </v>
   <v type="int" >       48      111      112      132      136 </v>
   <v type="int" >       48      111      115      135      136 </v>
   <v type="int" >       48      111      131      135      136 </v>
   <v type="int" >       48      111      131      132      136 </v>
   <v type="int" >       24      112      132      132      136 </v>
   <v type="int" >       24      112      132      132      133 </v>
   <v type="int" >       24      113      114      114      116 </v>
   <v type="int" >       24      113      114      114      134 </v>
   <v type="int" >       48      114      114      116      137 </v>
   <v type="int" >       24      114      114      115      137 </v>
   <v type="int" >       48      114      115      135      137 </v>
   <v type="int" >       24      114      114      134      137 </v>
   <v type="int" >       48      114      134      135      137 </v>
   <v type="int" >       24      115      135      135      137 </v>
   <v type="int" >       24      115      135      135      136 </v>
   <v type="int" >       24      117      118      118      122 </v>
   <v type="int" >       48      118      122      123      128 </v>
   <v type="int" >       48      118      119      123      128 </v>
   <v type="int" >       24      118      118      122      128 </v>
   <v type="int" >       48      119      123      124      127 </v>
   <v type="int" >       48      119      120      124      127 </v>
   <v type="int" >       48      119      123      127      128 </v>
   <v type="int" >       48      120      124      125      126 </v>
   <v type="int" >       48      120      121      125      126 </v>
   <v type="int" >       48      120      124      126      127 </v>
   <v type="int" >       48      121      125      125      126 </v>
   <v type="int" >       24      122      123      123      129 </v>
   <v type="int" >       24      122      123      123      128 </v>
   <v type="int" >       48      123      129      130      138 </v>
   <v type="int" >       48      123      124      130      138 </v>
   <v type="int" >       48      123      124      127      138 </v>
   <v type="int" >       24      123      123      129      138 </v>
   <v type="int" >       24      123      123      128      138 </v>
   <v type="int" >       48      123      127      128      138 </v>
   <v type="int" >       48      124      130      131      139 </v>
   <v type="int" >       48      124      125      131      139 </v>
   <v type="int" >       48      124      125      126      139 </v>
   <v type="int" >       48      124      130      138      139 </v>
   <v type="int" >       48      124      127      138      139 </v>
   <v type="int" >       48      124      126      127      139 </v>
   <v type="int" >       48      125      131      132      140 </v>
   <v type="int" >       48      125      126      132      140 </v>
   <v type="int" >       48      125      125      126      140 </v>
   <v type="int" >       48      125      131      139      140 </v>
   <v type="int" >       48      125      126      139      140 </v>
   <v type="int" >       48      126      132      133      139 </v>
   <v type="int" >       48      126      127      133      139 </v>
   <v type="int" >       48      126      132      139      140 </v>
   <v type="int" >       24      127      127      133      138 </v>
   <v type="int" >       24      127      127      128      138 </v>
   <v type="int" >       48      127      133      138      139 </v>
   <v type="int" >       24      129      130      130      134 </v>
   <v type="int" >       24      129      130      130      138 </v>
   <v type="int" >       48      130      134      135      141 </v>
   <v type="int" >       48      130      131      135      141 </v>
   <v type="int" >       48      130      131      139      141 </v>
   <v type="int" >       24      130      130      134      141 </v>
   <v type="int" >       24      130      130      138      141 </v>
   <v type="int" >       48      130      138      139      141 </v>
   <v type="int" >       48      131      135      136      142 </v>
   <v type="int" >       48      131      132      136      142 </v>
   <v type="int" >       48      131      132      140      142 </v>
   <v type="int" >       48      131      135      141      142 </v>
   <v type="int" >       48      131      139      141      142 </v>
   <v type="int" >       48      131      139      140      142 </v>
   <v type="int" >       24      132      132      136      143 </v>
   <v type="int" >       24      132      132      133      143 </v>
   <v type="int" >       48      132      133      139      143 </v>
   <v type="int" >       48      132      136      142      143 </v>
   <v type="int" >       48      132      140      142      143 </v>
   <v type="int" >       48      132      139      140      143 </v>
   <v type="int" >       24      133      139      139      143 </v>
   <v type="int" >       24      133      138      139      139 </v>
   <v type="int" >       24      134      135      135      137 </v>
   <v type="int" >       24      134      135      135      141 </v>
   <v type="int" >       48      135      135      137      144 </v>
   <v type="int" >       24      135      135      136      144 </v>
   <v type="int" >       48      135      136      142      144 </v>
   <v type="int" >       24      135      135      141      144 </v>
   <v type="int" >       48      135      141      142      144 </v>
   <v type="int" >       24      136      142      142      144 </v>
   <v type="int" >       24      136      142      142      143 </v>
   <v type="int" >       24      138      139      139      141 </v>
   <v type="int" >       48      139      141      142      143 </v>
   <v type="int" >       48      139      140      142      143 </v>
   <v type="int" >       24      139      139      141      143 </v>
   <v type="int" >       48      140      142      142      143 </v>
   <v type="int" >       24      141      142      142      144 </v>
   <v type="int" >       24      141      142      142      143 </v>
   <v type="int" >       48      142      142      144      145 </v>
   <v type="int" >       96      142      142      143      145 </v>
  </varray>
  <i name="volumeweight">      0.00004069 </i>
 </kpoints>
 <parameters>
  <separator name="general" >
   <i type="string" name="SYSTEM">unknown system</i>
   <i type="logical" name="LCOMPAT"> F  </i>
  </separator>
  <separator name="electronic" >
   <i type="string" name="PREC">accura</i>
   <i name="ENMAX">    520.00000000</i>
   <i name="ENAUG">    291.05200000</i>
   <i name="EDIFF">      0.00005000</i>
   <i type="int" name="IALGO">    68</i>
   <i type="int" name="IWAVPR">    10</i>
   <i type="int" name="NBANDS">    48</i>
   <i type="int" name="NBANDSLOW">    -1</i>
   <i type="int" name="NBANDSHIGH">    -1</i>
   <i name="NELECT">      3.00000000</i>
   <i type="int" name="TURBO">     0</i>
   <i type="int" name="IRESTART">     0</i>
   <i type="int" name="NREBOOT">     0</i>
   <i type="int" name="NMIN">     0</i>
   <i name="EREF">      0.00000000</i>
   <separator name="electronic smearing" >
    <i type="int" name="ISMEAR">    -5</i>
    <i name="SIGMA">      0.05000000</i>
    <i name="KSPACING">      0.50000000</i>
    <i type="logical" name="KGAMMA"> T  </i>
    <i type="logical" name="KBLOWUP"> T  </i>
   </separator>
   <separator name="electronic projectors" >
    <i type="logical" name="LREAL"> F  </i>
    <v name="ROPT">      0.00000000</v>
    <i type="int" name="LMAXPAW">  -100</i>
    <i type="int" name="LMAXMIX">     2</i>
    <i type="logical" name="NLSPLINE"> F  </i>
   </separator>
   <separator name="electronic startup" >
    <i type="int" name="ISTART">     0</i>
    <i type="int" name="ICHARG">     2</i>
    <i type="int" name="INIWAV">     1</i>
   </separator>
   <separator name="electronic spin" >
    <i type="int" name="ISPIN">     2</i>
    <i type="logical" name="LNONCOLLINEAR"> F  </i>
    <v name="MAGMOM">      0.60000000</v>
    <i name="NUPDOWN">     -1.00000000</i>
    <i type="logical" name="LSORBIT"> F  </i>
    <v name="SAXIS">      0.00000000      0.00000000      1.00000000</v>
    <i type="logical" name="LSPIRAL"> F  </i>
    <v name="QSPIRAL">      0.00000000      0.00000000      0.00000000</v>
    <i type="logical" name="LZEROZ"> F  </i>
   </separator>
   <separator name="electronic exchange-correlation" >
    <i type="logical" name="LASPH"> T  </i>
    <i type="logical" name="LMETAGGA"> F  </i>
   </separator>
   <separator name="electronic convergence" >
    <i type="int" name="NELM">   100</i>
    <i type="int" name="NELMDL">    -5</i>
    <i type="int" name="NELMIN">     2</i>
    <i name="ENINI">    520.00000000</i>
    <separator name="electronic convergence detail" >
     <i type="logical" name="LDIAG"> T  </i>
     <i type="logical" name="LSUBROT"> F  </i>
     <i name="WEIMIN">      0.00000000</i>
     <i name="EBREAK">      0.00000026</i>
     <i name="DEPER">      0.30000000</i>
     <i type="int" name="NRMM">     4</i>
     <i name="TIME">      0.40000000</i>
    </separator>
   </separator>
   <separator name="electronic mixer" >
    <i name="AMIX">      0.40000000</i>
    <i name="BMIX">      1.00000000</i>
    <i name="AMIN">      0.10000000</i>
    <i name="AMIX_MAG">      1.60000000</i>
    <i name="BMIX_MAG">      1.00000000</i>
    <separator name="electronic mixer details" >
     <i type="int" name="IMIX">     4</i>
     <i type="logical" name="MIXFIRST"> F  </i>
     <i type="int" name="MAXMIX">   -45</i>
     <i name="WC">    100.00000000</i>
     <i type="int" name="INIMIX">     1</i>
     <i type="int" name="MIXPRE">     1</i>
     <i type="int" name="MREMOVE">     5</i>
    </separator>
   </separator>
   <separator name="electronic dipolcorrection" >
    <i type="logical" name="LDIPOL"> F  </i>
    <i type="logical" name="LMONO"> F  </i>
    <i type="int" name="IDIPOL">     0</i>
    <i name="EPSILON">      1.00000000</i>
    <v name="DIPOL">   -100.00000000   -100.00000000   -100.00000000</v>
    <i name="EFIELD">      0.00000000</i>
   </separator>
  </separator>
  <separator name="grids" >
   <i type="int" name="NGX">    24</i>
   <i type="int" name="NGY">    24</i>
   <i type="int" name="NGZ">    24</i>
   <i type="int" name="NGXF">    48</i>
   <i type="int" name="NGYF">    48</i>
   <i type="int" name="NGZF">    48</i>
   <i type="logical" name="ADDGRID"> F  </i>
  </separator>
  <separator name="ionic" >
   <i type="int" name="NSW">     0</i>
   <i type="int" name="IBRION">    -1</i>
   <i type="int" name="MDALGO">     0</i>
   <i type="int" name="ISIF">     2</i>
   <i name="PSTRESS">      0.00000000</i>
   <i name="EDIFFG">      0.00050000</i>
   <i type="int" name="NFREE">     0</i>
   <i name="POTIM">      0.50000000</i>
   <i name="SMASS">     -3.00000000</i>
   <i name="SCALEE">      1.00000000</i>
  </separator>
  <separator name="ionic md" >
   <i name="TEBEG">      0.00010000</i>
   <i name="TEEND">      0.00010000</i>
   <i type="int" name="NBLOCK">     1</i>
   <i type="int" name="KBLOCK">     1</i>
   <i type="int" name="NPACO">   256</i>
   <i name="APACO">     16.00000000</i>
  </separator>
  <separator name="symmetry" >
   <i type="int" name="ISYM">     2</i>
   <i name="SYMPREC">      0.00001000</i>
  </separator>
  <separator name="dos" >
   <i type="int" name="LORBIT">    11</i>
   <v name="RWIGS">     -1.00000000</v>
   <i type="int" name="NEDOS">   301</i>
   <i name="EMIN">     10.00000000</i>
   <i name="EMAX">    -10.00000000</i>
   <i name="EFERMI">      0.00000000</i>
  </separator>
  <separator name="writing" >
   <i type="int" name="NWRITE">     2</i>
   <i type="logical" name="LWAVE"> F  </i>
   <i type="logical" name="LDOWNSAMPLE"> F  </i>
   <i type="logical" name="LCHARG"> T  </i>
   <i type="logical" name="LPARD"> F  </i>
   <i type="logical" name="LVTOT"> F  </i>
   <i type="logical" name="LVHAR"> F  </i>
   <i type="logical" name="LELF"> F  </i>
   <i type="logical" name="LOPTICS"> F  </i>
   <v name="STM">      0.00000000      0.00000000      0.00000000      0.00000000      0.00000000      0.00000000      0.00000000</v>
  </separator>
  <separator name="performance" >
   <i type="int" name="NPAR">    48</i>
   <i type="int" name="NSIM">     4</i>
   <i type="int" name="NBLK">    -1</i>
   <i type="logical" name="LPLANE"> T  </i>
   <i type="logical" name="LSCALAPACK"> T  </i>
   <i type="logical" name="LSCAAWARE"> T  </i>
   <i type="logical" name="LSCALU"> F  </i>
   <i type="logical" name="LASYNC"> F  </i>
   <i type="logical" name="LORBITALREAL"> F  </i>
  </separator>
  <separator name="miscellaneous" >
   <i type="int" name="IDIOT">     3</i>
   <i type="int" name="PHON_NSTRUCT">    -1</i>
   <i type="logical" name="LMUSIC"> F  </i>
   <v name="POMASS">     26.98100000</v>
   <v name="DARWINR">      0.00000000</v>
   <v name="DARWINV">      1.00000000</v>
   <i type="logical" name="LCORR"> T  </i>
  </separator>
  <i type="logical" name="GGA_COMPAT"> T  </i>
  <i type="logical" name="LBERRY"> F  </i>
  <i type="int" name="ICORELEVEL">     0</i>
  <i type="logical" name="LDAU"> F  </i>
  <i type="int" name="I_CONSTRAINED_M">     0</i>
  <separator name="electronic exchange-correlation" >
   <i type="string" name="GGA">--</i>
   <i type="int" name="VOSKOWN">     0</i>
   <i type="logical" name="LHFCALC"> F  </i>
   <i type="string" name="PRECFOCK"></i>
   <i type="logical" name="LSYMGRAD"> F  </i>
   <i type="logical" name="LHFONE"> F  </i>
   <i type="logical" name="LRHFCALC"> F  </i>
   <i type="logical" name="LTHOMAS"> F  </i>
   <i type="logical" name="LMODELHF"> F  </i>
   <i type="logical" name="LFOCKACE"> F  </i>
   <i name="ENCUT4O">     -1.00000000</i>
   <i type="int" name="EXXOEP">     0</i>
   <i type="int" name="FOURORBIT">     0</i>
   <i name="AEXX">      0.00000000</i>
   <i name="HFALPHA">      0.00000000</i>
   <i name="MCALPHA">      0.00000000</i>
   <i name="ALDAX">      1.00000000</i>
   <i name="AGGAX">      1.00000000</i>
   <i name="ALDAC">      1.00000000</i>
   <i name="AGGAC">      1.00000000</i>
   <i type="int" name="NKREDX">     1</i>
   <i type="int" name="NKREDY">     1</i>
   <i type="int" name="NKREDZ">     1</i>
   <i type="logical" name="SHIFTRED"> F  </i>
   <i type="logical" name="ODDONLY"> F  </i>
   <i type="logical" name="EVENONLY"> F  </i>
   <i type="int" name="LMAXFOCK">     0</i>
   <i type="int" name="NMAXFOCKAE">     0</i>
   <i type="logical" name="LFOCKAEDFT"> F  </i>
   <i name="HFSCREEN">      0.00000000</i>
   <i name="HFSCREENC">      0.00000000</i>
   <i type="int" name="NBANDSGWLOW">     0</i>
  </separator>
  <separator name="vdW DFT" >
   <i type="logical" name="LUSE_VDW"> F  </i>
   <i name="Zab_VDW">     -0.84910000</i>
   <i name="PARAM1">      0.12340000</i>
   <i name="PARAM2">      1.00000000</i>
   <i name="PARAM3">      0.00000000</i>
  </separator>
  <separator name="model GW" >
   <i type="int" name="MODEL_GW">     0</i>
   <i name="MODEL_EPS0">      9.94976379</i>
   <i name="MODEL_ALPHA">      1.00000000</i>
  </separator>
  <separator name="linear response parameters" >
   <i type="logical" name="LEPSILON"> F  </i>
   <i type="logical" name="LRPA"> F  </i>
   <i type="logical" name="LNABLA"> F  </i>
   <i type="logical" name="LVEL"> F  </i>
   <i type="int" name="KINTER">     0</i>
   <i name="CSHIFT">      0.10000000</i>
   <i name="OMEGAMAX">     -1.00000000</i>
   <i name="DEG_THRESHOLD">      0.00200000</i>
   <i name="RTIME">     -0.10000000</i>
   <i name="WPLASMAI">      0.00000000</i>
   <v name="DFIELD">      0.00000000      0.00000000      0.00000000</v>
   <v name="WPLASMA">      0.00000000      0.00000000      0.00000000      0.00000000      0.00000000      0.00000000      0.00000000      0.00000000      0.00000000</v>
  </separator>
  <separator name="orbital magnetization" >
   <i type="logical" name="NUCIND"> F  </i>
   <v name="MAGPOS">      0.00000000      0.00000000      0.00000000</v>
   <i type="logical" name="LNICSALL"> T  </i>
   <i type="logical" name="ORBITALMAG"> F  </i>
   <i type="logical" name="LMAGBLOCH"> F  </i>
   <i type="logical" name="LCHIMAG"> F  </i>
   <i type="logical" name="LGAUGE"> T  </i>
   <i type="int" name="MAGATOM">     0</i>
   <v name="MAGDIPOL">      0.00000000      0.00000000      0.00000000</v>
   <v name="AVECCONST">      0.00000000      0.00000000      0.00000000</v>
  </separator>
  <separator name="response functions" >
   <i type="logical" name="LFINITE_TEMPERATURE"> F  </i>
   <i type="logical" name="LADDER"> F  </i>
   <i type="logical" name="LRPAFORCE"> F  </i>
   <i type="logical" name="LFXC"> F  </i>
   <i type="logical" name="LHARTREE"> T  </i>
   <i type="int" name="IBSE">     0</i>
   <v type="int" name="KPOINT">    -1     0     0     0</v>
   <i type="logical" name="LTCTC"> F  </i>
   <i type="logical" name="LTCTE"> F  </i>
   <i type="logical" name="LTETE"> F  </i>
   <i type="logical" name="LTRIPLET"> F  </i>
   <i type="logical" name="LFXCEPS"> F  </i>
   <i type="logical" name="LFXHEG"> F  </i>
   <i type="int" name="NATURALO">     2</i>
   <i type="logical" name="LHOLEGF"> F  </i>
   <i type="logical" name="L2ORDER"> F  </i>
   <i type="logical" name="LDMP1"> F  </i>
   <i type="logical" name="LMP2LT"> F  </i>
   <i type="logical" name="LSMP2LT"> F  </i>
   <i type="logical" name="LGWLF"> F  </i>
   <i name="ENCUTGW">     -2.00000000</i>
   <i name="ENCUTGWSOFT">     -2.00000000</i>
   <i name="ENCUTLF">     -1.00000000</i>
   <i type="logical" name="LESF_SPLINES"> F  </i>
   <i type="int" name="LMAXMP2">    -1</i>
   <i name="SCISSOR">      0.00000000</i>
   <i type="int" name="NOMEGA">     0</i>
   <i type="int" name="NOMEGAR">     0</i>
   <i type="int" name="NBANDSGW">    -1</i>
   <i type="int" name="NBANDSO">    -1</i>
   <i type="int" name="NBANDSV">    -1</i>
   <i type="int" name="NELM">   100</i>
   <i type="int" name="NELMHF">     1</i>
   <i type="int" name="DIM">     3</i>
   <i type="int" name="IESPILON">     4</i>
   <i type="int" name="ANTIRES">     0</i>
   <i name="OMEGAMAX">    -30.00000000</i>
   <i name="OMEGAMIN">    -30.00000000</i>
   <i name="OMEGATL">   -200.00000000</i>
   <i type="int" name="OMEGAGRID">     0</i>
   <i name="CSHIFT">     -0.10000000</i>
   <i type="logical" name="LSELFENERGY"> F  </i>
   <i type="logical" name="LSPECTRAL"> F  </i>
   <i type="logical" name="LSPECTRALGW"> F  </i>
   <i type="logical" name="LSINGLES"> F  </i>
   <i type="logical" name="LFERMIGW"> F  </i>
   <i type="logical" name="ODDONLYGW"> F  </i>
   <i type="logical" name="EVENONLYGW"> F  </i>
   <i type="int" name="NKREDLFX">     1</i>
   <i type="int" name="NKREDLFY">     1</i>
   <i type="int" name="NKREDLFZ">     1</i>
   <i type="int" name="MAXMEM">  2800</i>
   <i type="int" name="TELESCOPE">     0</i>
   <i type="int" name="NTAUPAR">    -1</i>
   <i type="int" name="NOMEGAPAR">    -1</i>
   <i name="DAMP_NEWTON">      0.80000001</i>
   <i name="LAMBDA">      1.00000000</i>
  </separator>
  <separator name="External order field" >
   <i name="OFIELD_KAPPA">      0.00000000</i>
   <v name="OFIELD_K">      0.00000000      0.00000000      0.00000000</v>
   <i name="OFIELD_Q6_NEAR">      0.00000000</i>
   <i name="OFIELD_Q6_FAR">      0.00000000</i>
   <i name="OFIELD_A">      0.00000000</i>
  </separator>
 </parameters>
 <atominfo>
  <atoms>       1 </atoms>
  <types>       1 </types>
  <array name="atoms" >
   <dimension dim="1">ion</dimension>
   <field type="string">element</field>
   <field type="int">atomtype</field>
   <set>
    <rc><c>Al</c><c>   1</c></rc>
   </set>
  </array>
  <array name="atomtypes" >
   <dimension dim="1">type</dimension>
   <field type="int">atomspertype</field>
   <field type="string">element</field>
   <field>mass</field>
   <field>valence</field>
   <field type="string">pseudopotential</field>
   <set>
    <rc><c>   1</c><c>Al</c><c>     26.98100000</c><c>      3.00000000</c><c>  PAW_PBE Al 04Jan2001                  </c></rc>
   </set>
  </array>
 </atominfo>
 <structure name="initialpos" >
  <crystal>
   <varray name="basis" >
    <v>       0.00000000       2.02400000       2.02400000 </v>
    <v>       2.02400000       0.00000000       2.02400000 </v>
    <v>       2.02400000       2.02400000       0.00000000 </v>
   </varray>
   <i name="volume">     16.58293965 </i>
   <varray name="rec_basis" >
    <v>      -0.24703557       0.24703557       0.24703557 </v>
    <v>       0.24703557      -0.24703557       0.24703557 </v>
    <v>       0.24703557       0.24703557      -0.24703557 </v>
   </varray>
  </crystal>
  <varray name="positions" >
   <v>       0.00000000       0.00000000       0.00000000 </v>
  </varray>
 </structure>
 <calculation>
  <scstep>
   <time name="dav">   23.68   23.68</time>
   <time name="total">   24.00   24.00</time>
   <energy>
    <i name="alphaZ">     -0.20254611 </i>
    <i name="ewald">    -73.39295237 </i>
    <i name="hartreedc">     -0.10329695 </i>
    <i name="XCdc">    -26.19545267 </i>
    <i name="pawpsdc">     66.16230985 </i>
    <i name="pawaedc">    -34.20858819 </i>
    <i name="eentropy">      0.00000000 </i>
    <i name="bandstr">     10.77362002 </i>
    <i name="atom">     53.53845706 </i>
    <i name="e_fr_energy">     -3.62844936 </i>
    <i name="e_wo_entrp">     -3.62844936 </i>
    <i name="e_0_energy">     -3.62844936 </i>
   </energy>
  </scstep>
  <scstep>
   <time name="dav">   19.66   19.66</time>
   <time name="total">   19.81   19.81</time>
   <energy>
    <i name="e_fr_energy">     -3.68303730 </i>
    <i name="e_wo_entrp">     -3.68303730 </i>
    <i name="e_0_energy">     -3.68303730 </i>
   </energy>
  </scstep>
  <scstep>
   <time name="dav">   33.26   33.26</time>
   <time name="total">   33.40   33.40</time>
   <energy>
    <i name="e_fr_energy">     -3.68303995 </i>
    <i name="e_wo_entrp">     -3.68303995 </i>
    <i name="e_0_energy">     -3.68303995 </i>
   </energy>
  </scstep>
  <scstep>
   <time name="dav">   27.39   27.39</time>
   <time name="total">   27.52   27.52</time>
   <energy>
    <i name="e_fr_energy">     -3.68303995 </i>
    <i name="e_wo_entrp">     -3.68303995 </i>
    <i name="e_0_energy">     -3.68303995 </i>
   </energy>
  </scstep>
  <scstep>
   <time name="dav">   30.24   30.24</time>
   <time name="total">   30.49   30.49</time>
   <energy>
    <i name="e_fr_energy">     -3.68303995 </i>
    <i name="e_wo_entrp">     -3.68303995 </i>
    <i name="e_0_energy">     -3.68303995 </i>
   </energy>
  </scstep>
  <scstep>
   <time name="diag">    0.96    0.96</time>
   <time name="diis">    0.58    0.58</time>
   <time name="orth">    0.12    0.12</time>
   <time name="total">    2.08    2.08</time>
   <energy>
    <i name="e_fr_energy">     -3.75486736 </i>
    <i name="e_wo_entrp">     -3.75486736 </i>
    <i name="e_0_energy">     -3.75486736 </i>
   </energy>
  </scstep>
  <scstep>
   <time name="diag">    0.95    0.95</time>
   <time name="diis">    0.65    0.65</time>
   <time name="orth">    0.12    0.12</time>
   <time name="total">    2.14    2.14</time>
   <energy>
    <i name="e_fr_energy">     -3.74644953 </i>
    <i name="e_wo_entrp">     -3.74644953 </i>
    <i name="e_0_energy">     -3.74644953 </i>
   </energy>
  </scstep>
  <scstep>
   <time name="diag">    0.95    0.95</time>
   <time name="diis">    0.69    0.69</time>
   <time name="orth">    0.12    0.12</time>
   <time name="total">    2.18    2.18</time>
   <energy>
    <i name="e_fr_energy">     -3.74617822 </i>
    <i name="e_wo_entrp">     -3.74617822 </i>
    <i name="e_0_energy">     -3.74617822 </i>
   </energy>
  </scstep>
  <scstep>
   <time name="diag">    0.96    0.96</time>
   <time name="diis">    0.83    0.83</time>
   <time name="orth">    0.12    0.12</time>
   <time name="total">    2.23    2.23</time>
   <energy>
    <i name="alphaZ">     -0.20254611 </i>
    <i name="ewald">    -73.39295237 </i>
    <i name="hartreedc">     -0.10327500 </i>
    <i name="XCdc">    -26.14121680 </i>
    <i name="pawpsdc">    145.19831301 </i>
    <i name="pawaedc">   -113.25356864 </i>
    <i name="eentropy">      0.00000000 </i>
    <i name="bandstr">     10.61061777 </i>
    <i name="atom">     53.53845706 </i>
    <i name="e_fr_energy">     -3.74617107 </i>
    <i name="e_wo_entrp">     -3.74617107 </i>
    <i name="e_0_energy">     -3.74617107 </i>
   </energy>
  </scstep>
  <structure>
   <crystal>
    <varray name="basis" >
     <v>       0.00000000       2.02400000       2.02400000 </v>
     <v>       2.02400000       0.00000000       2.02400000 </v>
     <v>       2.02400000       2.02400000       0.00000000 </v>
    </varray>
    <i name="volume">     16.58293965 </i>
    <varray name="rec_basis" >
     <v>      -0.24703557       0.24703557       0.24703557 </v>
     <v>       0.24703557      -0.24703557       0.24703557 </v>
     <v>       0.24703557       0.24703557      -0.24703557 </v>
    </varray>
   </crystal>
   <varray name="positions" >
    <v>       0.00000000       0.00000000       0.00000000 </v>
   </varray>
  </structure>
  <varray name="forces" >
   <v>       0.00000000       0.00000000       0.00000000 </v>
  </varray>
  <varray name="stress" >
   <v>      -8.07859342      -0.00000000      -0.00000000 </v>
   <v>      -0.00000000      -8.07859342       0.00000000 </v>
   <v>       0.00000000       0.00000000      -8.07859342 </v>
  </varray>
  <energy>
   <i name="e_fr_energy">     -3.74617107 </i>
   <i name="e_wo_entrp">     -3.74617107 </i>
   <i name="e_0_energy">     -3.74617107 </i>
  </energy>
  <time name="totalsc">  144.70  144.71</time>
  <eigenvalues>
   <array>
    <dimension dim="1">band</dimension>
    <dimension dim="2">kpoint</dimension>
    <dimension dim="3">spin</dimension>
    <field>eigene</field>
    <field>occ</field>
    <set>
     <set comment="spin 1">
      <set comment="kpoint 1">
       <r>   -3.1518    1.0000 </r>
       <r>   20.5398    0.0000 </r>
       <r>   20.5398    0.0000 </r>
       <r>   20.5398    0.0000 </r>
       <r>   21.9946    0.0000 </r>
       <r>   21.9946    0.0000 </r>
       <r>   21.9946    0.0000 </r>
       <r>   24.3766    0.0000 </r>
       <r>   27.3143    0.0000 </r>
       <r>   27.3143    0.0000 </r>
       <r>   30.1610    0.0000 </r>
       <r>   32.5109    0.0000 </r>
       <r>   32.5109    0.0000 </r>
       <r>   32.5109    0.0000 </r>
       <r>   41.0624    0.0000 </r>
       <r>   56.0207    0.0000 </r>
       <r>   56.0207    0.0000 </r>
       <r>   56.0207    0.0000 </r>
       <r>   56.0571    0.0000 </r>
       <r>   59.2139    0.0000 </r>
       <r>   59.2139    0.0000 </r>
       <r>   59.2139    0.0000 </r>
       <r>   62.8336    0.0000 </r>
       <r>   62.8336    0.0000 </r>
       <r>   65.0768    0.0000 </r>
       <r>   65.0768    0.0000 </r>
       <r>   65.0768    0.0000 </r>
       <r>   73.1778    0.0000 </r>
       <r>   73.1778    0.0000 </r>
       <r>   73.1778    0.0000 </r>
       <r>   80.8190    0.0000 </r>
       <r>   83.0781    0.0000 </r>
       <r>   83.0781    0.0000 </r>
       <r>   87.2061    0.0000 </r>
       <r>   87.2061    0.0000 </r>
       <r>   87.2061    0.0000 </r>
       <r>   90.0884    0.0000 </r>
       <r>   90.0884    0.0000 </r>
       <r>   90.0884    0.0000 </r>
       <r>   90.8968    0.0000 </r>
       <r>   93.4600    0.0000 </r>
       <r>   93.4600    0.0000 </r>
       <r>   93.4600    0.0000 </r>
       <r>   93.9346    0.0000 </r>
       <r>   93.9346    0.0000 </r>
       <r>   93.9346    0.0000 </r>
       <r>   96.3737    0.0000 </r>
       <r>   96.3737    0.0000 </r>
      </set>
      <set comment="kpoint 2">
       <r>   -3.0459    1.0000 </r>
       <r>   18.7502    0.0000 </r>
       <r>   20.1596    0.0000 </r>
       <r>   20.1596    0.0000 </r>
       <r>   22.5387    0.0000 </r>
       <r>   22.5387    0.0000 </r>
       <r>   22.6159    0.0000 </r>
       <r>   25.4701    0.0000 </r>
       <r>   26.7140    0.0000 </r>
       <r>   26.7140    0.0000 </r>
       <r>   29.7730    0.0000 </r>
       <r>   33.0507    0.0000 </r>
       <r>   33.3240    0.0000 </r>
       <r>   33.3240    0.0000 </r>
       <r>   41.4882    0.0000 </r>
       <r>   55.5950    0.0000 </r>
       <r>   55.9014    0.0000 </r>
       <r>   55.9014    0.0000 </r>
       <r>   56.2914    0.0000 </r>
       <r>   58.0941    0.0000 </r>
       <r>   58.0941    0.0000 </r>
       <r>   59.2211    0.0000 </r>
       <r>   61.7868    0.0000 </r>
       <r>   61.7868    0.0000 </r>
       <r>   65.1717    0.0000 </r>
       <r>   67.4487    0.0000 </r>
       <r>   67.4487    0.0000 </r>
       <r>   72.2938    0.0000 </r>
       <r>   73.0798    0.0000 </r>
       <r>   73.0798    0.0000 </r>
       <r>   81.8289    0.0000 </r>
       <r>   82.5101    0.0000 </r>
       <r>   82.5101    0.0000 </r>
       <r>   85.0094    0.0000 </r>
       <r>   86.4184    0.0000 </r>
       <r>   86.4184    0.0000 </r>
       <r>   88.9639    0.0000 </r>
       <r>   88.9639    0.0000 </r>
       <r>   90.2668    0.0000 </r>
       <r>   90.4152    0.0000 </r>
       <r>   91.9674    0.0000 </r>
       <r>   91.9674    0.0000 </r>
       <r>   92.2826    0.0000 </r>
       <r>   95.2306    0.0000 </r>
       <r>   95.2306    0.0000 </r>
       <r>   95.9739    0.0000 </r>
       <r>   95.9739    0.0000 </r>
       <r>   97.2064    0.0000 </r>
      </set>
      <set comment="kpoint 3">
       <r>   -2.7289    1.0000 </r>
       <r>   16.2397    0.0000 </r>
       <r>   19.5872    0.0000 </r>
       <r>   19.5872    0.0000 </r>
       <r>   22.6140    0.0000 </r>
       <r>   23.5413    0.0000 </r>
       <r>   23.5413    0.0000 </r>
       <r>   25.5678    0.0000 </r>
       <r>   25.5678    0.0000 </r>
       <r>   27.7804    0.0000 </r>
       <r>   28.8839    0.0000 </r>
       <r>   34.4842    0.0000 </r>
       <r>   35.1645    0.0000 </r>
       <r>   35.1645    0.0000 </r>
       <r>   42.6467    0.0000 </r>
       <r>   54.4638    0.0000 </r>
       <r>   54.4638    0.0000 </r>
       <r>   54.8370    0.0000 </r>
       <r>   56.4359    0.0000 </r>
       <r>   56.6004    0.0000 </r>
       <r>   56.6004    0.0000 </r>
       <r>   59.1446    0.0000 </r>
       <r>   61.5463    0.0000 </r>
       <r>   61.5463    0.0000 </r>
       <r>   65.4547    0.0000 </r>
       <r>   70.5369    0.0000 </r>
       <r>   70.5489    0.0000 </r>
       <r>   70.5489    0.0000 </r>
       <r>   72.8975    0.0000 </r>
       <r>   72.8975    0.0000 </r>
       <r>   80.7260    0.0000 </r>
       <r>   80.7260    0.0000 </r>
       <r>   81.2611    0.0000 </r>
       <r>   84.8367    0.0000 </r>
       <r>   84.8602    0.0000 </r>
       <r>   84.8602    0.0000 </r>
       <r>   87.0402    0.0000 </r>
       <r>   87.0402    0.0000 </r>
       <r>   87.3771    0.0000 </r>
       <r>   89.8243    0.0000 </r>
       <r>   90.6836    0.0000 </r>
       <r>   90.6836    0.0000 </r>
       <r>   91.0521    0.0000 </r>
[...]
        <r>  0.0000  0.0000  0.2201  0.0000  0.0000  0.0000  0.0000  0.0000  0.0000 </r>
       </set>
       <set comment="band 3">
        <r>  0.1686  0.0824  0.0000  0.0012  0.0000  0.0000  0.0000  0.0000  0.0000 </r>
       </set>
       <set comment="band 4">
        <r>  0.2201  0.0216  0.0000  0.0970  0.0000  0.0000  0.0000  0.0000  0.0000 </r>
       </set>
       <set comment="band 5">
        <r>  0.0201  0.1293  0.0000  0.0561  0.0000  0.0000  0.0000  0.0000  0.0000 </r>
       </set>
       <set comment="band 6">
        <r>  0.0000  0.0000  0.1034  0.0000  0.0000  0.0000  0.0000  0.0000  0.0000 </r>
       </set>
       <set comment="band 7">
        <r>  0.0264  0.2378  0.0000  0.0050  0.0000  0.0000  0.0000  0.0000  0.0000 </r>
       </set>
       <set comment="band 8">
        <r>  0.0686  0.0130  0.0000  0.0540  0.0000  0.0000  0.0000  0.0000  0.0000 </r>
       </set>
       <set comment="band 9">
        <r>  0.0000  0.0000  0.0389  0.0000  0.0000  0.0000  0.0000  0.0000  0.0000 </r>
       </set>
       <set comment="band 10">
        <r>  0.0078  0.0018  0.0000  0.0299  0.0000  0.0000  0.0000  0.0000  0.0000 </r>
       </set>
       <set comment="band 11">
        <r>  0.0000  0.0000  0.0057  0.0000  0.0000  0.0000  0.0000  0.0000  0.0000 </r>
       </set>
       <set comment="band 12">
        <r>  0.0918  0.0006  0.0000  0.0863  0.0000  0.0000  0.0000  0.0000  0.0000 </r>
       </set>
       <set comment="band 13">
        <r>  0.0000  0.0000  0.1876  0.0000  0.0000  0.0000  0.0000  0.0000  0.0000 </r>
       </set>
       <set comment="band 14">
        <r>  0.0084  0.0013  0.0000  0.0411  0.0000  0.0000  0.0000  0.0000  0.0000 </r>
       </set>
       <set comment="band 15">
        <r>  0.1256  0.0021  0.0000  0.0859  0.0000  0.0000  0.0000  0.0000  0.0000 </r>
       </set>
       <set comment="band 16">
        <r>  0.0000  0.0000  0.0252  0.0000  0.0000  0.0000  0.0000  0.0000  0.0000 </r>
       </set>
       <set comment="band 17">
        <r>  0.2258  0.2252  0.0000  0.5647  0.0000  0.0000  0.0000  0.0000  0.0000 </r>
       </set>
       <set comment="band 18">
        <r>  0.0000  0.0000  0.6207  0.0000  0.0000  0.0000  0.0000  0.0000  0.0000 </r>
       </set>
       <set comment="band 19">
        <r>  2.4820  2.0051  0.0000  0.1072  0.0000  0.0000  0.0000  0.0000  0.0000 </r>
       </set>
       <set comment="band 20">
        <r>  6.7120  0.6005  0.0000  0.2948  0.0000  0.0000  0.0000  0.0000  0.0000 </r>
       </set>
       <set comment="band 21">
        <r>  0.0000  0.0000  1.5182  0.0000  0.0000  0.0000  0.0000  0.0000  0.0000 </r>
       </set>
       <set comment="band 22">
        <r>  0.1867  0.1849  0.0000  2.1722  0.0000  0.0000  0.0000  0.0000  0.0000 </r>
       </set>
       <set comment="band 23">
        <r>  0.2182  0.2148  0.0000  0.0479  0.0000  0.0000  0.0000  0.0000  0.0000 </r>
       </set>
       <set comment="band 24">
        <r>  0.0154  0.0980  0.0000  1.1482  0.0000  0.0000  0.0000  0.0000  0.0000 </r>
       </set>
       <set comment="band 25">
        <r>  0.0000  0.0000  2.0884  0.0000  0.0000  0.0000  0.0000  0.0000  0.0000 </r>
       </set>
       <set comment="band 26">
        <r>  0.0000  0.0000  0.5481  0.0000  0.0000  0.0000  0.0000  0.0000  0.0000 </r>
       </set>
       <set comment="band 27">
        <r>  0.1663  0.0797  0.0000  0.5576  0.0000  0.0000  0.0000  0.0000  0.0000 </r>
       </set>
       <set comment="band 28">
        <r>  0.0000  0.0000  0.0425  0.0000  0.0000  0.0000  0.0000  0.0000  0.0000 </r>
       </set>
       <set comment="band 29">
        <r>  0.0865  1.2736  0.0000  0.0243  0.0000  0.0000  0.0000  0.0000  0.0000 </r>
       </set>
       <set comment="band 30">
        <r>  0.0944  0.6808  0.0000  0.0918  0.0000  0.0000  0.0000  0.0000  0.0000 </r>
       </set>
       <set comment="band 31">
        <r>  0.0000  0.0000  0.4416  0.0000  0.0000  0.0000  0.0000  0.0000  0.0000 </r>
       </set>
       <set comment="band 32">
        <r>  0.0363  0.0074  0.0000  0.3266  0.0000  0.0000  0.0000  0.0000  0.0000 </r>
       </set>
       <set comment="band 33">
        <r>  0.5369  0.0253  0.0000  0.0191  0.0000  0.0000  0.0000  0.0000  0.0000 </r>
       </set>
       <set comment="band 34">
        <r>  0.4144  0.0336  0.0000  0.0150  0.0000  0.0000  0.0000  0.0000  0.0000 </r>
       </set>
       <set comment="band 35">
        <r>  0.0000  0.0000  0.1093  0.0000  0.0000  0.0000  0.0000  0.0000  0.0000 </r>
       </set>
       <set comment="band 36">
        <r>  0.0624  0.0262  0.0000  0.0333  0.0000  0.0000  0.0000  0.0000  0.0000 </r>
       </set>
       <set comment="band 37">
        <r>  0.0000  0.0000  0.1633  0.0000  0.0000  0.0000  0.0000  0.0000  0.0000 </r>
       </set>
       <set comment="band 38">
        <r>  0.0654  0.0447  0.0000  0.2193  0.0000  0.0000  0.0000  0.0000  0.0000 </r>
       </set>
       <set comment="band 39">
        <r>  0.0004  0.0132  0.0000  0.0021  0.0000  0.0000  0.0000  0.0000  0.0000 </r>
       </set>
       <set comment="band 40">
        <r>  0.0000  0.0000  0.1228  0.0000  0.0000  0.0000  0.0000  0.0000  0.0000 </r>
       </set>
       <set comment="band 41">
        <r>  0.0060  0.0442  0.0000  0.0003  0.0000  0.0000  0.0000  0.0000  0.0000 </r>
       </set>
       <set comment="band 42">
        <r>  0.0000  0.0000  0.0046  0.0000  0.0000  0.0000  0.0000  0.0000  0.0000 </r>
       </set>
       <set comment="band 43">
        <r>  0.0597  0.0610  0.0000  0.0114  0.0000  0.0000  0.0000  0.0000  0.0000 </r>
       </set>
       <set comment="band 44">
        <r>  0.0000  0.0000  0.0211  0.0000  0.0000  0.0000  0.0000  0.0000  0.0000 </r>
       </set>
       <set comment="band 45">
        <r>  0.0000  0.0000  0.0004  0.0000  0.0000  0.0000  0.0000  0.0000  0.0000 </r>
       </set>
       <set comment="band 46">
        <r>  0.0029  0.1151  0.0000  0.0227  0.0000  0.0000  0.0000  0.0000  0.0000 </r>
       </set>
       <set comment="band 47">
        <r>  0.0484  0.0854  0.0000  0.0532  0.0000  0.0000  0.0000  0.0000  0.0000 </r>
       </set>
       <set comment="band 48">
        <r>  0.0000  0.0000  0.0942  0.0000  0.0000  0.0000  0.0000  0.0000  0.0000 </r>
       </set>
      </set>
      <set comment="kpoint 144">
       <set comment="band 1">
        <r>  0.0000  0.0000  0.2308  0.0000  0.0000  0.0000  0.0000  0.0000  0.0000 </r>
       </set>
       <set comment="band 2">
        <r>  0.1703  0.0629  0.0000  0.0000  0.0000  0.0000  0.0000  0.0000  0.0000 </r>
       </set>
       <set comment="band 3">
        <r>  0.0000  0.0000  0.0000  0.2093  0.0000  0.0000  0.0000  0.0000  0.0000 </r>
       </set>
       <set comment="band 4">
        <r>  0.2931  0.0835  0.0000  0.0000  0.0000  0.0000  0.0000  0.0000  0.0000 </r>
       </set>
       <set comment="band 5">
        <r>  0.0000  0.0000  0.0000  0.1248  0.0000  0.0000  0.0000  0.0000  0.0000 </r>
       </set>
       <set comment="band 6">
        <r>  0.0812  0.2473  0.0000  0.0000  0.0000  0.0000  0.0000  0.0000  0.0000 </r>
       </set>
       <set comment="band 7">
        <r>  0.0000  0.0000  0.0849  0.0000  0.0000  0.0000  0.0000  0.0000  0.0000 </r>
       </set>
       <set comment="band 8">
        <r>  0.0505  0.1127  0.0000  0.0000  0.0000  0.0000  0.0000  0.0000  0.0000 </r>
       </set>
       <set comment="band 9">
        <r>  0.0000  0.0000  0.0000  0.0000  0.0000  0.0000  0.0000  0.0000  0.0000 </r>
       </set>
       <set comment="band 10">
        <r>  0.0103  0.0008  0.0000  0.0000  0.0000  0.0000  0.0000  0.0000  0.0000 </r>
       </set>
       <set comment="band 11">
        <r>  0.0000  0.0000  0.0000  0.2170  0.0000  0.0000  0.0000  0.0000  0.0000 </r>
       </set>
       <set comment="band 12">
        <r>  0.0000  0.0000  0.1400  0.0000  0.0000  0.0000  0.0000  0.0000  0.0000 </r>
       </set>
       <set comment="band 13">
        <r>  0.0000  0.0000  0.0339  0.0000  0.0000  0.0000  0.0000  0.0000  0.0000 </r>
       </set>
       <set comment="band 14">
        <r>  0.1907  0.0320  0.0000  0.0000  0.0000  0.0000  0.0000  0.0000  0.0000 </r>
       </set>
       <set comment="band 15">
        <r>  0.0000  0.0000  0.0000  0.0681  0.0000  0.0000  0.0000  0.0000  0.0000 </r>
       </set>
       <set comment="band 16">
        <r>  0.0000  0.0000  0.0000  0.0000  0.0000  0.0000  0.0000  0.0000  0.0000 </r>
       </set>
       <set comment="band 17">
        <r>  0.0000  0.0000  0.6724  0.0000  0.0000  0.0000  0.0000  0.0000  0.0000 </r>
       </set>
       <set comment="band 18">
        <r>  3.6967  1.4010  0.0000  0.0000  0.0000  0.0000  0.0000  0.0000  0.0000 </r>
       </set>
       <set comment="band 19">
        <r>  0.0000  0.0000  0.0000  0.6622  0.0000  0.0000  0.0000  0.0000  0.0000 </r>
       </set>
       <set comment="band 20">
        <r>  2.4233  0.7356  0.0000  0.0000  0.0000  0.0000  0.0000  0.0000  0.0000 </r>
       </set>
       <set comment="band 21">
        <r>  3.5042  0.8287  0.0000  0.0000  0.0000  0.0000  0.0000  0.0000  0.0000 </r>
       </set>
       <set comment="band 22">
        <r>  0.0000  0.0000  0.0000  2.8267  0.0000  0.0000  0.0000  0.0000  0.0000 </r>
       </set>
       <set comment="band 23">
        <r>  0.0000  0.0000  0.0000  0.0000  0.0000  0.0000  0.0000  0.0000  0.0000 </r>
       </set>
       <set comment="band 24">
        <r>  0.0000  0.0000  2.2507  0.0000  0.0000  0.0000  0.0000  0.0000  0.0000 </r>
       </set>
       <set comment="band 25">
        <r>  0.0000  0.0000  1.8485  0.0000  0.0000  0.0000  0.0000  0.0000  0.0000 </r>
       </set>
       <set comment="band 26">
        <r>  0.4713  1.4678  0.0000  0.0000  0.0000  0.0000  0.0000  0.0000  0.0000 </r>
       </set>
       <set comment="band 27">
        <r>  0.0000  0.0000  0.0000  1.6107  0.0000  0.0000  0.0000  0.0000  0.0000 </r>
       </set>
       <set comment="band 28">
        <r>  0.0000  0.0000  0.0000  0.0000  0.0000  0.0000  0.0000  0.0000  0.0000 </r>
       </set>
       <set comment="band 29">
        <r>  0.0000  0.0000  0.6030  0.0000  0.0000  0.0000  0.0000  0.0000  0.0000 </r>
       </set>
       <set comment="band 30">
        <r>  0.1096  0.7883  0.0000  0.0000  0.0000  0.0000  0.0000  0.0000  0.0000 </r>
       </set>
       <set comment="band 31">
        <r>  0.0000  0.0000  0.0000  0.0532  0.0000  0.0000  0.0000  0.0000  0.0000 </r>
       </set>
       <set comment="band 32">
        <r>  0.5659  0.0084  0.0000  0.0000  0.0000  0.0000  0.0000  0.0000  0.0000 </r>
       </set>
       <set comment="band 33">
        <r>  0.1441  0.1303  0.0000  0.0000  0.0000  0.0000  0.0000  0.0000  0.0000 </r>
       </set>
       <set comment="band 34">
        <r>  0.0000  0.0000  0.2514  0.0000  0.0000  0.0000  0.0000  0.0000  0.0000 </r>
       </set>
       <set comment="band 35">
        <r>  0.0000  0.0000  0.0000  0.0082  0.0000  0.0000  0.0000  0.0000  0.0000 </r>
       </set>
       <set comment="band 36">
        <r>  0.3519  0.1081  0.0000  0.0000  0.0000  0.0000  0.0000  0.0000  0.0000 </r>
       </set>
       <set comment="band 37">
        <r>  0.0000  0.0000  0.0000  0.4759  0.0000  0.0000  0.0000  0.0000  0.0000 </r>
       </set>
       <set comment="band 38">
        <r>  0.0000  0.0000  0.0226  0.0000  0.0000  0.0000  0.0000  0.0000  0.0000 </r>
       </set>
       <set comment="band 39">
        <r>  0.0000  0.0000  0.0000  0.0000  0.0000  0.0000  0.0000  0.0000  0.0000 </r>
       </set>
       <set comment="band 40">
        <r>  0.0096  0.0286  0.0000  0.0000  0.0000  0.0000  0.0000  0.0000  0.0000 </r>
       </set>
       <set comment="band 41">
        <r>  0.0000  0.0000  0.0000  0.0298  0.0000  0.0000  0.0000  0.0000  0.0000 </r>
       </set>
       <set comment="band 42">
        <r>  0.0000  0.0000  0.1729  0.0000  0.0000  0.0000  0.0000  0.0000  0.0000 </r>
       </set>
       <set comment="band 43">
        <r>  0.0876  0.1935  0.0000  0.0000  0.0000  0.0000  0.0000  0.0000  0.0000 </r>
       </set>
       <set comment="band 44">
        <r>  0.0000  0.0000  0.0000  0.0000  0.0000  0.0000  0.0000  0.0000  0.0000 </r>
       </set>
       <set comment="band 45">
        <r>  0.0000  0.0068  0.0000  0.0000  0.0000  0.0000  0.0000  0.0000  0.0000 </r>
       </set>
       <set comment="band 46">
        <r>  0.0000  0.0000  0.0041  0.0000  0.0000  0.0000  0.0000  0.0000  0.0000 </r>
       </set>
       <set comment="band 47">
        <r>  0.1848  0.0000  0.0000  0.0000  0.0000  0.0000  0.0000  0.0000  0.0000 </r>
       </set>
       <set comment="band 48">
        <r>  0.0000  0.0000  0.0000  0.0211  0.0000  0.0000  0.0000  0.0000  0.0000 </r>
       </set>
      </set>
      <set comment="kpoint 145">
       <set comment="band 1">
        <r>  0.0000  0.0000  0.1107  0.1107  0.0000  0.0000  0.0000  0.0000  0.0000 </r>
       </set>
       <set comment="band 2">
        <r>  0.0000  0.0000  0.1107  0.1107  0.0000  0.0000  0.0000  0.0000  0.0000 </r>
       </set>
       <set comment="band 3">
        <r>  0.0000  0.1357  0.0000  0.0000  0.0000  0.0000  0.0000  0.0000  0.0000 </r>
       </set>
       <set comment="band 4">
        <r>  0.4741  0.0000  0.0000  0.0000  0.0000  0.0000  0.0000  0.0000  0.0000 </r>
       </set>
       <set comment="band 5">
        <r>  0.0000  0.0000  0.0527  0.0527  0.0000  0.0000  0.0000  0.0000  0.0000 </r>
       </set>
       <set comment="band 6">
        <r>  0.0000  0.0000  0.0527  0.0527  0.0000  0.0000  0.0000  0.0000  0.0000 </r>
       </set>
       <set comment="band 7">
        <r>  0.0000  0.3841  0.0000  0.0000  0.0000  0.0000  0.0000  0.0000  0.0000 </r>
       </set>
       <set comment="band 8">
        <r>  0.1209  0.0000  0.0000  0.0000  0.0000  0.0000  0.0000  0.0000  0.0000 </r>
       </set>
       <set comment="band 9">
        <r>  0.0000  0.0000  0.0000  0.0000  0.0000  0.0000  0.0000  0.0000  0.0000 </r>
       </set>
       <set comment="band 10">
        <r>  0.0000  0.0004  0.0000  0.0000  0.0000  0.0000  0.0000  0.0000  0.0000 </r>
       </set>
       <set comment="band 11">
        <r>  0.0000  0.0000  0.0934  0.0934  0.0000  0.0000  0.0000  0.0000  0.0000 </r>
       </set>
       <set comment="band 12">
        <r>  0.0000  0.0000  0.0934  0.0934  0.0000  0.0000  0.0000  0.0000  0.0000 </r>
       </set>
       <set comment="band 13">
        <r>  0.0000  0.0000  0.0264  0.0264  0.0000  0.0000  0.0000  0.0000  0.0000 </r>
       </set>
       <set comment="band 14">
        <r>  0.0000  0.0000  0.0264  0.0264  0.0000  0.0000  0.0000  0.0000  0.0000 </r>
       </set>
       <set comment="band 15">
        <r>  0.2290  0.0000  0.0000  0.0000  0.0000  0.0000  0.0000  0.0000  0.0000 </r>
       </set>
       <set comment="band 16">
        <r>  0.0000  0.0000  0.0000  0.0000  0.0000  0.0000  0.0000  0.0000  0.0000 </r>
       </set>
       <set comment="band 17">
        <r>  0.0000  0.0000  0.4411  0.4411  0.0000  0.0000  0.0000  0.0000  0.0000 </r>
       </set>
       <set comment="band 18">
        <r>  0.0000  0.0000  0.4411  0.4411  0.0000  0.0000  0.0000  0.0000  0.0000 </r>
       </set>
       <set comment="band 19">
        <r>  0.0000  2.7429  0.0000  0.0000  0.0000  0.0000  0.0000  0.0000  0.0000 </r>
       </set>
       <set comment="band 20">
        <r>  9.6469  0.0000  0.0000  0.0000  0.0000  0.0000  0.0000  0.0000  0.0000 </r>
       </set>
       <set comment="band 21">
        <r>  0.0000  0.0000  1.5652  1.5652  0.0000  0.0000  0.0000  0.0000  0.0000 </r>
       </set>
       <set comment="band 22">
        <r>  0.0000  0.0000  1.5652  1.5652  0.0000  0.0000  0.0000  0.0000  0.0000 </r>
       </set>
       <set comment="band 23">
        <r>  0.0000  0.6368  0.0000  0.0000  0.0000  0.0000  0.0000  0.0000  0.0000 </r>
       </set>
       <set comment="band 24">
        <r>  0.3455  0.0000  0.0000  0.0000  0.0000  0.0000  0.0000  0.0000  0.0000 </r>
       </set>
       <set comment="band 25">
        <r>  0.0000  0.0000  0.0000  0.0000  0.0000  0.0000  0.0000  0.0000  0.0000 </r>
       </set>
       <set comment="band 26">
        <r>  0.0000  0.0000  0.0000  0.0000  0.0000  0.0000  0.0000  0.0000  0.0000 </r>
       </set>
       <set comment="band 27">
        <r>  0.0000  0.0000  0.2158  0.2158  0.0000  0.0000  0.0000  0.0000  0.0000 </r>
       </set>
       <set comment="band 28">
        <r>  0.0000  0.0000  0.2158  0.2158  0.0000  0.0000  0.0000  0.0000  0.0000 </r>
       </set>
       <set comment="band 29">
        <r>  0.0000  0.0000  0.4158  0.4158  0.0000  0.0000  0.0000  0.0000  0.0000 </r>
       </set>
       <set comment="band 30">
        <r>  0.0000  0.0000  0.4158  0.4158  0.0000  0.0000  0.0000  0.0000  0.0000 </r>
       </set>
       <set comment="band 31">
        <r>  0.0000  1.9976  0.0000  0.0000  0.0000  0.0000  0.0000  0.0000  0.0000 </r>
       </set>
       <set comment="band 32">
        <r>  0.8707  0.0000  0.0000  0.0000  0.0000  0.0000  0.0000  0.0000  0.0000 </r>
       </set>
       <set comment="band 33">
        <r>  0.0000  0.0747  0.0000  0.0000  0.0000  0.0000  0.0000  0.0000  0.0000 </r>
       </set>
       <set comment="band 34">
        <r>  0.0000  0.0000  0.0589  0.0589  0.0000  0.0000  0.0000  0.0000  0.0000 </r>
       </set>
       <set comment="band 35">
        <r>  0.0000  0.0000  0.0589  0.0589  0.0000  0.0000  0.0000  0.0000  0.0000 </r>
       </set>
       <set comment="band 36">
        <r>  0.4170  0.0000  0.0000  0.0000  0.0000  0.0000  0.0000  0.0000  0.0000 </r>
       </set>
       <set comment="band 37">
        <r>  0.0000  0.0000  0.1332  0.1332  0.0000  0.0000  0.0000  0.0000  0.0000 </r>
       </set>
       <set comment="band 38">
        <r>  0.0000  0.0000  0.1332  0.1332  0.0000  0.0000  0.0000  0.0000  0.0000 </r>
       </set>
       <set comment="band 39">
        <r>  0.0000  0.0000  0.0000  0.0000  0.0000  0.0000  0.0000  0.0000  0.0000 </r>
       </set>
       <set comment="band 40">
        <r>  0.0000  0.1505  0.0000  0.0000  0.0000  0.0000  0.0000  0.0000  0.0000 </r>
       </set>
       <set comment="band 41">
        <r>  0.0036  0.0000  0.0000  0.0000  0.0000  0.0000  0.0000  0.0000  0.0000 </r>
       </set>
       <set comment="band 42">
        <r>  0.0000  0.0000  0.0000  0.0000  0.0000  0.0000  0.0000  0.0000  0.0000 </r>
       </set>
       <set comment="band 43">
        <r>  0.0000  0.0000  0.0118  0.0118  0.0000  0.0000  0.0000  0.0000  0.0000 </r>
       </set>
       <set comment="band 44">
        <r>  0.0000  0.0000  0.0118  0.0118  0.0000  0.0000  0.0000  0.0000  0.0000 </r>
       </set>
       <set comment="band 45">
        <r>  0.0000  0.0000  0.0312  0.0297  0.0000  0.0000  0.0000  0.0000  0.0000 </r>
       </set>
       <set comment="band 46">
        <r>  0.0000  0.0000  0.0297  0.0312  0.0000  0.0000  0.0000  0.0000  0.0000 </r>
       </set>
       <set comment="band 47">
        <r>  0.0000  0.2520  0.0000  0.0000  0.0000  0.0000  0.0000  0.0000  0.0000 </r>
       </set>
       <set comment="band 48">
        <r>  0.2095  0.0000  0.0000  0.0000  0.0000  0.0000  0.0000  0.0000  0.0000 </r>
       </set>
      </set>
     </set>
    </set>
   </array>
  </projected>
 </calculation>
 <structure name="finalpos" >
  <crystal>
   <varray name="basis" >
    <v>       0.00000000       2.02400000       2.02400000 </v>
    <v>       2.02400000       0.00000000       2.02400000 </v>
    <v>       2.02400000       2.02400000       0.00000000 </v>
   </varray>
   <i name="volume">     16.58293965 </i>
   <varray name="rec_basis" >
    <v>      -0.24703557       0.24703557       0.24703557 </v>
    <v>       0.24703557      -0.24703557       0.24703557 </v>
    <v>       0.24703557       0.24703557      -0.24703557 </v>
   </varray>
  </crystal>
  <varray name="positions" >
   <v>       0.00000000       0.00000000       0.00000000 </v>
  </varray>
 </structure>
</modeling>
