unknown system                          
           1
     3.950078    0.000000    0.000000
     0.000000    3.950078    0.000000
    -1.975039   -1.975039    6.301644
   La   Ni   O 
     2     1     4
Direct configuration=     1
   0.36347300  0.36347300  0.72694600
   0.63652700  0.63652700  0.27305400
   0.00000000  0.00000000  0.00000000
   0.17899300  0.17899300  0.35798600
   0.82100700  0.82100700  0.64201400
   0.50000000  0.00000000  0.00000000
   0.00000000  0.50000000  0.00000000
