       N       E                     dE             d eps       ncg     rms          rms(c)
DAV:   1    -0.362621887937E+01   -0.36262E+01   -0.90666E+02 12720   0.346E+01
DAV:   2    -0.368007730928E+01   -0.53858E-01   -0.53402E-01 11808   0.108E+00
DAV:   3    -0.368008006480E+01   -0.27555E-05   -0.27499E-05 13440   0.695E-03
DAV:   4    -0.368008006485E+01   -0.48018E-10   -0.12938E-10 13296   0.939E-06
DAV:   5    -0.368008006427E+01    0.57784E-09   -0.95679E-13 13152   0.364E-09    0.175E+00
RMM:   6    -0.374555552498E+01   -0.65475E-01   -0.25765E-03  9025   0.792E-02    0.828E-01
RMM:   7    -0.373679953945E+01    0.87560E-02   -0.11171E-03  9423   0.502E-02    0.675E-01
RMM:   8    -0.373690990531E+01   -0.11037E-03   -0.23186E-04  9279   0.258E-02    0.208E-01
RMM:   9    -0.373691413866E+01   -0.42334E-05   -0.32951E-05  9681   0.876E-03
   1 F= -.37369141E+01 E0= -.37369141E+01  d E =0.000000E+00  mag=     0.0017
