    1    1    1    2
  0.1658294E+02  0.2862368E-09  0.2862368E-09  0.2862368E-09  0.5000000E-15
   1.0000000000000000E-004
  CAR 
 unknown system                          
      3    104     48

  0.1262379E-14  0.1262379E-14  0.1262379E-14  0.3644315E-03
    1       -3.151617     -3.152968   1.000000   1.000000
    2       20.539967     20.539063   0.000000   0.000000
    3       20.539967     20.539063   0.000000   0.000000
    4       20.539967     20.539064   0.000000   0.000000
    5       21.994470     21.989445   0.000000   0.000000
    6       21.994470     21.989445   0.000000   0.000000
    7       21.994470     21.989446   0.000000   0.000000
    8       24.377431     24.377840   0.000000   0.000000
    9       27.314652     27.311249   0.000000   0.000000
   10       27.314652     27.311249   0.000000   0.000000
   11       30.160458     30.158108   0.000000   0.000000
   12       32.510730     32.510211   0.000000   0.000000
   13       32.510730     32.510211   0.000000   0.000000
   14       32.510730     32.510212   0.000000   0.000000
   15       41.061891     41.059347   0.000000   0.000000
   16       56.014459     56.013099   0.000000   0.000000
   17       56.014459     56.013100   0.000000   0.000000
   18       56.014459     56.013100   0.000000   0.000000
   19       56.049949     56.049772   0.000000   0.000000
   20       59.212974     59.210431   0.000000   0.000000
   21       59.212974     59.210431   0.000000   0.000000
   22       59.212974     59.210431   0.000000   0.000000
   23       62.833483     62.833443   0.000000   0.000000
   24       62.833483     62.833443   0.000000   0.000000
   25       65.077139     65.073585   0.000000   0.000000
   26       65.077140     65.073585   0.000000   0.000000
   27       65.077140     65.073585   0.000000   0.000000
   28       73.177489     73.176698   0.000000   0.000000
   29       73.177489     73.176698   0.000000   0.000000
   30       73.177489     73.176699   0.000000   0.000000
   31       80.818763     80.818145   0.000000   0.000000
   32       83.077101     83.075617   0.000000   0.000000
   33       83.077101     83.075617   0.000000   0.000000
   34       87.205624     87.205917   0.000000   0.000000
   35       87.205624     87.205918   0.000000   0.000000
   36       87.205625     87.205920   0.000000   0.000000
   37       90.088892     90.083054   0.000000   0.000000
   38       90.088892     90.083055   0.000000   0.000000
   39       90.088892     90.083055   0.000000   0.000000
   40       90.897105     90.889930   0.000000   0.000000
   41       93.459939     93.460220   0.000000   0.000000
   42       93.459940     93.460220   0.000000   0.000000
   43       93.459940     93.460220   0.000000   0.000000
   44       93.935197     93.931986   0.000000   0.000000
   45       93.935197     93.931987   0.000000   0.000000
   46       93.935197     93.931987   0.000000   0.000000
   47       96.374163     96.375036   0.000000   0.000000
   48       96.374163     96.375037   0.000000   0.000000

  0.7142857E-01  0.1266955E-14  0.1266955E-14  0.2915452E-02
    1       -3.013382     -3.014733   1.000000   1.000000
    2       18.398978     18.397315   0.000000   0.000000
    3       20.076459     20.074733   0.000000   0.000000
    4       20.076459     20.074733   0.000000   0.000000
    5       22.648127     22.644673   0.000000   0.000000
    6       22.670921     22.666621   0.000000   0.000000
    7       22.670921     22.666621   0.000000   0.000000
    8       25.767943     25.767617   0.000000   0.000000
    9       26.560766     26.557871   0.000000   0.000000
   10       26.560766     26.557871   0.000000   0.000000
   11       29.667219     29.665075   0.000000   0.000000
   12       33.205730     33.204811   0.000000   0.000000
   13       33.543677     33.542716   0.000000   0.000000
   14       33.543677     33.542717   0.000000   0.000000
   15       41.613458     41.611019   0.000000   0.000000
   16       55.502028     55.501224   0.000000   0.000000
   17       55.833438     55.832030   0.000000   0.000000
   18       55.833439     55.832030   0.000000   0.000000
   19       56.308102     56.307307   0.000000   0.000000
   20       57.794998     57.792519   0.000000   0.000000
   21       57.794998     57.792519   0.000000   0.000000
   22       59.217590     59.215118   0.000000   0.000000
   23       61.696390     61.695507   0.000000   0.000000
   24       61.696390     61.695508   0.000000   0.000000
   25       65.201028     65.197446   0.000000   0.000000
   26       67.916384     67.913731   0.000000   0.000000
   27       67.916384     67.913731   0.000000   0.000000
   28       72.066414     72.065757   0.000000   0.000000
   29       73.050387     73.049446   0.000000   0.000000
   30       73.050388     73.049447   0.000000   0.000000
   31       82.050322     82.049661   0.000000   0.000000
   32       82.324692     82.322901   0.000000   0.000000
   33       82.324692     82.322901   0.000000   0.000000
   34       84.626402     84.623559   0.000000   0.000000
   35       86.230374     86.230310   0.000000   0.000000
   36       86.230374     86.230310   0.000000   0.000000
   37       88.661080     88.658325   0.000000   0.000000
   38       88.661080     88.658326   0.000000   0.000000
   39       89.967496     89.966239   0.000000   0.000000
   40       90.218207     90.212083   0.000000   0.000000
   41       91.745879     91.744593   0.000000   0.000000
   42       91.745879     91.744594   0.000000   0.000000
   43       92.535457     92.533911   0.000000   0.000000
   44       95.319850     95.320839   0.000000   0.000000
   45       95.319851     95.320839   0.000000   0.000000
   46       96.328661     96.325668   0.000000   0.000000
   47       96.328662     96.325669   0.000000   0.000000
   48       96.523610     96.524038   0.000000   0.000000

  0.1428571E+00  0.1264204E-14  0.1264204E-14  0.2915452E-02
    1       -2.599525     -2.600877   1.000000   1.000000
    2       15.520506     15.518894   0.000000   0.000000
    3       19.440337     19.438199   0.000000   0.000000
    4       19.440337     19.438199   0.000000   0.000000
    5       22.562978     22.560235   0.000000   0.000000
    6       23.794171     23.789765   0.000000   0.000000
    7       23.794171     23.789766   0.000000   0.000000
    8       25.296464     25.294466   0.000000   0.000000
    9       25.296464     25.294466   0.000000   0.000000
   10       28.477401     28.476486   0.000000   0.000000
   11       28.583328     28.581274   0.000000   0.000000
   12       35.033845     35.032353   0.000000   0.000000
   13       35.785992     35.784537   0.000000   0.000000
   14       35.785992     35.784538   0.000000   0.000000
   15       43.079553     43.077379   0.000000   0.000000
   16       53.640923     53.638925   0.000000   0.000000
   17       53.640923     53.638926   0.000000   0.000000
   18       54.555446     54.554607   0.000000   0.000000
   19       56.466246     56.465366   0.000000   0.000000
   20       56.489121     56.487469   0.000000   0.000000
   21       56.489121     56.487469   0.000000   0.000000
   22       59.079481     59.077220   0.000000   0.000000
   23       61.579080     61.577943   0.000000   0.000000
   24       61.579080     61.577944   0.000000   0.000000
   25       65.569244     65.565571   0.000000   0.000000
   26       70.012526     70.011875   0.000000   0.000000
   27       71.107771     71.105687   0.000000   0.000000
   28       71.107771     71.105687   0.000000   0.000000
   29       73.012238     73.010569   0.000000   0.000000
   30       73.012238     73.010571   0.000000   0.000000
   31       80.104247     80.102172   0.000000   0.000000
   32       80.104247     80.102172   0.000000   0.000000
   33       80.478568     80.475359   0.000000   0.000000
   34       84.258873     84.259736   0.000000   0.000000
   35       84.258873     84.259737   0.000000   0.000000
   36       85.545007     85.543557   0.000000   0.000000
   37       86.551506     86.550366   0.000000   0.000000
   38       86.756844     86.755447   0.000000   0.000000
   39       86.756845     86.755447   0.000000   0.000000
   40       89.407914     89.406861   0.000000   0.000000
   41       89.738397     89.734260   0.000000   0.000000
   42       90.430345     90.428544   0.000000   0.000000
   43       90.430345     90.428545   0.000000   0.000000
   44       94.015933     94.017200   0.000000   0.000000
   45       96.811830     96.812562   0.000000   0.000000
   46       96.811830     96.812562   0.000000   0.000000
   47       98.646486     98.643884   0.000000   0.000000
   48       98.646486     98.643892   0.000000   0.000000

  0.2142857E+00  0.1260704E-14  0.1260704E-14  0.2915452E-02
    1       -1.912434     -1.913786   1.000000   1.000000
    2       12.717649     12.716107   0.000000   0.000000
    3       18.973503     18.971210   0.000000   0.000000
    4       18.973503     18.971211   0.000000   0.000000
    5       22.338573     22.336124   0.000000   0.000000
    6       23.298247     23.294996   0.000000   0.000000
    7       23.298247     23.294996   0.000000   0.000000
    8       25.924988     25.922125   0.000000   0.000000
    9       25.924988     25.922125   0.000000   0.000000
   10       27.300060     27.298011   0.000000   0.000000
   11       31.197035     31.195846   0.000000   0.000000
   12       37.777808     37.775758   0.000000   0.000000
   13       38.511573     38.509750   0.000000   0.000000
   14       38.511573     38.509750   0.000000   0.000000
   15       45.129252     45.127439   0.000000   0.000000
   16       50.087990     50.086132   0.000000   0.000000
   17       50.087990     50.086133   0.000000   0.000000
   18       53.219492     53.218701   0.000000   0.000000
   19       56.373638     56.372121   0.000000   0.000000
   20       56.373638     56.372121   0.000000   0.000000
   21       56.621526     56.620527   0.000000   0.000000
   22       58.595480     58.593599   0.000000   0.000000
   23       61.879474     61.878182   0.000000   0.000000
   24       61.879474     61.878183   0.000000   0.000000
   25       66.167376     66.163530   0.000000   0.000000
   26       67.984019     67.982818   0.000000   0.000000
   27       70.234695     70.232519   0.000000   0.000000
   28       70.234696     70.232519   0.000000   0.000000
   29       74.529471     74.528263   0.000000   0.000000
   30       74.529471     74.528265   0.000000   0.000000
   31       77.669918     77.666173   0.000000   0.000000
   32       78.693527     78.691689   0.000000   0.000000
   33       78.693527     78.691690   0.000000   0.000000
   34       81.617549     81.618161   0.000000   0.000000
   35       81.617549     81.618162   0.000000   0.000000
   36       82.887998     82.888633   0.000000   0.000000
   37       83.455484     83.454545   0.000000   0.000000
   38       86.820505     86.819553   0.000000   0.000000
   39       86.820505     86.819553   0.000000   0.000000
   40       88.599359     88.598101   0.000000   0.000000
   41       89.478571     89.473928   0.000000   0.000000
   42       89.777580     89.775667   0.000000   0.000000
   43       89.777580     89.775669   0.000000   0.000000
   44       93.592726     93.593707   0.000000   0.000000
   45       97.344706     97.344236   0.000000   0.000000
   46       97.344707     97.344236   0.000000   0.000000
   47      100.480625    100.480288   0.000000   0.000000
   48      100.480625    100.480289   0.000000   0.000000

  0.2857143E+00  0.1230114E-14  0.1230114E-14  0.2915452E-02
    1       -0.955984     -0.957336   1.000000   1.000000
    2       10.084981     10.083489  -0.009606  -0.009691
    3       18.722471     18.720099   0.000000   0.000000
    4       18.722471     18.720100   0.000000   0.000000
    5       22.034422     22.031655   0.000000   0.000000
    6       22.034422     22.031656   0.000000   0.000000
    7       22.214536     22.212265   0.000000   0.000000
    8       26.020100     26.018009   0.000000   0.000000
    9       27.706736     27.703424   0.000000   0.000000
   10       27.706736     27.703424   0.000000   0.000000
   11       33.773410     33.771952   0.000000   0.000000
   12       41.160693     41.158084   0.000000   0.000000
   13       41.333478     41.331178   0.000000   0.000000
   14       41.333478     41.331178   0.000000   0.000000
   15       46.843731     46.842352   0.000000   0.000000
   16       46.843731     46.842352   0.000000   0.000000
   17       47.444208     47.442777   0.000000   0.000000
   18       51.626612     51.626117   0.000000   0.000000
   19       56.345649     56.344159   0.000000   0.000000
   20       56.345649     56.344160   0.000000   0.000000
   21       56.810818     56.809669   0.000000   0.000000
   22       57.737298     57.735866   0.000000   0.000000
   23       62.209554     62.207952   0.000000   0.000000
   24       62.209554     62.207954   0.000000   0.000000
   25       65.954397     65.952119   0.000000   0.000000
   26       66.963637     66.959498   0.000000   0.000000
   27       67.226017     67.223875   0.000000   0.000000
   28       67.226017     67.223875   0.000000   0.000000
   29       74.290036     74.289659   0.000000   0.000000
   30       74.290037     74.289659   0.000000   0.000000
   31       75.147801     75.144759   0.000000   0.000000
   32       77.702148     77.702678   0.000000   0.000000
   33       78.910568     78.911174   0.000000   0.000000
   34       78.910569     78.911174   0.000000   0.000000
   35       79.963678     79.962054   0.000000   0.000000
   36       79.963679     79.962054   0.000000   0.000000
   37       80.712926     80.712306   0.000000   0.000000
   38       88.622079     88.620833   0.000000   0.000000
   39       88.622079     88.620834   0.000000   0.000000
   40       88.702095     88.698509   0.000000   0.000000
   41       89.431718     89.429846   0.000000   0.000000
   42       89.431727     89.429848   0.000000   0.000000
   43       91.292910     91.292111   0.000000   0.000000
   44       93.087149     93.087023   0.000000   0.000000
   45       97.614092     97.613138   0.000000   0.000000
   46       97.614088     97.613159   0.000000   0.000000
   47      101.540837    101.539530   0.000000   0.000000
   48      102.836044    102.836110   0.000000   0.000000

  0.3571429E+00  0.1240657E-14  0.1240657E-14  0.2915452E-02
    1        0.264555      0.263203   1.000000   1.000000
    2        7.656619      7.655160   0.655211   0.656004
    3       18.698296     18.695862   0.000000   0.000000
    4       18.698296     18.695862   0.000000   0.000000
    5       20.919241     20.916672   0.000000   0.000000
    6       20.919241     20.916673   0.000000   0.000000
    7       22.278997     22.276858   0.000000   0.000000
    8       24.856478     24.854327   0.000000   0.000000
    9       29.703954     29.700260   0.000000   0.000000
   10       29.703954     29.700261   0.000000   0.000000
   11       36.229404     36.227543   0.000000   0.000000
   12       42.065380     42.063027   0.000000   0.000000
   13       42.065380     42.063028   0.000000   0.000000
   14       44.732104     44.729014   0.000000   0.000000
   15       46.232779     46.231619   0.000000   0.000000
   16       46.232779     46.231619   0.000000   0.000000
   17       48.411648     48.410578   0.000000   0.000000
   18       51.549002     51.549046   0.000000   0.000000
   19       56.288142     56.286674   0.000000   0.000000
   20       56.288144     56.286675   0.000000   0.000000
   21       56.527314     56.526110   0.000000   0.000000
   22       57.037827     57.036515   0.000000   0.000000
   23       61.549142     61.546539   0.000000   0.000000
   24       61.549143     61.546539   0.000000   0.000000
   25       63.922850     63.919640   0.000000   0.000000
   26       64.513703     64.512707   0.000000   0.000000
   27       64.513704     64.512707   0.000000   0.000000
   28       67.883167     67.878558   0.000000   0.000000
   29       70.161010     70.160448   0.000000   0.000000
   30       73.860941     73.860681   0.000000   0.000000
   31       73.860943     73.860683   0.000000   0.000000
   32       76.560154     76.558817   0.000000   0.000000
   33       77.114399     77.114757   0.000000   0.000000
   34       77.114399     77.114757   0.000000   0.000000
   35       78.403344     78.403215   0.000000   0.000000
   36       80.417437     80.416610   0.000000   0.000000
   37       80.417437     80.416612   0.000000   0.000000
   38       88.548293     88.544649   0.000000   0.000000
   39       89.146122     89.144364   0.000000   0.000000
   40       89.146130     89.144362   0.000000   0.000000
   41       90.573490     90.573946   0.000000   0.000000
   42       91.725652     91.724067   0.000000   0.000000
   43       91.725651     91.724068   0.000000   0.000000
   44       94.176142     94.175605   0.000000   0.000000
   45       98.802281     98.800904   0.000000   0.000000
   46       98.802311     98.800920   0.000000   0.000000
   47      102.200915    102.198650   0.000000   0.000000
   48      104.067802    104.067590   0.000000   0.000000

  0.4285714E+00  0.1237323E-14  0.1237323E-14  0.2915452E-02
    1        1.742318      1.740977   1.000000   1.000000
    2        5.451055      5.449605   1.000000   1.000000
    3       18.904587     18.902061   0.000000   0.000000
    4       18.904587     18.902061   0.000000   0.000000
    5       20.019242     20.016824   0.000000   0.000000
    6       20.019242     20.016824   0.000000   0.000000
    7       22.569436     22.567459   0.000000   0.000000
    8       23.873927     23.871652   0.000000   0.000000
    9       31.649170     31.644841   0.000000   0.000000
   10       31.649170     31.644841   0.000000   0.000000
   11       38.408355     38.405835   0.000000   0.000000
   12       39.895425     39.894104   0.000000   0.000000
   13       39.895425     39.894104   0.000000   0.000000
   14       46.240161     46.239626   0.000000   0.000000
   15       48.702695     48.699535   0.000000   0.000000
   16       49.178746     49.176994   0.000000   0.000000
   17       49.178747     49.176994   0.000000   0.000000
   18       54.331571     54.331541   0.000000   0.000000
   19       54.936579     54.935432   0.000000   0.000000
   20       55.912769     55.911311   0.000000   0.000000
   21       55.912769     55.911311   0.000000   0.000000
   22       57.373304     57.371876   0.000000   0.000000
   23       58.728359     58.725792   0.000000   0.000000
   24       58.728359     58.725792   0.000000   0.000000
   25       62.243273     62.240121   0.000000   0.000000
   26       64.186934     64.186120   0.000000   0.000000
   27       64.186934     64.186120   0.000000   0.000000
   28       65.077555     65.077315   0.000000   0.000000
   29       68.736277     68.731005   0.000000   0.000000
   30       73.638827     73.638609   0.000000   0.000000
   31       73.638827     73.638609   0.000000   0.000000
   32       75.811129     75.811257   0.000000   0.000000
   33       75.811129     75.811257   0.000000   0.000000
   34       76.716045     76.716590   0.000000   0.000000
   35       76.760824     76.759263   0.000000   0.000000
   36       80.533612     80.533263   0.000000   0.000000
   37       80.533613     80.533265   0.000000   0.000000
   38       88.549919     88.546238   0.000000   0.000000
   39       88.929097     88.927419   0.000000   0.000000
   40       88.929099     88.927420   0.000000   0.000000
   41       89.501330     89.501909   0.000000   0.000000
   42       94.280392     94.280224   0.000000   0.000000
   43       94.472037     94.470512   0.000000   0.000000
   44       94.472037     94.470512   0.000000   0.000000
   45      100.765398    100.764278   0.000000   0.000000
   46      100.765435    100.764278   0.000000   0.000000
   47      104.411120    104.409746   0.000000   0.000000
   48      104.421974    104.410130   0.000000   0.000000

  0.5000000E+00  0.1247867E-14  0.1247867E-14  0.1457726E-02
    1        3.374888      3.374197   1.000000   1.000000
    2        3.575473      3.573379   1.000000   1.000000
    3       19.305053     19.301151   0.000000   0.000000
    4       19.305053     19.301151   0.000000   0.000000
    5       19.386423     19.385400   0.000000   0.000000
    6       19.386423     19.385401   0.000000   0.000000
    7       23.042640     23.042569   0.000000   0.000000
    8       23.165161     23.160993   0.000000   0.000000
    9       32.671264     32.666286   0.000000   0.000000
   10       32.671264     32.666286   0.000000   0.000000
   11       38.689361     38.688762   0.000000   0.000000
   12       38.689361     38.688763   0.000000   0.000000
   13       39.485212     39.482076   0.000000   0.000000
   14       45.404120     45.404596   0.000000   0.000000
   15       50.566591     50.562701   0.000000   0.000000
   16       51.534080     51.532027   0.000000   0.000000
   17       51.534080     51.532027   0.000000   0.000000
   18       53.498631     53.497301   0.000000   0.000000
   19       54.649397     54.647835   0.000000   0.000000
   20       54.649397     54.647835   0.000000   0.000000
   21       56.242198     56.241668   0.000000   0.000000
   22       57.499614     57.497437   0.000000   0.000000
   23       57.499614     57.497438   0.000000   0.000000
   24       58.421034     58.419717   0.000000   0.000000
   25       60.611975     60.612013   0.000000   0.000000
   26       62.627910     62.625361   0.000000   0.000000
   27       64.274120     64.273258   0.000000   0.000000
   28       64.274120     64.273259   0.000000   0.000000
   29       69.123233     69.117540   0.000000   0.000000
   30       73.579020     73.578839   0.000000   0.000000
   31       73.579021     73.578839   0.000000   0.000000
   32       75.332959     75.332993   0.000000   0.000000
   33       75.332959     75.332993   0.000000   0.000000
   34       76.051727     76.052697   0.000000   0.000000
   35       76.948074     76.946466   0.000000   0.000000
   36       80.544192     80.543976   0.000000   0.000000
   37       80.544193     80.543978   0.000000   0.000000
   38       88.686751     88.681359   0.000000   0.000000
   39       88.848100     88.846453   0.000000   0.000000
   40       88.848100     88.846454   0.000000   0.000000
   41       88.940552     88.942842   0.000000   0.000000
   42       94.131728     94.131667   0.000000   0.000000
   43       95.545331     95.543836   0.000000   0.000000
   44       95.545332     95.543837   0.000000   0.000000
   45      101.358441    101.358153   0.000000   0.000000
   46      101.358442    101.358154   0.000000   0.000000
   47      107.179828    107.176784   0.000000   0.000000
   48      107.179829    107.176792   0.000000   0.000000

  0.7142857E-01  0.7142857E-01  0.1262379E-14  0.2186589E-02
    1       -2.967336     -2.968687   1.000000   1.000000
    2       19.111345     19.109279   0.000000   0.000000
    3       19.111345     19.109279   0.000000   0.000000
    4       19.410960     19.410348   0.000000   0.000000
    5       21.563985     21.559062   0.000000   0.000000
    6       23.692141     23.688158   0.000000   0.000000
    7       23.692141     23.688158   0.000000   0.000000
    8       25.239443     25.236982   0.000000   0.000000
    9       25.874642     25.874752   0.000000   0.000000
   10       27.485258     27.481826   0.000000   0.000000
   11       30.328798     30.326205   0.000000   0.000000
   12       32.722358     32.721941   0.000000   0.000000
   13       32.722358     32.721942   0.000000   0.000000
   14       34.741233     34.739729   0.000000   0.000000
   15       41.855296     41.852912   0.000000   0.000000
   16       55.570529     55.569984   0.000000   0.000000
   17       55.596584     55.595046   0.000000   0.000000
   18       55.596584     55.595046   0.000000   0.000000
   19       56.437877     56.436908   0.000000   0.000000
   20       57.868159     57.865647   0.000000   0.000000
   21       57.868159     57.865647   0.000000   0.000000
   22       59.071934     59.070665   0.000000   0.000000
   23       59.334066     59.331511   0.000000   0.000000
   24       62.801449     62.801369   0.000000   0.000000
   25       66.751841     66.748486   0.000000   0.000000
   26       66.751841     66.748486   0.000000   0.000000
   27       69.082243     69.080010   0.000000   0.000000
   28       71.259068     71.258018   0.000000   0.000000
   29       73.344168     73.343500   0.000000   0.000000
   30       73.344168     73.343501   0.000000   0.000000
   31       81.154125     81.152531   0.000000   0.000000
   32       82.739458     82.737916   0.000000   0.000000
   33       83.304500     83.303590   0.000000   0.000000
   34       84.125375     84.123428   0.000000   0.000000
   35       84.125375     84.123429   0.000000   0.000000
   36       84.640185     84.637354   0.000000   0.000000
   37       89.916689     89.914863   0.000000   0.000000
   38       89.916689     89.914864   0.000000   0.000000
   39       89.935500     89.937868   0.000000   0.000000
   40       90.720166     90.718421   0.000000   0.000000
   41       90.720166     90.718422   0.000000   0.000000
   42       92.151071     92.145867   0.000000   0.000000
   43       92.644811     92.642887   0.000000   0.000000
   44       93.752396     93.748279   0.000000   0.000000
   45       94.305295     94.305574   0.000000   0.000000
   46       97.149748     97.147942   0.000000   0.000000
   47       97.149748     97.147948   0.000000   0.000000
   48       98.778324     98.828261   0.000000   0.000000

  0.1428571E+00  0.7142857E-01  0.1260599E-14  0.8746356E-02
    1       -2.645446     -2.646797   1.000000   1.000000
    2       16.534452     16.532872   0.000000   0.000000
    3       18.323677     18.321498   0.000000   0.000000
    4       19.488785     19.487283   0.000000   0.000000
    5       21.842388     21.837650   0.000000   0.000000
    6       23.550147     23.548268   0.000000   0.000000
    7       24.082371     24.079209   0.000000   0.000000
    8       24.899135     24.894949   0.000000   0.000000
    9       26.976094     26.973267   0.000000   0.000000
   10       28.073600     28.072777   0.000000   0.000000
   11       29.917550     29.915379   0.000000   0.000000
   12       33.948581     33.947783   0.000000   0.000000
   13       34.021254     34.020276   0.000000   0.000000
   14       36.547341     36.545375   0.000000   0.000000
   15       43.149426     43.147273   0.000000   0.000000
   16       53.638309     53.636353   0.000000   0.000000
   17       54.163860     54.162266   0.000000   0.000000
   18       55.596522     55.595478   0.000000   0.000000
   19       56.055196     56.054040   0.000000   0.000000
   20       56.515577     56.514051   0.000000   0.000000
   21       56.957067     56.955306   0.000000   0.000000
   22       58.696537     58.694689   0.000000   0.000000
   23       59.349848     59.347396   0.000000   0.000000
   24       62.309485     62.308959   0.000000   0.000000
   25       67.491374     67.488145   0.000000   0.000000
   26       68.493190     68.491227   0.000000   0.000000
   27       70.589688     70.587615   0.000000   0.000000
   28       71.829346     71.827564   0.000000   0.000000
   29       72.804747     72.803808   0.000000   0.000000
   30       73.722478     73.721558   0.000000   0.000000
   31       79.329053     79.327073   0.000000   0.000000
   32       80.443448     80.440803   0.000000   0.000000
   33       81.574416     81.571595   0.000000   0.000000
   34       83.058094     83.057065   0.000000   0.000000
   35       83.161478     83.159844   0.000000   0.000000
   36       84.705346     84.704583   0.000000   0.000000
   37       86.538226     86.538411   0.000000   0.000000
   38       87.396994     87.395522   0.000000   0.000000
   39       89.202296     89.200333   0.000000   0.000000
   40       89.263280     89.262502   0.000000   0.000000
   41       91.267297     91.266670   0.000000   0.000000
   42       92.355991     92.356587   0.000000   0.000000
   43       93.514727     93.511009   0.000000   0.000000
   44       93.756359     93.755022   0.000000   0.000000
   45       94.475633     94.473760   0.000000   0.000000
   46       95.758638     95.756668   0.000000   0.000000
   47       97.543789     97.543395   0.000000   0.000000
   48       97.545394     97.545547   0.000000   0.000000

  0.2142857E+00  0.7142857E-01  0.1264038E-14  0.8746356E-02
    1       -2.049578     -2.050929   1.000000   1.000000
    2       13.725331     13.723795   0.000000   0.000000
    3       17.755090     17.752862   0.000000   0.000000
    4       19.173703     19.171730   0.000000   0.000000
    5       21.714516     21.711295   0.000000   0.000000
    6       23.309551     23.306433   0.000000   0.000000
    7       23.971306     23.968911   0.000000   0.000000
    8       25.138609     25.134758   0.000000   0.000000
    9       26.988826     26.986024   0.000000   0.000000
   10       28.719514     28.717409   0.000000   0.000000
   11       30.842270     30.841128   0.000000   0.000000
   12       36.345318     36.344012   0.000000   0.000000
   13       36.644395     36.642841   0.000000   0.000000
   14       38.854343     38.852032   0.000000   0.000000
   15       45.135988     45.134137   0.000000   0.000000
   16       50.022359     50.020549   0.000000   0.000000
   17       51.488806     51.486927   0.000000   0.000000
   18       54.477008     54.475881   0.000000   0.000000
   19       55.701124     55.700237   0.000000   0.000000
   20       56.320592     56.319159   0.000000   0.000000
   21       56.977856     56.976323   0.000000   0.000000
   22       59.023719     59.021590   0.000000   0.000000