 running on   48 total cores
 distrk:  each k-point on   48 cores,    1 groups
 distr:  one band on    1 cores,   48 groups
 vasp.6.2.1 16May21 (build Aug 15 2022 14:47:30) complex                         
 POSCAR found type information on POSCAR Al
 POSCAR found :  1 types and       1 ions
 scaLAPACK will be used
 -----------------------------------------------------------------------------
|                                                                             |
|           W    W    AA    RRRRR   N    N  II  N    N   GGGG   !!!           |
|           W    W   A  A   R    R  NN   N  II  NN   N  G    G  !!!           |
|           W    W  A    A  R    R  N N  N  II  N N  N  G       !!!           |
|           W WW W  AAAAAA  RRRRR   N  N N  II  N  N N  G  GGG   !            |
|           WW  WW  A    A  R   R   N   NN  II  N   NN  G    G                |
|           W    W  A    A  R    R  N    N  II  N    N   GGGG   !!!           |
|                                                                             |
|     For optimal performance we recommend to set                             |
|       NCORE = 2 up to number-of-cores-per-socket                            |
|     NCORE specifies how many cores store one orbital (NPAR=cpu/NCORE).      |
|     This setting can greatly improve the performance of VASP for DFT.       |
|     The default, NCORE=1 might be grossly inefficient on modern             |
|     multi-core architectures or massively parallel machines. Do your        |
|     own testing! More info at https://www.vasp.at/wiki/index.php/NCORE      |
|     Unfortunately you need to use the default for GW and RPA                |
|     calculations (for HF NCORE is supported but not extensively tested      |
|     yet).                                                                   |
|                                                                             |
 -----------------------------------------------------------------------------

 LDA part: xc-table for Pade appr. of Perdew
 POSCAR found type information on POSCAR Al
 POSCAR found :  1 types and       1 ions
 POSCAR, INCAR and KPOINTS ok, starting setup
 FFT: planning ...
 WAVECAR not read
 WARNING: random wavefunctions but no delay for mixing, default for NELMDL
 entering main loop
       N       E                     dE             d eps       ncg     rms          rms(c)
DAV:   1    -0.363251132469E+01   -0.36325E+01   -0.85193E+02 28656   0.337E+01
DAV:   2    -0.368266037578E+01   -0.50149E-01   -0.50084E-01 24960   0.108E+00
DAV:   3    -0.368266254429E+01   -0.21685E-05   -0.21782E-05 31248   0.674E-03
DAV:   4    -0.368266254456E+01   -0.26367E-09   -0.10153E-10 27984   0.919E-06
DAV:   5    -0.368266254421E+01    0.35283E-09    0.16013E-12 30432   0.486E-09    0.174E+00
RMM:   6    -0.374915031527E+01   -0.66488E-01   -0.23959E-03 19973   0.765E-02    0.829E-01
RMM:   7    -0.374054789093E+01    0.86024E-02   -0.92403E-04 20867   0.451E-02    0.663E-01
RMM:   8    -0.374034974867E+01    0.19814E-03   -0.20055E-04 20657   0.240E-02    0.208E-01
RMM:   9    -0.374033942843E+01    0.10320E-04   -0.26626E-05 21620   0.792E-03
   1 F= -.37403394E+01 E0= -.37403394E+01  d E =0.000000E+00  mag=     0.0013
 -----------------------------------------------------------------------------
|                                                                             |
|           W    W    AA    RRRRR   N    N  II  N    N   GGGG   !!!           |
|           W    W   A  A   R    R  NN   N  II  NN   N  G    G  !!!           |
|           W    W  A    A  R    R  N N  N  II  N N  N  G       !!!           |
|           W WW W  AAAAAA  RRRRR   N  N N  II  N  N N  G  GGG   !            |
|           WW  WW  A    A  R   R   N   NN  II  N   NN  G    G                |
|           W    W  A    A  R    R  N    N  II  N    N   GGGG   !!!           |
|                                                                             |
|     Tetrahedron method does not include variations of the Fermi             |
|     occupations, so forces and stress will be inaccurate. We suggest        |
|     using a different smearing scheme ISMEAR = 1 or 2 for metals in         |
|     relaxations.                                                            |
|                                                                             |
 -----------------------------------------------------------------------------

