       N       E                     dE             d eps       ncg     rms          rms(c)
DAV:   1     0.913269814785E+03    0.91327E+03   -0.46563E+04 17928   0.274E+03
DAV:   2     0.395924333948E+02   -0.87368E+03   -0.85337E+03 16064   0.762E+02
DAV:   3    -0.183471995205E+02   -0.57940E+02   -0.55921E+02 17080   0.218E+02
DAV:   4    -0.197616136249E+02   -0.14144E+01   -0.14060E+01 17160   0.336E+01
DAV:   5    -0.198047800710E+02   -0.43166E-01   -0.43165E-01 19448   0.556E+00    0.161E+01
RMM:   6    -0.177795786876E+02    0.20252E+01   -0.36103E+01 16020   0.606E+01    0.103E+01
RMM:   7    -0.163608988462E+02    0.14187E+01   -0.65165E+00 15722   0.280E+01    0.121E+00
RMM:   8    -0.163239395838E+02    0.36959E-01   -0.65947E-02 16480   0.301E+00    0.323E-01
RMM:   9    -0.163232677234E+02    0.67186E-03   -0.13752E-02 16832   0.956E-01    0.942E-02
RMM:  10    -0.163235179905E+02   -0.25027E-03   -0.29402E-03 17010   0.644E-01    0.668E-02
RMM:  11    -0.163235363927E+02   -0.18402E-04   -0.10143E-03 18020   0.256E-01    0.200E-02
RMM:  12    -0.163235565478E+02   -0.20155E-04   -0.25310E-04 20168   0.143E-01    0.665E-03
RMM:  13    -0.163235642161E+02   -0.76683E-05   -0.61487E-05 21248   0.502E-02    0.291E-03
RMM:  14    -0.163235658601E+02   -0.16440E-05   -0.92069E-06 21844   0.224E-02    0.867E-04
RMM:  15    -0.163235660141E+02   -0.15403E-06   -0.14401E-06 22804   0.785E-03    0.121E-04
RMM:  16    -0.163235660594E+02   -0.45315E-07   -0.15304E-07 16675   0.293E-03    0.336E-04
RMM:  17    -0.163235660201E+02    0.39356E-07   -0.21932E-08  9580   0.143E-03    0.167E-05
RMM:  18    -0.163235660233E+02   -0.32524E-08   -0.59327E-09  8674   0.720E-04
   1 F= -.16323566E+02 E0= -.16324478E+02  d E =0.273567E-02
