   8   8   0   0
  0.1935817E+02  0.5370130E-09  0.5370130E-09  0.5370130E-09  0.5000000E-15
   1.0000000000000000E-004
  CAR 
 unknown system                          
     12.71647611     -8.02023232  301      6.28009739      1.00000000
     -8.020  0.0000E+00  0.0000E+00
     -7.951  0.0000E+00  0.0000E+00
     -7.882  0.0000E+00  0.0000E+00
     -7.813  0.0000E+00  0.0000E+00
     -7.744  0.0000E+00  0.0000E+00
     -7.675 -0.1037E-29 -0.7170E-31
     -7.605 -0.2673E-27 -0.1855E-28
     -7.536 -0.5429E-25 -0.3771E-26
     -7.467 -0.8664E-23 -0.6026E-24
     -7.398 -0.1086E-20 -0.7566E-22
     -7.329 -0.1069E-18 -0.7462E-20
     -7.260 -0.8252E-17 -0.5779E-18
     -7.191 -0.4871E-15 -0.3425E-16
     -7.122 -0.2298E-13 -0.1622E-14
     -7.053 -0.8509E-12 -0.6044E-13
     -6.983 -0.2464E-10 -0.1764E-11
     -6.914 -0.5573E-09 -0.4028E-10
     -6.845 -0.9821E-08 -0.7192E-09
     -6.776 -0.1346E-06 -0.1002E-07
     -6.707 -0.1430E-05 -0.1089E-06
     -6.638 -0.1173E-04 -0.9197E-06
     -6.569 -0.7393E-04 -0.6030E-05
     -6.500 -0.3556E-03 -0.3061E-04
     -6.430 -0.1293E-02 -0.1200E-03
     -6.361 -0.3509E-02 -0.3625E-03
     -6.292 -0.6933E-02 -0.8418E-03
     -6.223 -0.9226E-02 -0.1479E-02
     -6.154 -0.4620E-02 -0.1799E-02
     -6.085  0.1738E-01 -0.5978E-03
     -6.016  0.7389E-01  0.4510E-02
     -5.947  0.1833E+00  0.1718E-01
     -5.877  0.3503E+00  0.4140E-01
     -5.808  0.5593E+00  0.8006E-01
     -5.739  0.7772E+00  0.1338E+00
     -5.670  0.9438E+00  0.1990E+00
     -5.601  0.9894E+00  0.2674E+00
     -5.532  0.8974E+00  0.3294E+00
     -5.463  0.7270E+00  0.3797E+00
     -5.394  0.5833E+00  0.4200E+00
     -5.324  0.5987E+00  0.4614E+00
     -5.255  0.8871E+00  0.5227E+00
     -5.186  0.1426E+01  0.6213E+00
     -5.117  0.2003E+01  0.7597E+00
     -5.048  0.2346E+01  0.9219E+00
     -4.979  0.2269E+01  0.1079E+01
     -4.910  0.1756E+01  0.1200E+01
     -4.841  0.1023E+01  0.1271E+01
     -4.771  0.4782E+00  0.1304E+01
     -4.702  0.4464E+00  0.1335E+01
     -4.633  0.9183E+00  0.1398E+01
     -4.564  0.1599E+01  0.1509E+01
     -4.495  0.2127E+01  0.1656E+01
     -4.426  0.2316E+01  0.1816E+01
     -4.357  0.2296E+01  0.1974E+01
     -4.288  0.2363E+01  0.2138E+01
     -4.219  0.2592E+01  0.2317E+01
     -4.149  0.2695E+01  0.2503E+01
     -4.080  0.2347E+01  0.2665E+01
     -4.011  0.1674E+01  0.2781E+01
     -3.942  0.1344E+01  0.2874E+01
     -3.873  0.1965E+01  0.3010E+01
     -3.804  0.3313E+01  0.3239E+01
     -3.735  0.4403E+01  0.3543E+01
     -3.666  0.4451E+01  0.3851E+01
     -3.596  0.3558E+01  0.4097E+01
     -3.527  0.2323E+01  0.4257E+01
     -3.458  0.1222E+01  0.4342E+01
     -3.389  0.6001E+00  0.4383E+01
     -3.320  0.8268E+00  0.4441E+01
     -3.251  0.1970E+01  0.4577E+01
     -3.182  0.3466E+01  0.4816E+01
     -3.113  0.4456E+01  0.5124E+01
     -3.043  0.4586E+01  0.5441E+01
     -2.974  0.4345E+01  0.5742E+01
     -2.905  0.4410E+01  0.6047E+01
     -2.836  0.4695E+01  0.6371E+01
     -2.767  0.4406E+01  0.6676E+01
     -2.698  0.3137E+01  0.6892E+01
     -2.629  0.1462E+01  0.6993E+01
     -2.560  0.3095E+00  0.7015E+01
     -2.490  0.1181E+00  0.7023E+01
     -2.421  0.6582E+00  0.7069E+01
     -2.352  0.1311E+01  0.7159E+01
     -2.283  0.1498E+01  0.7263E+01
     -2.214  0.1117E+01  0.7340E+01
     -2.145  0.5920E+00  0.7381E+01
     -2.076  0.3666E+00  0.7406E+01
     -2.007  0.4625E+00  0.7438E+01
     -1.937  0.6340E+00  0.7482E+01
     -1.868  0.8389E+00  0.7540E+01
     -1.799  0.1320E+01  0.7631E+01
     -1.730  0.2144E+01  0.7779E+01
     -1.661  0.2885E+01  0.7979E+01
     -1.592  0.2992E+01  0.8186E+01
     -1.523  0.2406E+01  0.8352E+01
     -1.454  0.1604E+01  0.8463E+01
     -1.384  0.1026E+01  0.8534E+01
     -1.315  0.6815E+00  0.8581E+01
     -1.246  0.3686E+00  0.8606E+01
     -1.177  0.7474E-01  0.8612E+01
     -1.108  0.1315E-01  0.8612E+01
     -1.039  0.3746E+00  0.8638E+01
     -0.970  0.1132E+01  0.8717E+01
     -0.901  0.2106E+01  0.8862E+01
     -0.832  0.3215E+01  0.9084E+01
     -0.762  0.4440E+01  0.9391E+01
     -0.693  0.5424E+01  0.9766E+01
     -0.624  0.5509E+01  0.1015E+02
     -0.555  0.4555E+01  0.1046E+02
     -0.486  0.3309E+01  0.1069E+02
     -0.417  0.2628E+01  0.1087E+02
     -0.348  0.2747E+01  0.1106E+02
     -0.279  0.3501E+01  0.1130E+02
     -0.209  0.4650E+01  0.1163E+02
     -0.140  0.5667E+01  0.1202E+02
     -0.071  0.5718E+01  0.1241E+02
     -0.002  0.4402E+01  0.1272E+02
      0.067  0.2346E+01  0.1288E+02
      0.136  0.6403E+00  0.1292E+02
      0.205 -0.1849E+00  0.1291E+02
      0.274 -0.3505E+00  0.1289E+02
      0.344 -0.2453E+00  0.1287E+02
      0.413  0.1283E-01  0.1287E+02
      0.482  0.4910E+00  0.1290E+02
      0.551  0.1173E+01  0.1299E+02
      0.620  0.1942E+01  0.1312E+02
      0.689  0.2723E+01  0.1331E+02
      0.758  0.3345E+01  0.1354E+02
      0.827  0.3380E+01  0.1377E+02
      0.897  0.2559E+01  0.1395E+02
      0.966  0.1272E+01  0.1404E+02
      1.035  0.2307E+00  0.1405E+02
      1.104 -0.2118E+00  0.1404E+02
      1.173 -0.1210E+00  0.1403E+02
      1.242  0.3448E+00  0.1405E+02
      1.311  0.9683E+00  0.1412E+02
      1.380  0.1383E+01  0.1422E+02
      1.450  0.1384E+01  0.1431E+02
      1.519  0.1310E+01  0.1440E+02
      1.588  0.1719E+01  0.1452E+02
      1.657  0.2604E+01  0.1470E+02
      1.726  0.3339E+01  0.1493E+02
      1.795  0.3501E+01  0.1517E+02
      1.864  0.3304E+01  0.1540E+02
      1.933  0.3124E+01  0.1562E+02
      2.003  0.3089E+01  0.1583E+02
      2.072  0.3343E+01  0.1606E+02
      2.141  0.4189E+01  0.1635E+02
      2.210  0.5542E+01  0.1674E+02
      2.279  0.6564E+01  0.1719E+02
      2.348  0.6294E+01  0.1762E+02
      2.417  0.4650E+01  0.1795E+02
      2.486  0.2615E+01  0.1813E+02
      2.555  0.1435E+01  0.1823E+02
      2.625  0.1689E+01  0.1834E+02
      2.694  0.3009E+01  0.1855E+02
      2.763  0.4394E+01  0.1885E+02
      2.832  0.4830E+01  0.1919E+02
      2.901  0.4130E+01  0.1947E+02
      2.970  0.3330E+01  0.1970E+02
      3.039  0.3767E+01  0.1996E+02
      3.108  0.5598E+01  0.2035E+02
      3.178  0.7547E+01  0.2087E+02
      3.247  0.8204E+01  0.2144E+02
      3.316  0.7377E+01  0.2195E+02
      3.385  0.6083E+01  0.2237E+02
      3.454  0.5439E+01  0.2275E+02
      3.523  0.5701E+01  0.2314E+02
      3.592  0.6152E+01  0.2357E+02
      3.661  0.5769E+01  0.2396E+02
      3.731  0.4233E+01  0.2426E+02
      3.800  0.2426E+01  0.2442E+02
      3.869  0.1738E+01  0.2454E+02
      3.938  0.2873E+01  0.2474E+02
      4.007  0.5210E+01  0.2510E+02
      4.076  0.7189E+01  0.2560E+02
      4.145  0.7583E+01  0.2612E+02
      4.214  0.6697E+01  0.2659E+02
      4.284  0.5956E+01  0.2700E+02
      4.353  0.6075E+01  0.2742E+02
      4.422  0.6212E+01  0.2785E+02
      4.491  0.5359E+01  0.2822E+02
      4.560  0.3861E+01  0.2849E+02
      4.629  0.2905E+01  0.2869E+02
      4.698  0.2986E+01  0.2889E+02
      4.767  0.3586E+01  0.2914E+02
      4.837  0.4000E+01  0.2942E+02
      4.906  0.3918E+01  0.2969E+02
      4.975  0.3452E+01  0.2993E+02
      5.044  0.3022E+01  0.3014E+02
      5.113  0.3084E+01  0.3035E+02
      5.182  0.3614E+01  0.3060E+02
      5.251  0.3938E+01  0.3087E+02
      5.320  0.3428E+01  0.3111E+02
      5.390  0.2335E+01  0.3127E+02
      5.459  0.1538E+01  0.3138E+02
      5.528  0.1469E+01  0.3148E+02
      5.597  0.1660E+01  0.3159E+02
      5.666  0.1458E+01  0.3169E+02
      5.735  0.8394E+00  0.3175E+02
      5.804  0.3010E+00  0.3177E+02
      5.873  0.2101E+00  0.3179E+02
      5.942  0.4804E+00  0.3182E+02
      6.012  0.7620E+00  0.3187E+02
      6.081  0.7973E+00  0.3193E+02
      6.150  0.5983E+00  0.3197E+02
      6.219  0.3348E+00  0.3199E+02
      6.288  0.1313E+00  0.3200E+02
      6.357  0.1088E-01  0.3200E+02
      6.426 -0.4211E-01  0.3200E+02
      6.495 -0.2524E-01  0.3200E+02
      6.565  0.8508E-01  0.3200E+02
      6.634  0.2890E+00  0.3202E+02
      6.703  0.5159E+00  0.3206E+02
      6.772  0.6556E+00  0.3210E+02
      6.841  0.6623E+00  0.3215E+02
      6.910  0.6086E+00  0.3219E+02
      6.979  0.6100E+00  0.3223E+02
      7.048  0.7088E+00  0.3228E+02
      7.118  0.8654E+00  0.3234E+02
      7.187  0.1069E+01  0.3242E+02
      7.256  0.1367E+01  0.3251E+02
      7.325  0.1698E+01  0.3263E+02
      7.394  0.1855E+01  0.3276E+02
      7.463  0.1839E+01  0.3288E+02
      7.532  0.2024E+01  0.3302E+02
      7.601  0.2593E+01  0.3320E+02
      7.671  0.3119E+01  0.3342E+02
      7.740  0.3190E+01  0.3364E+02
      7.809  0.3116E+01  0.3385E+02
      7.878  0.3391E+01  0.3409E+02
      7.947  0.3776E+01  0.3435E+02
      8.016  0.3698E+01  0.3460E+02
      8.085  0.3317E+01  0.3483E+02
      8.154  0.3356E+01  0.3507E+02
      8.224  0.4039E+01  0.3535E+02
      8.293  0.4971E+01  0.3569E+02
      8.362  0.5960E+01  0.3610E+02
      8.431  0.7137E+01  0.3659E+02
      8.500  0.8177E+01  0.3716E+02
      8.569  0.8178E+01  0.3772E+02
      8.638  0.6691E+01  0.3819E+02
      8.707  0.4377E+01  0.3849E+02
      8.777  0.2441E+01  0.3866E+02
      8.846  0.1720E+01  0.3878E+02
      8.915  0.2209E+01  0.3893E+02
      8.984  0.3162E+01  0.3915E+02
      9.053  0.3778E+01  0.3941E+02
      9.122  0.3890E+01  0.3968E+02
      9.191  0.3834E+01  0.3994E+02
      9.260  0.3980E+01  0.4022E+02
      9.329  0.4697E+01  0.4054E+02
      9.399  0.6365E+01  0.4098E+02
      9.468  0.8789E+01  0.4159E+02
      9.537  0.1076E+02  0.4233E+02
      9.606  0.1083E+02  0.4308E+02
      9.675  0.8947E+01  0.4370E+02
      9.744  0.6723E+01  0.4417E+02
      9.813  0.5739E+01  0.4456E+02
      9.882  0.5854E+01  0.4497E+02
      9.952  0.5769E+01  0.4537E+02
     10.021  0.4834E+01  0.4570E+02
     10.090  0.3577E+01  0.4595E+02
     10.159  0.2734E+01  0.4614E+02
     10.228  0.2393E+01  0.4630E+02
     10.297  0.2179E+01  0.4645E+02
     10.366  0.2000E+01  0.4659E+02
     10.435  0.2264E+01  0.4675E+02
     10.505  0.3159E+01  0.4697E+02
     10.574  0.4093E+01  0.4725E+02
     10.643  0.4259E+01  0.4754E+02
     10.712  0.3476E+01  0.4778E+02
     10.781  0.2208E+01  0.4794E+02
     10.850  0.1021E+01  0.4801E+02
     10.919  0.2437E+00  0.4802E+02
     10.988 -0.8760E-01  0.4802E+02
     11.058 -0.1317E+00  0.4801E+02
     11.127 -0.7803E-01  0.4800E+02
     11.196 -0.3033E-01  0.4800E+02
     11.265 -0.8502E-02  0.4800E+02
     11.334 -0.1779E-02  0.4800E+02
     11.403 -0.2826E-03  0.4800E+02
     11.472 -0.3444E-04  0.4800E+02
     11.541 -0.3239E-05  0.4800E+02
     11.611 -0.2362E-06  0.4800E+02
     11.680 -0.1339E-07  0.4800E+02
     11.749 -0.5920E-09  0.4800E+02
     11.818 -0.2043E-10  0.4800E+02
     11.887 -0.5514E-12  0.4800E+02
     11.956 -0.1234E-13  0.4800E+02
     12.025  0.0000E+00  0.4800E+02
     12.094  0.0000E+00  0.4800E+02
     12.163  0.0000E+00  0.4800E+02
     12.233  0.0000E+00  0.4800E+02
     12.302  0.0000E+00  0.4800E+02
     12.371  0.0000E+00  0.4800E+02
     12.440  0.0000E+00  0.4800E+02
     12.509  0.0000E+00  0.4800E+02
     12.578  0.0000E+00  0.4800E+02
     12.647  0.0000E+00  0.4800E+02
     12.716  0.0000E+00  0.4800E+02
