    8    8    1    1
  0.1935817E+02  0.5370130E-09  0.5370130E-09  0.5370130E-09  0.5000000E-15
   1.0000000000000000E-004
  CAR 
 unknown system                          
     32     10     24

  0.1262379E-14  0.1262379E-14  0.1262379E-14  0.8000000E-02
    1       -6.020232   1.000000
    2       -1.751845   1.000000
    3       -1.751845   1.000000
    4       -1.751845   1.000000
    5       -1.751845   1.000000
    6       -1.751845   1.000000
    7       -1.751845   1.000000
    8        3.233657   1.000000
    9        3.233657   1.000000
   10        3.233657   1.000000
   11        3.233657   1.000000
   12        3.233657   1.000000
   13        3.233657   1.000000
   14        6.172288   0.890786
   15        6.172288   0.890786
   16        6.172288   0.890786
   17        6.813550  -0.000531
   18        6.813550  -0.000531
   19        6.813550  -0.000531
   20        6.813550  -0.000531
   21        6.813550  -0.000531
   22        6.813550  -0.000531
   23        8.750714  -0.000000
   24        8.750714  -0.000000

  0.2000000E+00  0.1262379E-14  0.1262379E-14  0.4800000E-01
    1       -5.840251   1.000000
    2       -3.227149   1.000000
    3       -1.693926   1.000000
    4       -1.693926   1.000000
    5       -1.693926   1.000000
    6       -1.693926   1.000000
    7       -0.064300   1.000000
    8        2.800490   1.000000
    9        2.800490   1.000000
   10        2.800490   1.000000
   11        2.800490   1.000000
   12        3.395187   1.000000
   13        3.395187   1.000000
   14        5.263078   1.000000
   15        5.573065   1.000003
   16        5.573065   1.000003
   17        6.693041  -0.006450
   18        7.417784  -0.000000
   19        7.697171  -0.000000
   20        7.697171  -0.000000
   21        7.697171  -0.000000
   22        7.697172  -0.000000
   23        8.360045  -0.000000
   24        9.570133  -0.000000

  0.4000000E+00  0.1262379E-14  0.1262379E-14  0.4800000E-01
    1       -5.304283   1.000000
    2       -4.425090   1.000000
    3       -1.591082   1.000000
    4       -1.591082   1.000000
    5       -1.591082   1.000000
    6       -1.591082   1.000000
    7        1.745152   1.000000
    8        2.259379   1.000000
    9        2.259379   1.000000
   10        2.259379   1.000000
   11        2.259379   1.000000
   12        3.572208   1.000000
   13        3.872152   1.000000
   14        3.872152   1.000000
   15        4.633602   1.000000
   16        4.633602   1.000000
   17        6.991254  -0.000003
   18        7.613808  -0.000000
   19        8.546042  -0.000000
   20        9.611357  -0.000000
   21        9.611357  -0.000000
   22        9.611357  -0.000000
   23        9.611357  -0.000000
   24       10.106509  -0.000000

  0.2000000E+00  0.2000000E+00  0.1262379E-14  0.9600000E-01
    1       -5.662425   1.000000
    2       -3.103251   1.000000
    3       -3.103251   1.000000
    4       -1.973291   1.000000
    5       -1.365895   1.000000
    6       -0.150214   1.000000
    7       -0.150214   1.000000
    8        1.960397   1.000000
    9        2.846523   1.000000
   10        2.846523   1.000000
   11        3.180776   1.000000
   12        3.180776   1.000000
   13        3.518456   1.000000
   14        4.138431   1.000000
   15        4.967436   1.000000
   16        5.994915   1.030787
   17        7.144651  -0.000000
   18        7.628036  -0.000000
   19        7.628036  -0.000000
   20        8.209793  -0.000000
   21        8.209793  -0.000000
   22        9.118680  -0.000000
   23        9.273847  -0.000000
   24        9.325688  -0.000000

  0.4000000E+00  0.2000000E+00  0.1262379E-14  0.1920000E+00
    1       -5.133716   1.000000
    2       -4.269942   1.000000
    3       -2.766900   1.000000
    4       -2.336065   1.000000
    5       -0.925734   1.000000
    6       -0.457619   1.000000
    7        1.372188   1.000000
    8        1.677572   1.000000
    9        2.053121   1.000000
   10        2.783446   1.000000
   11        3.071757   1.000000
   12        3.270480   1.000000
   13        3.367332   1.000000
   14        4.018532   1.000000
   15        4.020406   1.000000
   16        5.179735   1.000000
   17        7.936977  -0.000000
   18        8.319445  -0.000000
   19        8.529069  -0.000000
   20        9.216283  -0.000000
   21        9.588715  -0.000000
   22        9.922844  -0.000000
   23       10.043175  -0.000000
   24       10.716476  -0.000000

  0.4000000E+00  0.4000000E+00  0.1262379E-14  0.9600000E-01
    1       -4.629902   1.000000
    2       -3.820394   1.000000
    3       -3.820394   1.000000
    4       -3.134097   1.000000
    5       -0.217953   1.000000
    6        0.588494   1.000000
    7        0.588494   1.000000
    8        1.655652   1.000000
    9        1.757641   1.000000
   10        2.361341   1.000000
   11        2.361341   1.000000
   12        3.068903   1.000000
   13        4.303388   1.000000
   14        4.326465   1.000000
   15        4.326465   1.000000
   16        5.307299   1.000000
   17        8.063006  -0.000000
   18        9.134156  -0.000000
   19        9.386419  -0.000000
   20        9.386419  -0.000000
   21        9.869734  -0.000000
   22        9.869734  -0.000000
   23       10.215807  -0.000000
   24       10.550847  -0.000000

  0.2000000E+00  0.2000000E+00  0.2000000E+00  0.6400000E-01
    1       -5.487315   1.000000
    2       -3.015585   1.000000
    3       -3.015585   1.000000
    4       -3.015585   1.000000
    5       -0.328260   1.000000
    6       -0.328260   1.000000
    7       -0.328260   1.000000
    8        2.361185   1.000000
    9        2.361185   1.000000
   10        2.361185   1.000000
   11        3.123913   1.000000
   12        3.670536   1.000000
   13        3.670536   1.000000
   14        3.670536   1.000000
   15        5.576137   1.000004
   16        5.576137   1.000004
   17        7.352702  -0.000000
   18        7.352702  -0.000000
   19        7.352702  -0.000000
   20        8.505623  -0.000000
   21        9.558368  -0.000000
   22        9.558368  -0.000000
   23        9.562816  -0.000000
   24        9.569649  -0.000000

  0.4000000E+00  0.2000000E+00  0.2000000E+00  0.1920000E+00
    1       -4.968179   1.000000
    2       -4.126683   1.000000
    3       -2.846001   1.000000
    4       -2.846001   1.000000
    5       -0.666084   1.000000
    6       -0.666084   1.000000
    7        0.796834   1.000000
    8        1.899511   1.000000
    9        2.218976   1.000000
   10        2.218976   1.000000
   11        3.479257   1.000000
   12        3.618047   1.000000
   13        3.618047   1.000000
   14        4.114185   1.000000
   15        4.799383   1.000000
   16        4.877635   1.000000
   17        7.926260  -0.000000
   18        8.504259  -0.000000
   19        8.504259  -0.000000
   20        8.596066  -0.000000
   21        9.649282  -0.000000
   22       10.277039  -0.000000
   23       10.517976  -0.000000
   24       10.586163  -0.000000

  0.4000000E+00  0.4000000E+00  0.2000000E+00  0.1920000E+00
    1       -4.483647   1.000000
    2       -3.727811   1.000000
    3       -3.727811   1.000000
    4       -3.203994   1.000000
    5       -0.653399   1.000000
    6       -0.080738   1.000000
    7       -0.080738   1.000000
    8        0.788515   1.000000
    9        2.644868   1.000000
   10        3.197793   1.000000
   11        3.197793   1.000000
   12        4.075170   1.000000
   13        4.409081   1.000000
   14        4.423738   1.000000
   15        4.423738   1.000000
   16        5.241386   1.000000
   17        8.226240  -0.000000
   18        8.703047  -0.000000
   19        8.972317  -0.000000
   20        8.972317  -0.000000
   21        9.474923  -0.000000
   22        9.474923  -0.000000
   23        9.800058  -0.000000
   24        9.883194  -0.000000

  0.4000000E+00  0.4000000E+00  0.4000000E+00  0.6400000E-01
    1       -4.076767   1.000000
    2       -3.548332   1.000000
    3       -3.548332   1.000000
    4       -3.548332   1.000000
    5       -0.798110   1.000000
    6       -0.798110   1.000000
    7       -0.798110   1.000000
    8       -0.228635   1.000000
    9        4.155626   1.000000
   10        4.155626   1.000000
   11        4.155626   1.000000
   12        4.688012   1.000000
   13        4.688012   1.000000
   14        4.688012   1.000000
   15        5.018570   1.000000
   16        5.018570   1.000000
   17        7.913493  -0.000000
   18        8.407280  -0.000000
   19        8.407280  -0.000000
   20        8.407280  -0.000000
   21        9.499024  -0.000000
   22        9.499025  -0.000000
   23        9.510346  -0.000000
   24        9.579129  -0.000000
