       N       E                     dE             d eps       ncg     rms          rms(c)
DAV:   1     0.744013564241E+02    0.74401E+02   -0.12130E+04   480   0.108E+03
DAV:   2    -0.389439574461E+02   -0.11335E+03   -0.10348E+03   640   0.160E+02
DAV:   3    -0.439760622798E+02   -0.50321E+01   -0.49714E+01   616   0.317E+01
DAV:   4    -0.440548406174E+02   -0.78778E-01   -0.78633E-01   584   0.509E+00
DAV:   5    -0.440568099292E+02   -0.19693E-02   -0.19688E-02   632   0.712E-01    0.619E+00
RMM:   6    -0.434953500674E+02    0.56146E+00   -0.27356E-01   480   0.206E+00    0.368E+00
RMM:   7    -0.432430032911E+02    0.25235E+00   -0.63907E-01   506   0.330E+00    0.316E-01
RMM:   8    -0.432520480361E+02   -0.90447E-02   -0.56954E-02   505   0.117E+00    0.870E-02
RMM:   9    -0.432532773066E+02   -0.12293E-02   -0.15545E-02   544   0.540E-01    0.861E-02
RMM:  10    -0.432536866392E+02   -0.40933E-03   -0.36580E-03   517   0.303E-01    0.517E-02
RMM:  11    -0.432536874025E+02   -0.76332E-06   -0.10959E-03   557   0.164E-01    0.492E-03
RMM:  12    -0.432537131651E+02   -0.25763E-04   -0.24106E-04   576   0.845E-02    0.478E-03
RMM:  13    -0.432537172390E+02   -0.40739E-05   -0.61853E-05   538   0.404E-02    0.423E-03
RMM:  14    -0.432537182940E+02   -0.10550E-05   -0.11005E-05   493   0.179E-02    0.225E-03
RMM:  15    -0.432537183772E+02   -0.83196E-07   -0.25597E-06   386   0.868E-03
   1 F= -.43253718E+02 E0= -.43254408E+02  d E =0.206764E-02
