 vasp.6.2.1 16May21 (build Aug 15 2022 14:47:30) complex                         
 executed on             LinuxGNU date 2025.12.04  19:32:58
 running on   48 total cores
 distrk:  each k-point on   48 cores,    1 groups
 distr:  one band on NCORE=   1 cores,   48 groups


--------------------------------------------------------------------------------------------------------


 INCAR:
   ALGO = Fast
   EDIFF = 0.00035
   ENCUT = 520.0
   ISMEAR = -5
   ISPIN = 2
   LASPH = True
   LCHARG = True
   LDAU = True
   LDAUJ = 0 0 0
   LDAUL = 0 2 0
   LDAUPRINT = 1
   LDAUTYPE = 2
   LDAUU = 0 6.2 0
   LMAXMIX = 6
   LORBIT = 11
   LREAL = False
   LWAVE = False
   MAGMOM = 2*0.6 1*5.0 4*0.6
   NELM = 100
   NSW = 0
   PREC = Accurate
   SIGMA = 0.05

 POTCAR:    PAW_PBE La 06Sep2000                  
 POTCAR:    PAW_PBE Ni_pv 06Sep2000               
 POTCAR:    PAW_PBE O 08Apr2002                   
 -----------------------------------------------------------------------------
|                                                                             |
|           W    W    AA    RRRRR   N    N  II  N    N   GGGG   !!!           |
|           W    W   A  A   R    R  NN   N  II  NN   N  G    G  !!!           |
|           W    W  A    A  R    R  N N  N  II  N N  N  G       !!!           |
|           W WW W  AAAAAA  RRRRR   N  N N  II  N  N N  G  GGG   !            |
|           WW  WW  A    A  R   R   N   NN  II  N   NN  G    G                |
|           W    W  A    A  R    R  N    N  II  N    N   GGGG   !!!           |
|                                                                             |
|     For optimal performance we recommend to set                             |
|       NCORE = 2 up to number-of-cores-per-socket                            |
|     NCORE specifies how many cores store one orbital (NPAR=cpu/NCORE).      |
|     This setting can greatly improve the performance of VASP for DFT.       |
|     The default, NCORE=1 might be grossly inefficient on modern             |
|     multi-core architectures or massively parallel machines. Do your        |
|     own testing! More info at https://www.vasp.at/wiki/index.php/NCORE      |
|     Unfortunately you need to use the default for GW and RPA                |
|     calculations (for HF NCORE is supported but not extensively tested      |
|     yet).                                                                   |
|                                                                             |
 -----------------------------------------------------------------------------

 POTCAR:    PAW_PBE La 06Sep2000                  
   VRHFIN =La : [core=Kr4d]                                                                         
   LEXCH  = PE                                                                                      
   EATOM  =   865.9763 eV,   63.6475 Ry                                                             
                                                                                                    
   TITEL  = PAW_PBE La 06Sep2000                                                                    
   LULTRA =        F    use ultrasoft PP ?                                                          
   IUNSCR =        1    unscreen: 0-lin 1-nonlin 2-no                                               
   RPACOR =    2.300    partial core radius                                                         
   POMASS =  138.900; ZVAL   =   11.000    mass and valenz                                          
   RCORE  =    2.800    outmost cutoff radius                                                       
   RWIGS  =    2.900; RWIGS  =    1.535    wigner-seitz radius (au A)                               
   ENMAX  =  219.292; ENMIN  =  164.469 eV                                                          
   RCLOC  =    1.601    cutoff for local pot                                                        
   LCOR   =        T    correct aug charges                                                         
   LPAW   =        T    paw PP                                                                      
   EAUG   =  583.575                                                                                
   DEXC   =    0.000                                                                                
   RMAX   =    2.853    core radius for proj-oper                                                   
   RAUG   =    1.300    factor for augmentation sphere                                              
   RDEP   =    2.802    radius for radial grids                                                     
   RDEPT  =    2.156    core radius for aug-charge                                                  
                                                                                                    
   Atomic configuration                                                                             
   14 entries                                                                                       
     n  l   j            E        occ.                                                              
     1  0  0.50    -38741.0879   2.0000                                                             
     2  0  0.50     -6166.6801   2.0000                                                             
     2  1  1.50     -5526.1593   6.0000                                                             
     3  0  0.50     -1319.0200   2.0000                                                             
     3  1  1.50     -1114.5963   6.0000                                                             
     3  2  2.50      -821.1793  10.0000                                                             
     4  0  0.50      -266.3851   2.0000                                                             
     4  1  1.50      -199.9276   6.0000                                                             
     4  2  2.50      -103.8239  10.0000                                                             
     5  0  0.50       -38.9172   2.0000                                                             
     6  0  0.50        -3.6792   2.0000                                                             
     5  1  1.50       -22.3948   6.0000                                                             
     5  2  2.50        -3.0911   0.9999                                                             
     4  3  2.50        -4.3603   0.0001                                                             
   Description                                                                                      
     l       E           TYP  RCUT    TYP  RCUT                                                     
     0    -38.9171645     23  2.800                                                                 
     0     -3.6792381     23  2.800                                                                 
     1    -22.3948300     23  2.500                                                                 
     1     27.2116520     23  2.500                                                                 
     2     -3.0910934     23  2.500                                                                 
     2      1.0119135     23  2.500                                                                 
     3     -4.3602911     23  2.800                                                                 
     3     -5.7208737     23  2.800                                                                 
  local pseudopotential read in
  partial core-charges read in
  partial kinetic energy density read in
  atomic valenz-charges read in
  non local Contribution for L=           0  read in
    real space projection operators read in
  non local Contribution for L=           0  read in
    real space projection operators read in
  non local Contribution for L=           1  read in
    real space projection operators read in
  non local Contribution for L=           1  read in
    real space projection operators read in
  non local Contribution for L=           2  read in
    real space projection operators read in
  non local Contribution for L=           2  read in
    real space projection operators read in
  non local Contribution for L=           3  read in
    real space projection operators read in
  non local Contribution for L=           3  read in
    real space projection operators read in
    PAW grid and wavefunctions read in

   number of l-projection  operators is LMAX  =           8
   number of lm-projection operators is LMMAX =          32

 POTCAR:    PAW_PBE Ni_pv 06Sep2000               
   VRHFIN =Ni:                                                                                      
   LEXCH  = PE                                                                                      
   EATOM  =  3501.1230 eV,  257.3253 Ry                                                             
                                                                                                    
   TITEL  = PAW_PBE Ni_pv 06Sep2000                                                                 
   LULTRA =        F    use ultrasoft PP ?                                                          
   IUNSCR =        1    unscreen: 0-lin 1-nonlin 2-no                                               
   RPACOR =    1.500    partial core radius                                                         
   POMASS =   58.690; ZVAL   =   16.000    mass and valenz                                          
   RCORE  =    2.000    outmost cutoff radius                                                       
   RWIGS  =    2.000; RWIGS  =    1.058    wigner-seitz radius (au A)                               
   ENMAX  =  367.986; ENMIN  =  275.989 eV                                                          
   RCLOC  =    1.301    cutoff for local pot                                                        
   LCOR   =        T    correct aug charges                                                         
   LPAW   =        T    paw PP                                                                      
   EAUG   =  703.443                                                                                
   DEXC   =    0.000                                                                                
   RMAX   =    2.041    core radius for proj-oper                                                   
   RAUG   =    1.300    factor for augmentation sphere                                              
   RDEP   =    2.103    radius for radial grids                                                     
   RDEPT  =    1.618    core radius for aug-charge                                                  
                                                                                                    
   Atomic configuration                                                                             
    8 entries                                                                                       
     n  l   j            E        occ.                                                              
     1  0  0.50     -8206.4253   2.0000                                                             
     2  0  0.50      -976.1748   2.0000                                                             
     2  1  1.50      -839.0571   6.0000                                                             
     3  0  0.50      -105.9991   2.0000                                                             
     3  1  1.50       -66.4603   6.0000                                                             
     3  2  2.50        -4.6458   9.0000                                                             
     4  0  0.50        -4.4926   1.0000                                                             
     4  3  2.50        -1.3606   0.0000                                                             
   Description                                                                                      
     l       E           TYP  RCUT    TYP  RCUT                                                     
     1    -66.4602962     23  1.700                                                                 
     1     -1.3605826     23  1.700                                                                 
     2     -4.6457867     23  2.000                                                                 
     2     -6.0063693     23  2.000                                                                 
     0     -4.4925576     23  1.900                                                                 
     0     16.3626226     23  1.900                                                                 
  local pseudopotential read in
  partial core-charges read in
  partial kinetic energy density read in
  atomic valenz-charges read in
  non local Contribution for L=           1  read in
    real space projection operators read in
  non local Contribution for L=           1  read in
    real space projection operators read in
  non local Contribution for L=           2  read in
    real space projection operators read in
  non local Contribution for L=           2  read in
    real space projection operators read in
  non local Contribution for L=           0  read in
    real space projection operators read in
  non local Contribution for L=           0  read in
    real space projection operators read in
    PAW grid and wavefunctions read in

   number of l-projection  operators is LMAX  =           6
   number of lm-projection operators is LMMAX =          18

 POTCAR:    PAW_PBE O 08Apr2002                   
   VRHFIN =O: s2p4                                                                                  
   LEXCH  = PE                                                                                      
   EATOM  =   432.3788 eV,   31.7789 Ry                                                             
                                                                                                    
   TITEL  = PAW_PBE O 08Apr2002                                                                     
   LULTRA =        F    use ultrasoft PP ?                                                          
   IUNSCR =        1    unscreen: 0-lin 1-nonlin 2-no                                               
   RPACOR =    1.200    partial core radius                                                         
   POMASS =   16.000; ZVAL   =    6.000    mass and valenz                                          
   RCORE  =    1.520    outmost cutoff radius                                                       
   RWIGS  =    1.550; RWIGS  =    0.820    wigner-seitz radius (au A)                               
   ENMAX  =  400.000; ENMIN  =  300.000 eV                                                          
   ICORE  =        2    local potential                                                             
   LCOR   =        T    correct aug charges                                                         
   LPAW   =        T    paw PP                                                                      
   EAUG   =  605.392                                                                                
   DEXC   =    0.000                                                                                
   RMAX   =    1.553    core radius for proj-oper                                                   
   RAUG   =    1.300    factor for augmentation sphere                                              
   RDEP   =    1.550    radius for radial grids                                                     
   RDEPT  =    1.329    core radius for aug-charge                                                  
                                                                                                    
   Atomic configuration                                                                             
    4 entries                                                                                       
     n  l   j            E        occ.                                                              
     1  0  0.50      -514.6923   2.0000                                                             
     2  0  0.50       -23.9615   2.0000                                                             
     2  1  0.50        -9.0305   4.0000                                                             
     3  2  1.50        -9.5241   0.0000                                                             
   Description                                                                                      
     l       E           TYP  RCUT    TYP  RCUT                                                     
     0    -23.9615318     23  1.200                                                                 
     0     -9.5240782     23  1.200                                                                 
     1     -9.0304911     23  1.520                                                                 
     1      8.1634956     23  1.520                                                                 
     2     -9.5240782      7  1.500                                                                 
  local pseudopotential read in
  partial core-charges read in
  partial kinetic energy density read in
  kinetic energy density of atom read in
  atomic valenz-charges read in
  non local Contribution for L=           0  read in
    real space projection operators read in
  non local Contribution for L=           0  read in
    real space projection operators read in
  non local Contribution for L=           1  read in
    real space projection operators read in
  non local Contribution for L=           1  read in
    real space projection operators read in
    PAW grid and wavefunctions read in

   number of l-projection  operators is LMAX  =           4
   number of lm-projection operators is LMMAX =           8

  PAW_PBE La 06Sep2000                  :
 energy of atom  1       EATOM= -865.9763
 kinetic energy error for atom=    0.0009 (will be added to EATOM!!)
  PAW_PBE Ni_pv 06Sep2000               :
 energy of atom  2       EATOM=-3501.1230
 kinetic energy error for atom=    0.0575 (will be added to EATOM!!)
  PAW_PBE O 08Apr2002                   :
 energy of atom  3       EATOM= -432.3788
 kinetic energy error for atom=    0.0208 (will be added to EATOM!!)


 POSCAR: # Generated by Masgent for EOS calculati
  positions in direct lattice
  No initial velocities read in
 exchange correlation table for  LEXCH =        8
   RHO(1)=    0.500       N(1)  =     2000
   RHO(2)=  100.500       N(2)  =     4000

 VTST: version 4.2, (08/11/21)

 CHAIN: initializing optimizer
 
 OPT: Using VASP Dynamics algorithm
 CHAIN: Read ICHAIN            0

 POSCAR: # Generated by Masgent for EOS calculati
  positions in direct lattice
  No initial velocities read in



--------------------------------------------------------------------------------------------------------


 ion  position               nearest neighbor table
   1  0.363  0.363  0.727-   4 2.28   6 2.57   7 2.57   6 2.57   7 2.57   5 2.79   5 2.79   5 2.79
                             5 2.79   2 3.37
   2  0.637  0.637  0.273-   5 2.28   6 2.57   7 2.57   6 2.57   7 2.57   4 2.79   4 2.79   4 2.79
                             4 2.79   1 3.37
   3  0.000  0.000  0.000-   6 1.94   7 1.94   7 1.94   6 1.94   4 2.21   5 2.21
   4  0.179  0.179  0.358-   3 2.21   1 2.28   2 2.79   2 2.79   2 2.79   2 2.79
   5  0.821  0.821  0.642-   3 2.21   2 2.28   1 2.79   1 2.79   1 2.79   1 2.79
   6  0.500  0.000  0.000-   3 1.94   3 1.94   1 2.57   2 2.57   1 2.57   2 2.57
   7  0.000  0.500  0.000-   3 1.94   3 1.94   1 2.57   2 2.57   2 2.57   1 2.57

  LATTYP: Found a body centered tetragonal cell.
 ALAT       =     3.8710552555
 C/A-ratio  =     3.1906429261
  
  Lattice vectors:
  
 A1 = (   1.9355276278,  -1.9355276278,  -6.1755775338)
 A2 = (  -1.9355276278,   1.9355276278,  -6.1755775338)
 A3 = (   1.9355276278,   1.9355276278,   6.1755775338)


Analysis of symmetry for initial positions (statically):
=====================================================================
 Subroutine PRICEL returns:
 Original cell was already a primitive cell.
 

 Routine SETGRP: Setting up the symmetry group for a 
 body centered tetragonal supercell.


 Subroutine GETGRP returns: Found 16 space group operations
 (whereof 16 operations were pure point group operations)
 out of a pool of 16 trial point group operations.


The static configuration has the point symmetry D_4h.


Analysis of symmetry for dynamics (positions and initial velocities):
=====================================================================
 Subroutine PRICEL returns:
 Original cell was already a primitive cell.
 

 Routine SETGRP: Setting up the symmetry group for a 
 body centered tetragonal supercell.


 Subroutine GETGRP returns: Found 16 space group operations
 (whereof 16 operations were pure point group operations)
 out of a pool of 16 trial point group operations.


The dynamic configuration has the point symmetry D_4h.


Analysis of structural, dynamic, and magnetic symmetry:
=====================================================================
 Subroutine PRICEL returns:
 Original cell was already a primitive cell.
 

 Routine SETGRP: Setting up the symmetry group for a 
 body centered tetragonal supercell.


 Subroutine GETGRP returns: Found 16 space group operations
 (whereof 16 operations were pure point group operations)
 out of a pool of 16 trial point group operations.


The overall configuration has the point symmetry D_4h.


 Subroutine INISYM returns: Found 16 space group operations
 (whereof 16 operations are pure point group operations),
 and found     1 'primitive' translations


----------------------------------------------------------------------------------------

                                     Primitive cell                                     

  volume of cell :      92.5415

  direct lattice vectors                    reciprocal lattice vectors
     3.871055256  0.000000000  0.000000000     0.258327493 -0.000000000  0.080964088
     0.000000000  3.871055256  0.000000000    -0.000000000  0.258327493  0.080964088
    -1.935527628 -1.935527628  6.175577534     0.000000000  0.000000000  0.161928175

  length of vectors
     3.871055256  3.871055256  6.755019783     0.270718077  0.270718077  0.161928175

  position of ions in fractional coordinates (direct lattice)
     0.363473000  0.363473000  0.726946000
     0.636527000  0.636527000  0.273054000
     0.000000000  0.000000000  0.000000000
     0.178993000  0.178993000  0.357986000
     0.821007000  0.821007000  0.642014000
     0.500000000  0.000000000  0.000000000
     0.000000000  0.500000000  0.000000000

  ion indices of the primitive-cell ions
   primitive index   ion index
                 1           1
                 2           2
                 3           3
                 4           4
                 5           5
                 6           6
                 7           7

----------------------------------------------------------------------------------------



 KPOINTS: # Generated by Masgent for EOS calculati

Automatic generation of k-mesh.
 Grid dimensions read from file:
 generate k-points for:    7    7    4

 Generating k-lattice:

  Cartesian coordinates                     Fractional coordinates (reciprocal lattice)
     0.036903928 -0.000000000  0.011566298     0.142857143  0.000000000  0.000000000
    -0.000000000  0.036903928  0.011566298     0.000000000  0.142857143  0.000000000
     0.000000000  0.000000000  0.040482044     0.000000000  0.000000000  0.250000000

  Length of vectors
     0.038674011  0.038674011  0.040482044

  Shift w.r.t. Gamma in fractional coordinates (k-lattice)
     0.000000000  0.000000000  0.000000000

 -----------------------------------------------------------------------------
|                                                                             |
|           W    W    AA    RRRRR   N    N  II  N    N   GGGG   !!!           |
|           W    W   A  A   R    R  NN   N  II  NN   N  G    G  !!!           |
|           W    W  A    A  R    R  N N  N  II  N N  N  G       !!!           |
|           W WW W  AAAAAA  RRRRR   N  N N  II  N  N N  G  GGG   !            |
|           WW  WW  A    A  R   R   N   NN  II  N   NN  G    G                |
|           W    W  A    A  R    R  N    N  II  N    N   GGGG   !!!           |
|                                                                             |
|     Your reciprocal lattice and k-lattice belong to different lattice       |
|     classes:                                                                |
|                                                                             |
|        The reciprocal lattice is body-centered tetragonal,                  |
|        whereas your k-lattice is base-centered monoclinic.                  |
|                                                                             |
|     Results are often still useful ...                                      |
|                                                                             |
 -----------------------------------------------------------------------------

 WARNING: IBZKPT: internal override: KBLOWUP is changed to .FALSE.
      ... skipping the blow-up phase ...

 TETIRR: Found    294 inequivalent tetrahedra from     1176
 
 Subroutine IBZKPT returns following result:
 ===========================================
 
 Found     60 irreducible k-points:
 
 Following reciprocal coordinates:
            Coordinates               Weight
  0.000000  0.000000  0.000000      1.000000
  0.142857  0.000000  0.000000      4.000000
  0.285714  0.000000  0.000000      4.000000
  0.428571  0.000000  0.000000      4.000000
  0.142857  0.142857  0.000000      2.000000
  0.285714  0.142857  0.000000      4.000000
  0.428571  0.142857  0.000000      4.000000
 -0.428571  0.142857  0.000000      4.000000
 -0.285714  0.142857  0.000000      4.000000
 -0.142857  0.142857  0.000000      2.000000
  0.285714  0.285714  0.000000      2.000000
  0.428571  0.285714  0.000000      4.000000
 -0.428571  0.285714  0.000000      4.000000
 -0.285714  0.285714  0.000000      2.000000
  0.428571  0.428571  0.000000      2.000000
 -0.428571  0.428571  0.000000      2.000000
  0.000000  0.000000  0.250000      2.000000
  0.142857  0.000000  0.250000      4.000000
  0.285714  0.000000  0.250000      4.000000
  0.428571  0.000000  0.250000      4.000000
 -0.428571  0.000000  0.250000      4.000000
 -0.285714  0.000000  0.250000      4.000000
 -0.142857  0.000000  0.250000      4.000000
  0.142857  0.142857  0.250000      2.000000
  0.285714  0.142857  0.250000      4.000000
  0.428571  0.142857  0.250000      4.000000
 -0.428571  0.142857  0.250000      4.000000
 -0.285714  0.142857  0.250000      4.000000
 -0.142857  0.142857  0.250000      4.000000
  0.285714  0.285714  0.250000      2.000000
  0.428571  0.285714  0.250000      4.000000
 -0.428571  0.285714  0.250000      4.000000
 -0.285714  0.285714  0.250000      4.000000
 -0.142857  0.285714  0.250000      4.000000
  0.428571  0.428571  0.250000      2.000000
 -0.428571  0.428571  0.250000      4.000000
 -0.285714  0.428571  0.250000      4.000000
 -0.142857  0.428571  0.250000      4.000000
 -0.428571 -0.428571  0.250000      2.000000
 -0.285714 -0.428571  0.250000      4.000000
 -0.142857 -0.428571  0.250000      4.000000
 -0.285714 -0.285714  0.250000      2.000000
 -0.142857 -0.285714  0.250000      4.000000
 -0.142857 -0.142857  0.250000      2.000000
  0.000000  0.000000  0.500000      1.000000
  0.142857  0.000000  0.500000      4.000000
  0.285714  0.000000  0.500000      4.000000
  0.428571  0.000000  0.500000      4.000000
  0.142857  0.142857  0.500000      2.000000
  0.285714  0.142857  0.500000      4.000000
  0.428571  0.142857  0.500000      4.000000
 -0.428571  0.142857  0.500000      4.000000
 -0.285714  0.142857  0.500000      4.000000
 -0.142857  0.142857  0.500000      2.000000
  0.285714  0.285714  0.500000      2.000000
  0.428571  0.285714  0.500000      4.000000
 -0.428571  0.285714  0.500000      4.000000
 -0.285714  0.285714  0.500000      2.000000
  0.428571  0.428571  0.500000      2.000000
 -0.428571  0.428571  0.500000      2.000000
 
 Following cartesian coordinates:
            Coordinates               Weight
  0.000000  0.000000  0.000000      1.000000
  0.036904  0.000000  0.011566      4.000000
  0.073808  0.000000  0.023133      4.000000
  0.110712  0.000000  0.034699      4.000000
  0.036904  0.036904  0.023133      2.000000
  0.073808  0.036904  0.034699      4.000000
  0.110712  0.036904  0.046265      4.000000
 -0.110712  0.036904 -0.023133      4.000000
 -0.073808  0.036904 -0.011566      4.000000
 -0.036904  0.036904  0.000000      2.000000
  0.073808  0.073808  0.046265      2.000000
  0.110712  0.073808  0.057831      4.000000
 -0.110712  0.073808 -0.011566      4.000000
 -0.073808  0.073808  0.000000      2.000000
  0.110712  0.110712  0.069398      2.000000
 -0.110712  0.110712  0.000000      2.000000
  0.000000  0.000000  0.040482      2.000000
  0.036904  0.000000  0.052048      4.000000
  0.073808  0.000000  0.063615      4.000000
  0.110712  0.000000  0.075181      4.000000
 -0.110712  0.000000  0.005783      4.000000
 -0.073808  0.000000  0.017349      4.000000
 -0.036904  0.000000  0.028916      4.000000
  0.036904  0.036904  0.063615      2.000000
  0.073808  0.036904  0.075181      4.000000
  0.110712  0.036904  0.086747      4.000000
 -0.110712  0.036904  0.017349      4.000000
 -0.073808  0.036904  0.028916      4.000000
 -0.036904  0.036904  0.040482      4.000000
  0.073808  0.073808  0.086747      2.000000
  0.110712  0.073808  0.098314      4.000000
 -0.110712  0.073808  0.028916      4.000000
 -0.073808  0.073808  0.040482      4.000000
 -0.036904  0.073808  0.052048      4.000000
  0.110712  0.110712  0.109880      2.000000
 -0.110712  0.110712  0.040482      4.000000
 -0.073808  0.110712  0.052048      4.000000
 -0.036904  0.110712  0.063615      4.000000
 -0.110712 -0.110712 -0.028916      2.000000
 -0.073808 -0.110712 -0.017349      4.000000
 -0.036904 -0.110712 -0.005783      4.000000
 -0.073808 -0.073808 -0.005783      2.000000
 -0.036904 -0.073808  0.005783      4.000000
 -0.036904 -0.036904  0.017349      2.000000
  0.000000  0.000000  0.080964      1.000000
  0.036904  0.000000  0.092530      4.000000
  0.073808  0.000000  0.104097      4.000000
  0.110712  0.000000  0.115663      4.000000
  0.036904  0.036904  0.104097      2.000000
  0.073808  0.036904  0.115663      4.000000
  0.110712  0.036904  0.127229      4.000000
 -0.110712  0.036904  0.057831      4.000000
 -0.073808  0.036904  0.069398      4.000000
 -0.036904  0.036904  0.080964      2.000000
  0.073808  0.073808  0.127229      2.000000
  0.110712  0.073808  0.138796      4.000000
 -0.110712  0.073808  0.069398      4.000000
 -0.073808  0.073808  0.080964      2.000000
  0.110712  0.110712  0.150362      2.000000
 -0.110712  0.110712  0.080964      2.000000
 


--------------------------------------------------------------------------------------------------------




 Dimension of arrays:
   k-points           NKPTS =     60   k-points in BZ     NKDIM =     60   number of bands    NBANDS=     48
   number of dos      NEDOS =    301   number of ions     NIONS =      7
   non local maximal  LDIM  =      8   non local SUM 2l+1 LMDIM =     32
   total plane-waves  NPLWV =  45000
   max r-space proj   IRMAX =      1   max aug-charges    IRDMAX=  25606
   dimension x,y,z NGX =    30 NGY =   30 NGZ =   50
   dimension x,y,z NGXF=    60 NGYF=   60 NGZF=  100
   support grid    NGXF=    60 NGYF=   60 NGZF=  100
   ions per type =               2   1   4
   NGX,Y,Z   is equivalent  to a cutoff of  12.88, 12.88, 12.31 a.u.
   NGXF,Y,Z  is equivalent  to a cutoff of  25.77, 25.77, 24.61 a.u.

 SYSTEM =  unknown system                          
 POSCAR =  # Generated by Masgent for EOS calculati

 Startparameter for this run:
   NWRITE =      2    write-flag & timer
   PREC   = accura    normal or accurate (medium, high low for compatibility)
   ISTART =      0    job   : 0-new  1-cont  2-samecut
   ICHARG =      2    charge: 1-file 2-atom 10-const
   ISPIN  =      2    spin polarized calculation?
   LNONCOLLINEAR =      F non collinear calculations
   LSORBIT =      F    spin-orbit coupling
   INIWAV =      1    electr: 0-lowe 1-rand  2-diag
   LASPH  =      T    aspherical Exc in radial PAW
 Electronic Relaxation 1
   ENCUT  =  520.0 eV  38.22 Ry    6.18 a.u.   7.20  7.20 12.56*2*pi/ulx,y,z
   ENINI  =  520.0     initial cutoff
   ENAUG  =  703.4 eV  augmentation charge cutoff
   NELM   =    100;   NELMIN=  2; NELMDL= -5     # of ELM steps 
   EDIFF  = 0.3E-03   stopping-criterion for ELM
   LREAL  =      F    real-space projection
   NLSPLINE    = F    spline interpolate recip. space projectors
   LCOMPAT=      F    compatible to vasp.4.4
   GGA_COMPAT  = T    GGA compatible to vasp.4.4-vasp.4.6
   LMAXPAW     = -100 max onsite density
   LMAXMIX     =    6 max onsite mixed and CHGCAR
   VOSKOWN=      0    Vosko Wilk Nusair interpolation
   ROPT   =    0.00000   0.00000   0.00000
 Ionic relaxation
   EDIFFG = 0.4E-02   stopping-criterion for IOM
   NSW    =      0    number of steps for IOM
   NBLOCK =      1;   KBLOCK =      1    inner block; outer block 
   IBRION =     -1    ionic relax: 0-MD 1-quasi-New 2-CG
   NFREE  =      0    steps in history (QN), initial steepest desc. (CG)
   ISIF   =      2    stress and relaxation
   IWAVPR =     10    prediction:  0-non 1-charg 2-wave 3-comb
   ISYM   =      2    0-nonsym 1-usesym 2-fastsym
   LCORR  =      T    Harris-Foulkes like correction to forces

   POTIM  = 0.5000    time-step for ionic-motion
   TEIN   =    0.0    initial temperature
   TEBEG  =    0.0;   TEEND  =   0.0 temperature during run
   SMASS  =  -3.00    Nose mass-parameter (am)
   estimated Nose-frequenzy (Omega)   =  0.10E-29 period in steps = 0.13E+47 mass=  -0.342E-27a.u.
   SCALEE = 1.0000    scale energy and forces
   NPACO  =    256;   APACO  = 16.0  distance and # of slots for P.C.
   PSTRESS=    0.0 pullay stress

  Mass of Ions in am
   POMASS = 138.90 58.69 16.00
  Ionic Valenz
   ZVAL   =  11.00 16.00  6.00
  Atomic Wigner-Seitz radii
   RWIGS  =  -1.00 -1.00 -1.00
  virtual crystal weights 
   VCA    =   1.00  1.00  1.00
   NELECT =      62.0000    total number of electrons
   NUPDOWN=      -1.0000    fix difference up-down

 DOS related values:
   EMIN   =  10.00;   EMAX   =-10.00  energy-range for DOS
   EFERMI =   0.00
   ISMEAR =    -5;   SIGMA  =   0.05  broadening in eV -4-tet -1-fermi 0-gaus

 Electronic relaxation 2 (details)
   IALGO  =     68    algorithm
   LDIAG  =      T    sub-space diagonalisation (order eigenvalues)
   LSUBROT=      F    optimize rotation matrix (better conditioning)
   TURBO    =      0    0=normal 1=particle mesh
   IRESTART =      0    0=no restart 2=restart with 2 vectors
   NREBOOT  =      0    no. of reboots
   NMIN     =      0    reboot dimension
   EREF     =   0.00    reference energy to select bands
   IMIX   =      4    mixing-type and parameters
     AMIX     =   0.40;   BMIX     =  1.00
     AMIX_MAG =   1.60;   BMIX_MAG =  1.00
     AMIN     =   0.10
     WC   =   100.;   INIMIX=   1;  MIXPRE=   1;  MAXMIX= -45

 Intra band minimization:
   WEIMIN = 0.0000     energy-eigenvalue tresh-hold
   EBREAK =  0.18E-05  absolut break condition
   DEPER  =   0.30     relativ break condition  

   TIME   =   0.40     timestep for ELM

  volume/ion in A,a.u.               =      13.22        89.21
  Fermi-wavevector in a.u.,A,eV,Ry     =   1.432496  2.707024 27.919748  2.052044
  Thomas-Fermi vector in A             =   2.552117

 Write flags
   LWAVE        =      F    write WAVECAR
   LDOWNSAMPLE  =      F    k-point downsampling of WAVECAR
   LCHARG       =      T    write CHGCAR
   LVTOT        =      F    write LOCPOT, total local potential
   LVHAR        =      F    write LOCPOT, Hartree potential only
   LELF         =      F    write electronic localiz. function (ELF)
   LORBIT       =     11    0 simple, 1 ext, 2 COOP (PROOUT), +10 PAW based schemes


 Dipole corrections
   LMONO  =      F    monopole corrections only (constant potential shift)
   LDIPOL =      F    correct potential (dipole corrections)
   IDIPOL =      0    1-x, 2-y, 3-z, 4-all directions 
   EPSILON=  1.0000000 bulk dielectric constant

 LDA+U is selected, type is set to LDAUTYPE =  2
   angular momentum for each species LDAUL =     0    2    0
   U (eV)           for each species LDAUU =   0.0  6.2  0.0
   J (eV)           for each species LDAUJ =   0.0  0.0  0.0
 Exchange correlation treatment:
   GGA     =    --    GGA type
   LEXCH   =     8    internal setting for exchange type
   VOSKOWN=      0    Vosko Wilk Nusair interpolation
   LHFCALC =     F    Hartree Fock is set to
   LHFONE  =     F    Hartree Fock one center treatment
   AEXX    =    0.0000 exact exchange contribution

 Linear response parameters
   LEPSILON=     F    determine dielectric tensor
   LRPA    =     F    only Hartree local field effects (RPA)
   LNABLA  =     F    use nabla operator in PAW spheres
   LVEL    =     F    velocity operator in full k-point grid
   LINTERFAST=   F  fast interpolation
   KINTER  =     0    interpolate to denser k-point grid
   CSHIFT  =0.1000    complex shift for real part using Kramers Kronig
   OMEGAMAX=  -1.0    maximum frequency
   DEG_THRESHOLD= 0.2000000E-02 threshold for treating states as degnerate
   RTIME   =   -0.100 relaxation time in fs
  (WPLASMAI=    0.000 imaginary part of plasma frequency in eV, 0.658/RTIME)
   DFIELD  = 0.0000000 0.0000000 0.0000000 field for delta impulse in time

 Orbital magnetization related:
   ORBITALMAG=     F  switch on orbital magnetization
   LCHIMAG   =     F  perturbation theory with respect to B field
   DQ        =  0.001000  dq finite difference perturbation B field
   LLRAUG    =     F  two centre corrections for induced B field



--------------------------------------------------------------------------------------------------------


 Static calculation
 charge density and potential will be updated during run
 spin polarized calculation
 RMM-DIIS sequential band-by-band and
  variant of blocked Davidson during initial phase
 perform sub-space diagonalisation
    before iterative eigenvector-optimisation
 modified Broyden-mixing scheme, WC =      100.0
 initial mixing is a Kerker type mixing with AMIX =  0.4000 and BMIX =      1.0000
 Hartree-type preconditioning will be used
 using additional bands           17
 reciprocal scheme for non local part
 use partial core corrections
 calculate Harris-corrections to forces   (improved forces if not selfconsistent)
 use gradient corrections 
 use of overlap-Matrix (Vanderbilt PP)
 Fermi weights with tetrahedron method with Bloechl corrections


--------------------------------------------------------------------------------------------------------


  energy-cutoff  :      520.00
  volume of cell :       92.54
      direct lattice vectors                 reciprocal lattice vectors
     3.871055256  0.000000000  0.000000000     0.258327493 -0.000000000  0.080964088
     0.000000000  3.871055256  0.000000000    -0.000000000  0.258327493  0.080964088
    -1.935527628 -1.935527628  6.175577534     0.000000000  0.000000000  0.161928175

  length of vectors
     3.871055256  3.871055256  6.755019783     0.270718077  0.270718077  0.161928175



 k-points in units of 2pi/SCALE and weight: # Generated by Masgent for EOS calculati
   0.00000000  0.00000000  0.00000000       0.005
   0.03690393  0.00000000  0.01156630       0.020
   0.07380786  0.00000000  0.02313260       0.020
   0.11071178  0.00000000  0.03469889       0.020
   0.03690393  0.03690393  0.02313260       0.010
   0.07380786  0.03690393  0.03469889       0.020
   0.11071178  0.03690393  0.04626519       0.020
  -0.11071178  0.03690393 -0.02313260       0.020
  -0.07380786  0.03690393 -0.01156630       0.020
  -0.03690393  0.03690393  0.00000000       0.010
   0.07380786  0.07380786  0.04626519       0.010
   0.11071178  0.07380786  0.05783149       0.020
  -0.11071178  0.07380786 -0.01156630       0.020
  -0.07380786  0.07380786  0.00000000       0.010
   0.11071178  0.11071178  0.06939779       0.010
  -0.11071178  0.11071178  0.00000000       0.010
   0.00000000  0.00000000  0.04048204       0.010
   0.03690393  0.00000000  0.05204834       0.020
   0.07380786  0.00000000  0.06361464       0.020
   0.11071178  0.00000000  0.07518094       0.020
  -0.11071178  0.00000000  0.00578315       0.020
  -0.07380786  0.00000000  0.01734945       0.020
  -0.03690393  0.00000000  0.02891575       0.020
   0.03690393  0.03690393  0.06361464       0.010
   0.07380786  0.03690393  0.07518094       0.020
   0.11071178  0.03690393  0.08674724       0.020
  -0.11071178  0.03690393  0.01734945       0.020
  -0.07380786  0.03690393  0.02891575       0.020
  -0.03690393  0.03690393  0.04048204       0.020
   0.07380786  0.07380786  0.08674724       0.010
   0.11071178  0.07380786  0.09831353       0.020
  -0.11071178  0.07380786  0.02891575       0.020
  -0.07380786  0.07380786  0.04048204       0.020
  -0.03690393  0.07380786  0.05204834       0.020
   0.11071178  0.11071178  0.10987983       0.010
  -0.11071178  0.11071178  0.04048204       0.020
  -0.07380786  0.11071178  0.05204834       0.020
  -0.03690393  0.11071178  0.06361464       0.020
  -0.11071178 -0.11071178 -0.02891575       0.010
  -0.07380786 -0.11071178 -0.01734945       0.020
  -0.03690393 -0.11071178 -0.00578315       0.020
  -0.07380786 -0.07380786 -0.00578315       0.010
  -0.03690393 -0.07380786  0.00578315       0.020
  -0.03690393 -0.03690393  0.01734945       0.010
   0.00000000  0.00000000  0.08096409       0.005
   0.03690393  0.00000000  0.09253039       0.020
   0.07380786  0.00000000  0.10409668       0.020
   0.11071178  0.00000000  0.11566298       0.020
   0.03690393  0.03690393  0.10409668       0.010
   0.07380786  0.03690393  0.11566298       0.020
   0.11071178  0.03690393  0.12722928       0.020
  -0.11071178  0.03690393  0.05783149       0.020
  -0.07380786  0.03690393  0.06939779       0.020
  -0.03690393  0.03690393  0.08096409       0.010
   0.07380786  0.07380786  0.12722928       0.010
   0.11071178  0.07380786  0.13879558       0.020
  -0.11071178  0.07380786  0.06939779       0.020
  -0.07380786  0.07380786  0.08096409       0.010
   0.11071178  0.11071178  0.15036188       0.010
  -0.11071178  0.11071178  0.08096409       0.010

 k-points in reciprocal lattice and weights: # Generated by Masgent for EOS calculati
   0.00000000  0.00000000  0.00000000       0.005
   0.14285714  0.00000000  0.00000000       0.020
   0.28571429  0.00000000  0.00000000       0.020
   0.42857143  0.00000000  0.00000000       0.020
   0.14285714  0.14285714  0.00000000       0.010
   0.28571429  0.14285714  0.00000000       0.020
   0.42857143  0.14285714  0.00000000       0.020
  -0.42857143  0.14285714  0.00000000       0.020
  -0.28571429  0.14285714  0.00000000       0.020
  -0.14285714  0.14285714  0.00000000       0.010
   0.28571429  0.28571429  0.00000000       0.010
   0.42857143  0.28571429  0.00000000       0.020
  -0.42857143  0.28571429  0.00000000       0.020
  -0.28571429  0.28571429  0.00000000       0.010
   0.42857143  0.42857143  0.00000000       0.010
  -0.42857143  0.42857143  0.00000000       0.010
   0.00000000  0.00000000  0.25000000       0.010
   0.14285714  0.00000000  0.25000000       0.020
   0.28571429  0.00000000  0.25000000       0.020
   0.42857143  0.00000000  0.25000000       0.020
  -0.42857143  0.00000000  0.25000000       0.020
  -0.28571429  0.00000000  0.25000000       0.020
  -0.14285714  0.00000000  0.25000000       0.020
   0.14285714  0.14285714  0.25000000       0.010
   0.28571429  0.14285714  0.25000000       0.020
   0.42857143  0.14285714  0.25000000       0.020
  -0.42857143  0.14285714  0.25000000       0.020
  -0.28571429  0.14285714  0.25000000       0.020
  -0.14285714  0.14285714  0.25000000       0.020
   0.28571429  0.28571429  0.25000000       0.010
   0.42857143  0.28571429  0.25000000       0.020
  -0.42857143  0.28571429  0.25000000       0.020
  -0.28571429  0.28571429  0.25000000       0.020
  -0.14285714  0.28571429  0.25000000       0.020
   0.42857143  0.42857143  0.25000000       0.010
  -0.42857143  0.42857143  0.25000000       0.020
  -0.28571429  0.42857143  0.25000000       0.020
  -0.14285714  0.42857143  0.25000000       0.020
  -0.42857143 -0.42857143  0.25000000       0.010
  -0.28571429 -0.42857143  0.25000000       0.020
  -0.14285714 -0.42857143  0.25000000       0.020
  -0.28571429 -0.28571429  0.25000000       0.010
  -0.14285714 -0.28571429  0.25000000       0.020
  -0.14285714 -0.14285714  0.25000000       0.010
   0.00000000  0.00000000  0.50000000       0.005
   0.14285714  0.00000000  0.50000000       0.020
   0.28571429  0.00000000  0.50000000       0.020
   0.42857143  0.00000000  0.50000000       0.020
   0.14285714  0.14285714  0.50000000       0.010
   0.28571429  0.14285714  0.50000000       0.020
   0.42857143  0.14285714  0.50000000       0.020
  -0.42857143  0.14285714  0.50000000       0.020
  -0.28571429  0.14285714  0.50000000       0.020
  -0.14285714  0.14285714  0.50000000       0.010
   0.28571429  0.28571429  0.50000000       0.010
   0.42857143  0.28571429  0.50000000       0.020
  -0.42857143  0.28571429  0.50000000       0.020
  -0.28571429  0.28571429  0.50000000       0.010
   0.42857143  0.42857143  0.50000000       0.010
  -0.42857143  0.42857143  0.50000000       0.010

 position of ions in fractional coordinates (direct lattice) 
   0.36347300  0.36347300  0.72694600
   0.63652700  0.63652700  0.27305400
   0.00000000  0.00000000  0.00000000
   0.17899300  0.17899300  0.35798600
   0.82100700  0.82100700  0.64201400
   0.50000000  0.00000000  0.00000000
   0.00000000  0.50000000  0.00000000

 position of ions in cartesian coordinates  (Angst):
   0.00000000  0.00000000  4.48931139
   1.93552763  1.93552763  1.68626615
   0.00000000  0.00000000  0.00000000
   0.00000000  0.00000000  2.21077030
   1.93552763  1.93552763  3.96480723
   1.93552763  0.00000000  0.00000000
   0.00000000  1.93552763  0.00000000



--------------------------------------------------------------------------------------------------------


 k-point   1 :   0.0000 0.0000 0.0000  plane waves:    2479
 k-point   2 :   0.1429 0.0000 0.0000  plane waves:    2490
 k-point   3 :   0.2857 0.0000 0.0000  plane waves:    2501
 k-point   4 :   0.4286 0.0000 0.0000  plane waves:    2493
 k-point   5 :   0.1429 0.1429 0.0000  plane waves:    2493
 k-point   6 :   0.2857 0.1429 0.0000  plane waves:    2497
 k-point   7 :   0.4286 0.1429 0.0000  plane waves:    2499
 k-point   8 :  -0.4286 0.1429 0.0000  plane waves:    2500
 k-point   9 :  -0.2857 0.1429 0.0000  plane waves:    2493
 k-point  10 :  -0.1429 0.1429 0.0000  plane waves:    2484
 k-point  11 :   0.2857 0.2857 0.0000  plane waves:    2488
 k-point  12 :   0.4286 0.2857 0.0000  plane waves:    2489
 k-point  13 :  -0.4286 0.2857 0.0000  plane waves:    2494
 k-point  14 :  -0.2857 0.2857 0.0000  plane waves:    2494
 k-point  15 :   0.4286 0.4286 0.0000  plane waves:    2496
 k-point  16 :  -0.4286 0.4286 0.0000  plane waves:    2510
 k-point  17 :   0.0000 0.0000 0.2500  plane waves:    2475
 k-point  18 :   0.1429 0.0000 0.2500  plane waves:    2492
 k-point  19 :   0.2857 0.0000 0.2500  plane waves:    2481
 k-point  20 :   0.4286 0.0000 0.2500  plane waves:    2483
 k-point  21 :  -0.4286 0.0000 0.2500  plane waves:    2502
 k-point  22 :  -0.2857 0.0000 0.2500  plane waves:    2505
 k-point  23 :  -0.1429 0.0000 0.2500  plane waves:    2501
 k-point  24 :   0.1429 0.1429 0.2500  plane waves:    2479
 k-point  25 :   0.2857 0.1429 0.2500  plane waves:    2495
 k-point  26 :   0.4286 0.1429 0.2500  plane waves:    2488
 k-point  27 :  -0.4286 0.1429 0.2500  plane waves:    2499
 k-point  28 :  -0.2857 0.1429 0.2500  plane waves:    2492
 k-point  29 :  -0.1429 0.1429 0.2500  plane waves:    2492
 k-point  30 :   0.2857 0.2857 0.2500  plane waves:    2489
 k-point  31 :   0.4286 0.2857 0.2500  plane waves:    2490
 k-point  32 :  -0.4286 0.2857 0.2500  plane waves:    2488
 k-point  33 :  -0.2857 0.2857 0.2500  plane waves:    2493
 k-point  34 :  -0.1429 0.2857 0.2500  plane waves:    2487
 k-point  35 :   0.4286 0.4286 0.2500  plane waves:    2490
 k-point  36 :  -0.4286 0.4286 0.2500  plane waves:    2490
 k-point  37 :  -0.2857 0.4286 0.2500  plane waves:    2485
 k-point  38 :  -0.1429 0.4286 0.2500  plane waves:    2492
 k-point  39 :  -0.4286-0.4286 0.2500  plane waves:    2509
 k-point  40 :  -0.2857-0.4286 0.2500  plane waves:    2493
 k-point  41 :  -0.1429-0.4286 0.2500  plane waves:    2498
 k-point  42 :  -0.2857-0.2857 0.2500  plane waves:    2500
 k-point  43 :  -0.1429-0.2857 0.2500  plane waves:    2491
 k-point  44 :  -0.1429-0.1429 0.2500  plane waves:    2495
 k-point  45 :   0.0000 0.0000 0.5000  plane waves:    2470
 k-point  46 :   0.1429 0.0000 0.5000  plane waves:    2476
 k-point  47 :   0.2857 0.0000 0.5000  plane waves:    2484
 k-point  48 :   0.4286 0.0000 0.5000  plane waves:    2508
 k-point  49 :   0.1429 0.1429 0.5000  plane waves:    2489
 k-point  50 :   0.2857 0.1429 0.5000  plane waves:    2488
 k-point  51 :   0.4286 0.1429 0.5000  plane waves:    2497
 k-point  52 :  -0.4286 0.1429 0.5000  plane waves:    2493
 k-point  53 :  -0.2857 0.1429 0.5000  plane waves:    2490
 k-point  54 :  -0.1429 0.1429 0.5000  plane waves:    2472
 k-point  55 :   0.2857 0.2857 0.5000  plane waves:    2494
 k-point  56 :   0.4286 0.2857 0.5000  plane waves:    2496
 k-point  57 :  -0.4286 0.2857 0.5000  plane waves:    2491
 k-point  58 :  -0.2857 0.2857 0.5000  plane waves:    2484
 k-point  59 :   0.4286 0.4286 0.5000  plane waves:    2502
 k-point  60 :  -0.4286 0.4286 0.5000  plane waves:    2498

 maximum and minimum number of plane-waves per node :      2510     2470

 maximum number of plane-waves:      2510
 maximum index in each direction: 
   IXMAX=    7   IYMAX=    7   IZMAX=   12
   IXMIN=   -7   IYMIN=   -7   IZMIN=  -13


 serial   3D FFT for wavefunctions
 parallel 3D FFT for charge:
    minimum data exchange during FFTs selected (reduces bandwidth)


 total amount of memory used by VASP MPI-rank0   158631. kBytes
=======================================================================

   base      :      30000. kBytes
   nonl-proj :     117512. kBytes
   fftplans  :        569. kBytes
   grid      :       4702. kBytes
   one-center:        688. kBytes
   wavefun   :       5160. kBytes

     INWAV:  cpu time    0.0000: real time    0.0002
 Broyden mixing: mesh for mixing (old mesh)
   NGX = 15   NGY = 15   NGZ = 25
  (NGX  = 60   NGY  = 60   NGZ  =100)
  gives a total of   5625 points

 initial charge density was supplied:
 charge density of overlapping atoms calculated
 number of electron      62.0000000 magnetization       8.6000000
 keeping initial charge density in first step


--------------------------------------------------------------------------------------------------------


 Maximum index for augmentation-charges          716 (set IRDMAX)


--------------------------------------------------------------------------------------------------------


 First call to EWALD:  gamma=   0.392
 Maximum number of real-space cells 3x 3x 2
 Maximum number of reciprocal cells 2x 2x 4

    FEWALD:  cpu time    0.0007: real time    0.0007


--------------------------------------- Iteration      1(   1)  ---------------------------------------


    POTLOK:  cpu time    0.0251: real time    0.0258
    SETDIJ:  cpu time    0.6326: real time    0.6331
atom =   1  type =  1  l = 0

 onsite density matrix

spin component  1

  1.1588

spin component  2

  1.0390

 occupancies and eigenvectors

  o =  1.0390  v =  0.0000  1.0000      0.0000  0.0000
  o =  1.1588  v =  1.0000  0.0000      0.0000  0.0000

atom =   2  type =  1  l = 0

 onsite density matrix

spin component  1

  1.1588

spin component  2

  1.0390

 occupancies and eigenvectors

  o =  1.0390  v =  0.0000  1.0000      0.0000  0.0000
  o =  1.1588  v =  1.0000  0.0000      0.0000  0.0000

atom =   3  type =  2  l = 2

 onsite density matrix

spin component  1

  1.0776  0.0000  0.0000  0.0000  0.0000
  0.0000  1.0776  0.0000  0.0000  0.0000
  0.0000  0.0000  1.0776  0.0000  0.0000
  0.0000  0.0000  0.0000  1.0776  0.0000
  0.0000  0.0000  0.0000  0.0000  1.0776

spin component  2

  0.5645  0.0000  0.0000  0.0000  0.0000
  0.0000  0.5645  0.0000  0.0000  0.0000
  0.0000  0.0000  0.5645  0.0000  0.0000
  0.0000  0.0000  0.0000  0.5645  0.0000
  0.0000  0.0000  0.0000  0.0000  0.5645

 occupancies and eigenvectors

  o =  0.5645  v =  0.0000  0.0000  0.0000  0.0000  0.0000  0.0000  0.0000  1.0000  0.0000  0.0000      0.0000  0.0000  0.0000  0.0000  0.0000  0.0000  0.0000  0.0000  0.0000  0.0000
  o =  0.5645  v =  0.0000  0.0000  0.0000  0.0000  0.0000  1.0000  0.0000  0.0000  0.0000  0.0000      0.0000  0.0000  0.0000  0.0000  0.0000  0.0000  0.0000  0.0000  0.0000  0.0000
  o =  0.5645  v =  0.0000  0.0000  0.0000  0.0000  0.0000  0.0000  0.0000  0.0000  0.0000  1.0000      0.0000  0.0000  0.0000  0.0000  0.0000  0.0000  0.0000  0.0000  0.0000  0.0000
  o =  0.5645  v =  0.0000  0.0000  0.0000  0.0000  0.0000  0.0000  1.0000  0.0000  0.0000  0.0000      0.0000  0.0000  0.0000  0.0000  0.0000  0.0000  0.0000  0.0000  0.0000  0.0000
  o =  0.5645  v =  0.0000  0.0000  0.0000  0.0000  0.0000  0.0000  0.0000  0.0000  1.0000  0.0000      0.0000  0.0000  0.0000  0.0000  0.0000  0.0000  0.0000  0.0000  0.0000  0.0000
  o =  1.0776  v =  0.0000  0.0000  1.0000  0.0000  0.0000  0.0000  0.0000  0.0000  0.0000  0.0000      0.0000  0.0000  0.0000  0.0000  0.0000  0.0000  0.0000  0.0000  0.0000  0.0000
  o =  1.0776  v =  0.0000  0.0000  0.0000  1.0000  0.0000  0.0000  0.0000  0.0000  0.0000  0.0000      0.0000  0.0000  0.0000  0.0000  0.0000  0.0000  0.0000  0.0000  0.0000  0.0000
  o =  1.0776  v =  1.0000  0.0000  0.0000  0.0000  0.0000  0.0000  0.0000  0.0000  0.0000  0.0000      0.0000  0.0000  0.0000  0.0000  0.0000  0.0000  0.0000  0.0000  0.0000  0.0000
  o =  1.0776  v =  0.0000  0.0000  0.0000  0.0000  1.0000  0.0000  0.0000  0.0000  0.0000  0.0000      0.0000  0.0000  0.0000  0.0000  0.0000  0.0000  0.0000  0.0000  0.0000  0.0000
  o =  1.0776  v =  0.0000  1.0000  0.0000  0.0000  0.0000  0.0000  0.0000  0.0000  0.0000  0.0000      0.0000  0.0000  0.0000  0.0000  0.0000  0.0000  0.0000  0.0000  0.0000  0.0000

atom =   4  type =  3  l = 0

 onsite density matrix

spin component  1

  0.9009

spin component  2

  0.7371

 occupancies and eigenvectors

  o =  0.7371  v =  0.0000  1.0000      0.0000  0.0000
  o =  0.9009  v =  1.0000  0.0000      0.0000  0.0000

atom =   5  type =  3  l = 0

 onsite density matrix

spin component  1

  0.9009

spin component  2

  0.7371

 occupancies and eigenvectors

  o =  0.7371  v =  0.0000  1.0000      0.0000  0.0000
  o =  0.9009  v =  1.0000  0.0000      0.0000  0.0000

atom =   6  type =  3  l = 0

 onsite density matrix

spin component  1

  0.9009

spin component  2

  0.7371

 occupancies and eigenvectors

  o =  0.7371  v =  0.0000  1.0000      0.0000  0.0000
  o =  0.9009  v =  1.0000  0.0000      0.0000  0.0000

atom =   7  type =  3  l = 0

 onsite density matrix

spin component  1

  0.9009

spin component  2

  0.7371

 occupancies and eigenvectors

  o =  0.7371  v =  0.0000  1.0000      0.0000  0.0000
  o =  0.9009  v =  1.0000  0.0000      0.0000  0.0000

     EDDAV:  cpu time    4.9594: real time    4.9606
 BZINTS: Fermi energy:   13.918752;   62.000000 electrons
         Band energy:-0.345338E+02;  BLOECHL correction:   -0.027971
       DOS:  cpu time    0.0560: real time    0.0563
    --------------------------------------------
      LOOP:  cpu time    5.6732: real time    5.6758

 eigenvalue-minimisations  : 11520
 total energy-change (2. order) : 0.3550091E+03  (-0.3383198E+04)
 number of electron      62.0000000 magnetization       8.6000000
 augmentation part       62.0000000 magnetization       8.6000000

 Free energy of the ion-electron system (eV)
  ---------------------------------------------------
  alpha Z        PSCENC =       295.27363897
  Ewald energy   TEWEN  =     -4756.68161707
  -Hartree energ DENC   =     -2254.79458724
  -exchange      EXHF   =         0.00000000
  -V(xc)+E(xc)   XCENC  =       265.64703749
  PAW double counting   =      5585.27909985    -5707.62878593
  entropy T*S    EENTRO =         0.00000000
  eigenvalues    EBANDS =       -34.53382657
  atomic energy  EATOM  =      6962.44817098
  Solvation  Ediel_sol  =         0.00000000
  ---------------------------------------------------
  free energy    TOTEN  =       355.00913048 eV

  energy without entropy =      355.00913048  energy(sigma->0) =      355.00913048


--------------------------------------------------------------------------------------------------------




--------------------------------------- Iteration      1(   2)  ---------------------------------------


     EDDAV:  cpu time   17.3157: real time   17.3164
 BZINTS: Fermi energy:   11.413077;   62.000000 electrons
         Band energy:-0.437686E+03;  BLOECHL correction:   -0.054107
       DOS:  cpu time    0.0518: real time    0.0520
    --------------------------------------------
      LOOP:  cpu time   17.3675: real time   17.3684

 eigenvalue-minimisations  : 16896
 total energy-change (2. order) :-0.4031526E+03  (-0.4028239E+03)
 number of electron      62.0000000 magnetization       8.6000000
 augmentation part       62.0000000 magnetization       8.6000000

 Free energy of the ion-electron system (eV)
  ---------------------------------------------------
  alpha Z        PSCENC =       295.27363897
  Ewald energy   TEWEN  =     -4756.68161707
  -Hartree energ DENC   =     -2254.79458724
  -exchange      EXHF   =         0.00000000
  -V(xc)+E(xc)   XCENC  =       265.64703749
  PAW double counting   =      5585.27909985    -5707.62878593
  entropy T*S    EENTRO =         0.00000000
  eigenvalues    EBANDS =      -437.68640095
  atomic energy  EATOM  =      6962.44817098
  Solvation  Ediel_sol  =         0.00000000
  ---------------------------------------------------
  free energy    TOTEN  =       -48.14344390 eV

  energy without entropy =      -48.14344390  energy(sigma->0) =      -48.14344390


--------------------------------------------------------------------------------------------------------




--------------------------------------- Iteration      1(   3)  ---------------------------------------


     EDDAV:  cpu time    6.7760: real time    6.7790
 BZINTS: Fermi energy:   11.295057;   62.000000 electrons
         Band energy:-0.446380E+03;  BLOECHL correction:   -0.034253
       DOS:  cpu time    0.0574: real time    0.0575
    --------------------------------------------
      LOOP:  cpu time    6.8333: real time    6.8365

 eigenvalue-minimisations  : 11904
 total energy-change (2. order) :-0.8693759E+01  (-0.8677133E+01)
 number of electron      62.0000000 magnetization       8.6000000
 augmentation part       62.0000000 magnetization       8.6000000

 Free energy of the ion-electron system (eV)
  ---------------------------------------------------
  alpha Z        PSCENC =       295.27363897
  Ewald energy   TEWEN  =     -4756.68161707
  -Hartree energ DENC   =     -2254.79458724
  -exchange      EXHF   =         0.00000000
  -V(xc)+E(xc)   XCENC  =       265.64703749
  PAW double counting   =      5585.27909985    -5707.62878593
  entropy T*S    EENTRO =         0.00000000
  eigenvalues    EBANDS =      -446.38016033
  atomic energy  EATOM  =      6962.44817098
  Solvation  Ediel_sol  =         0.00000000
  ---------------------------------------------------
  free energy    TOTEN  =       -56.83720328 eV

  energy without entropy =      -56.83720328  energy(sigma->0) =      -56.83720328


--------------------------------------------------------------------------------------------------------




--------------------------------------- Iteration      1(   4)  ---------------------------------------


     EDDAV:  cpu time   15.7373: real time   15.7399
 BZINTS: Fermi energy:   11.279533;   62.000000 electrons
         Band energy:-0.446696E+03;  BLOECHL correction:   -0.032825
       DOS:  cpu time    0.0544: real time    0.0546
    --------------------------------------------
      LOOP:  cpu time   15.7918: real time   15.7945

 eigenvalue-minimisations  : 22416
 total energy-change (2. order) :-0.3158524E+00  (-0.3150455E+00)
 number of electron      62.0000000 magnetization       8.6000000
 augmentation part       62.0000000 magnetization       8.6000000

 Free energy of the ion-electron system (eV)
  ---------------------------------------------------
  alpha Z        PSCENC =       295.27363897
  Ewald energy   TEWEN  =     -4756.68161707
  -Hartree energ DENC   =     -2254.79458724
  -exchange      EXHF   =         0.00000000
  -V(xc)+E(xc)   XCENC  =       265.64703749
  PAW double counting   =      5585.27909985    -5707.62878593
  entropy T*S    EENTRO =         0.00000000
  eigenvalues    EBANDS =      -446.69601274
  atomic energy  EATOM  =      6962.44817098
  Solvation  Ediel_sol  =         0.00000000
  ---------------------------------------------------
  free energy    TOTEN  =       -57.15305569 eV

  energy without entropy =      -57.15305569  energy(sigma->0) =      -57.15305569


--------------------------------------------------------------------------------------------------------




--------------------------------------- Iteration      1(   5)  ---------------------------------------


     EDDAV:  cpu time    5.3807: real time    5.3809
 BZINTS: Fermi energy:   11.279378;   62.000000 electrons
         Band energy:-0.446698E+03;  BLOECHL correction:   -0.032803
       DOS:  cpu time    0.0572: real time    0.0574
    CHARGE:  cpu time    0.0814: real time    0.0820
    MIXING:  cpu time    0.0007: real time    0.0010
    --------------------------------------------
      LOOP:  cpu time    5.5200: real time    5.5214

 eigenvalue-minimisations  : 12000
 total energy-change (2. order) :-0.1754393E-02  (-0.1757460E-02)
 number of electron      61.9999962 magnetization       5.8355397
 augmentation part        8.0334684 magnetization       4.0202868

 Broyden mixing:
  rms(total) = 0.36141E+01    rms(broyden)= 0.36138E+01
  rms(prec ) = 0.61167E+01
  weight for this iteration     100.00

 Free energy of the ion-electron system (eV)
  ---------------------------------------------------
  alpha Z        PSCENC =       295.27363897
  Ewald energy   TEWEN  =     -4756.68161707
  -Hartree energ DENC   =     -2254.79458724
  -exchange      EXHF   =         0.00000000
  -V(xc)+E(xc)   XCENC  =       265.64703749
  PAW double counting   =      5585.27909985    -5707.62878593
  entropy T*S    EENTRO =         0.00000000
  eigenvalues    EBANDS =      -446.69776714
  atomic energy  EATOM  =      6962.44817098
  Solvation  Ediel_sol  =         0.00000000
  ---------------------------------------------------
  free energy    TOTEN  =       -57.15481009 eV

  energy without entropy =      -57.15481009  energy(sigma->0) =      -57.15481009


--------------------------------------------------------------------------------------------------------




--------------------------------------- Iteration      1(   6)  ---------------------------------------


    POTLOK:  cpu time    0.0201: real time    0.0203
    SETDIJ:  cpu time    0.6335: real time    0.6335
atom =   1  type =  1  l = 0

 onsite density matrix

spin component  1

  1.0260

spin component  2

  1.0992

 occupancies and eigenvectors

  o =  1.0260  v =  1.0000  0.0000      0.0000  0.0000
  o =  1.0992  v =  0.0000  1.0000      0.0000  0.0000

atom =   2  type =  1  l = 0

 onsite density matrix

spin component  1

  1.0260

spin component  2

  1.0992

 occupancies and eigenvectors

  o =  1.0260  v =  1.0000  0.0000      0.0000  0.0000
  o =  1.0992  v =  0.0000  1.0000      0.0000  0.0000

atom =   3  type =  2  l = 2

 onsite density matrix

spin component  1

  1.2059  0.0000  0.0000  0.0000 -0.0000
  0.0000  1.2102  0.0000  0.0000 -0.0000
  0.0000  0.0000  1.2767  0.0000  0.0000
  0.0000  0.0000  0.0000  1.2102  0.0000
 -0.0000 -0.0000  0.0000  0.0000  1.2850

spin component  2

  0.2111 -0.0000  0.0000 -0.0000  0.0000
 -0.0000  0.1990 -0.0000 -0.0000  0.0000
  0.0000 -0.0000  0.1232 -0.0000  0.0000
 -0.0000 -0.0000 -0.0000  0.1990 -0.0000
  0.0000  0.0000  0.0000 -0.0000  0.1409

 occupancies and eigenvectors

  o =  0.1232  v =  0.0000  0.0000  0.0000  0.0000  0.0000  0.0000  0.0000  1.0000  0.0000 -0.0000      0.0000  0.0000  0.0000  0.0000  0.0000  0.0000  0.0000  0.0000  0.0000  0.0000
  o =  0.1409  v = -0.0000 -0.0000 -0.0000 -0.0000 -0.0000  0.0000  0.0000 -0.0000 -0.0000 -1.0000      0.0000  0.0000  0.0000  0.0000  0.0000  0.0000  0.0000 -0.0000  0.0000  0.0000
  o =  0.1990  v =  0.0000  0.0000  0.0000  0.0000  0.0000  0.0000  0.9108 -0.0000  0.4129  0.0000      0.0000  0.0000  0.0000  0.0000  0.0000  0.0000  0.0000  0.0000  0.0000  0.0000
  o =  0.1990  v =  0.0000  0.0000  0.0000  0.0000  0.0000 -0.0000  0.4129  0.0000 -0.9108  0.0000      0.0000  0.0000  0.0000  0.0000  0.0000  0.0000  0.0000  0.0000  0.0000  0.0000
  o =  0.2111  v =  0.0000  0.0000  0.0000  0.0000  0.0000  1.0000 -0.0000  0.0000 -0.0000  0.0000      0.0000  0.0000  0.0000  0.0000  0.0000  0.0000  0.0000  0.0000  0.0000  0.0000
  o =  1.2059  v =  1.0000 -0.0000  0.0000 -0.0000  0.0000  0.0000  0.0000  0.0000  0.0000  0.0000      0.0000  0.0000  0.0000  0.0000  0.0000  0.0000  0.0000  0.0000  0.0000  0.0000
  o =  1.2102  v = -0.0000 -0.9025  0.0000  0.4306 -0.0000  0.0000  0.0000  0.0000  0.0000  0.0000      0.0000  0.0000  0.0000  0.0000  0.0000  0.0000  0.0000  0.0000  0.0000  0.0000
  o =  1.2102  v = -0.0000 -0.4306  0.0000 -0.9025  0.0000 -0.0000 -0.0000 -0.0000 -0.0000 -0.0000      0.0000  0.0000  0.0000  0.0000  0.0000  0.0000  0.0000  0.0000  0.0000  0.0000
  o =  1.2767  v = -0.0000 -0.0000 -1.0000 -0.0000  0.0000  0.0000  0.0000  0.0000  0.0000  0.0000      0.0000  0.0000  0.0000  0.0000  0.0000  0.0000  0.0000  0.0000  0.0000  0.0000
  o =  1.2850  v =  0.0000  0.0000 -0.0000 -0.0000 -1.0000 -0.0000 -0.0000 -0.0000 -0.0000 -0.0000      0.0000  0.0000  0.0000  0.0000  0.0000  0.0000  0.0000  0.0000  0.0000  0.0000

atom =   4  type =  3  l = 0

 onsite density matrix

spin component  1

  0.7735

spin component  2

  0.8591

 occupancies and eigenvectors

  o =  0.7735  v =  1.0000  0.0000      0.0000  0.0000
  o =  0.8591  v =  0.0000  1.0000      0.0000  0.0000

atom =   5  type =  3  l = 0

 onsite density matrix

spin component  1

  0.7735

spin component  2

  0.8591

 occupancies and eigenvectors

  o =  0.7735  v =  1.0000  0.0000      0.0000  0.0000
  o =  0.8591  v =  0.0000  1.0000      0.0000  0.0000

atom =   6  type =  3  l = 0

 onsite density matrix

spin component  1

  0.7744

spin component  2

  0.8554

 occupancies and eigenvectors

  o =  0.7744  v =  1.0000  0.0000      0.0000  0.0000
  o =  0.8554  v =  0.0000  1.0000      0.0000  0.0000

atom =   7  type =  3  l = 0

 onsite density matrix

spin component  1

  0.7744

spin component  2

  0.8554

 occupancies and eigenvectors

  o =  0.7744  v =  1.0000  0.0000      0.0000  0.0000
  o =  0.8554  v =  0.0000  1.0000      0.0000  0.0000

    EDDIAG:  cpu time    0.5952: real time    0.5982
  RMM-DIIS:  cpu time    0.7761: real time    0.7761
    ORTHCH:  cpu time    0.0669: real time    0.0669
 BZINTS: Fermi energy:    7.213741;   62.000000 electrons
         Band energy:-0.628469E+03;  BLOECHL correction:   -0.051709
       DOS:  cpu time    0.0579: real time    0.0581
    CHARGE:  cpu time    0.0782: real time    0.0782
    MIXING:  cpu time    0.0006: real time    0.0008
    --------------------------------------------
      LOOP:  cpu time    2.2286: real time    2.2322

 eigenvalue-minimisations  : 18274
 total energy-change (2. order) :-0.5270299E+01  (-0.2454408E+02)
 number of electron      61.9999958 magnetization       5.1432097
 augmentation part       10.3506389 magnetization       4.3898443

 Broyden mixing:
  rms(total) = 0.12240E+02    rms(broyden)= 0.12239E+02
  rms(prec ) = 0.12803E+02
  weight for this iteration     100.00

 eigenvalues of (default mixing * dielectric matrix)
  average eigenvalue GAMMA=   0.0016
  0.0016

 Free energy of the ion-electron system (eV)
  ---------------------------------------------------
  alpha Z        PSCENC =       295.27363897
  Ewald energy   TEWEN  =     -4756.68161707
  -Hartree energ DENC   =     -2091.65648830
  -exchange      EXHF   =         0.00000000
  -V(xc)+E(xc)   XCENC  =       264.09262943
  PAW double counting   =      5716.68762872    -5824.12036434
  entropy T*S    EENTRO =         0.00000000
  eigenvalues    EBANDS =      -628.46870739
  atomic energy  EATOM  =      6962.44817098
  Solvation  Ediel_sol  =         0.00000000
  ---------------------------------------------------
  free energy    TOTEN  =       -62.42510900 eV

  energy without entropy =      -62.42510900  energy(sigma->0) =      -62.42510900


--------------------------------------------------------------------------------------------------------




--------------------------------------- Iteration      1(   7)  ---------------------------------------


    POTLOK:  cpu time    0.0198: real time    0.0200
    SETDIJ:  cpu time    0.6205: real time    0.6205
atom =   1  type =  1  l = 0

 onsite density matrix

spin component  1

  1.0337

spin component  2

  1.0823

 occupancies and eigenvectors

  o =  1.0337  v =  1.0000  0.0000      0.0000  0.0000
  o =  1.0823  v =  0.0000  1.0000      0.0000  0.0000

atom =   2  type =  1  l = 0

 onsite density matrix

spin component  1

  1.0337

spin component  2

  1.0823

 occupancies and eigenvectors

  o =  1.0337  v =  1.0000  0.0000      0.0000  0.0000
  o =  1.0823  v =  0.0000  1.0000      0.0000  0.0000

atom =   3  type =  2  l = 2

 onsite density matrix

spin component  1

  1.0734  0.0000 -0.0000  0.0000 -0.0000
  0.0000  1.0746  0.0000  0.0000 -0.0000
 -0.0000  0.0000  1.1497  0.0000  0.0000
  0.0000  0.0000  0.0000  1.0746  0.0000
 -0.0000 -0.0000  0.0000  0.0000  1.2190

spin component  2

  0.3838 -0.0000 -0.0000 -0.0000  0.0000
 -0.0000  0.3749 -0.0000  0.0000  0.0000
 -0.0000 -0.0000  0.2785 -0.0000  0.0000
 -0.0000  0.0000 -0.0000  0.3749 -0.0000
  0.0000  0.0000  0.0000 -0.0000  0.2008

 occupancies and eigenvectors

  o =  0.2008  v =  0.0000  0.0000  0.0000  0.0000  0.0000  0.0000  0.0000  0.0000 -0.0000 -1.0000      0.0000  0.0000  0.0000  0.0000  0.0000  0.0000  0.0000  0.0000  0.0000  0.0000
  o =  0.2785  v =  0.0000  0.0000  0.0000  0.0000  0.0000  0.0000  0.0000  1.0000  0.0000  0.0000      0.0000  0.0000  0.0000  0.0000  0.0000  0.0000  0.0000  0.0000  0.0000  0.0000
  o =  0.3749  v =  0.0000  0.0000  0.0000  0.0000  0.0000  0.0000  0.9797 -0.0000 -0.2005  0.0000      0.0000  0.0000  0.0000  0.0000  0.0000  0.0000  0.0000  0.0000  0.0000  0.0000
  o =  0.3749  v =  0.0000  0.0000  0.0000  0.0000  0.0000 -0.0000 -0.2005  0.0000 -0.9797  0.0000      0.0000  0.0000  0.0000  0.0000  0.0000  0.0000  0.0000  0.0000  0.0000  0.0000
  o =  0.3838  v =  0.0000  0.0000  0.0000  0.0000  0.0000  1.0000 -0.0000 -0.0000 -0.0000  0.0000      0.0000  0.0000  0.0000  0.0000  0.0000  0.0000  0.0000  0.0000  0.0000  0.0000
  o =  1.0734  v =  1.0000 -0.0000  0.0000 -0.0000  0.0000  0.0000  0.0000  0.0000  0.0000  0.0000      0.0000  0.0000  0.0000  0.0000  0.0000  0.0000  0.0000  0.0000  0.0000  0.0000
  o =  1.0746  v = -0.0000 -0.5180  0.0000 -0.8554  0.0000 -0.0000 -0.0000 -0.0000 -0.0000 -0.0000      0.0000  0.0000  0.0000  0.0000  0.0000  0.0000  0.0000  0.0000  0.0000  0.0000
  o =  1.0746  v = -0.0000 -0.8554  0.0000  0.5180 -0.0000  0.0000  0.0000  0.0000  0.0000  0.0000      0.0000  0.0000  0.0000  0.0000  0.0000  0.0000  0.0000  0.0000  0.0000  0.0000
  o =  1.1497  v = -0.0000 -0.0000 -1.0000 -0.0000  0.0000  0.0000  0.0000  0.0000  0.0000  0.0000      0.0000  0.0000  0.0000  0.0000  0.0000  0.0000  0.0000  0.0000  0.0000  0.0000
  o =  1.2190  v =  0.0000  0.0000 -0.0000 -0.0000 -1.0000 -0.0000 -0.0000 -0.0000 -0.0000 -0.0000      0.0000  0.0000  0.0000  0.0000  0.0000  0.0000  0.0000  0.0000  0.0000  0.0000

atom =   4  type =  3  l = 0

 onsite density matrix

spin component  1

  0.7835

spin component  2

  0.8446

 occupancies and eigenvectors

  o =  0.7835  v =  1.0000  0.0000      0.0000  0.0000
  o =  0.8446  v =  0.0000  1.0000      0.0000  0.0000

atom =   5  type =  3  l = 0

 onsite density matrix

spin component  1

  0.7835

spin component  2

  0.8446

 occupancies and eigenvectors

  o =  0.7835  v =  1.0000  0.0000      0.0000  0.0000
  o =  0.8446  v =  0.0000  1.0000      0.0000  0.0000

atom =   6  type =  3  l = 0

 onsite density matrix

spin component  1

  0.7848

spin component  2

  0.8393

 occupancies and eigenvectors

  o =  0.7848  v =  1.0000  0.0000      0.0000  0.0000
  o =  0.8393  v =  0.0000  1.0000      0.0000  0.0000

atom =   7  type =  3  l = 0

 onsite density matrix

spin component  1

  0.7848

spin component  2

  0.8393

 occupancies and eigenvectors

  o =  0.7848  v =  1.0000  0.0000      0.0000  0.0000
  o =  0.8393  v =  0.0000  1.0000      0.0000  0.0000

    EDDIAG:  cpu time    0.5605: real time    0.5605
  RMM-DIIS:  cpu time    0.7923: real time    0.7924
    ORTHCH:  cpu time    0.0698: real time    0.0698
 BZINTS: Fermi energy:    7.011585;   62.000000 electrons
         Band energy:-0.578975E+03;  BLOECHL correction:   -0.046903
       DOS:  cpu time    0.0598: real time    0.0600
    CHARGE:  cpu time    0.0792: real time    0.0792
    MIXING:  cpu time    0.0003: real time    0.0003
    --------------------------------------------
      LOOP:  cpu time    2.2021: real time    2.2027

 eigenvalue-minimisations  : 19978
 total energy-change (2. order) : 0.1503510E+01  (-0.4543552E+01)
 number of electron      61.9999961 magnetization       3.7975383
 augmentation part       10.0148377 magnetization       2.8960367

 Broyden mixing:
  rms(total) = 0.66780E+01    rms(broyden)= 0.66780E+01
  rms(prec ) = 0.74711E+01
  weight for this iteration     100.00

 eigenvalues of (default mixing * dielectric matrix)
  average eigenvalue GAMMA=   0.3903
  0.3903  0.3903

 Free energy of the ion-electron system (eV)
  ---------------------------------------------------
  alpha Z        PSCENC =       295.27363897
  Ewald energy   TEWEN  =     -4756.68161707
  -Hartree energ DENC   =     -2129.44100390
  -exchange      EXHF   =         0.00000000
  -V(xc)+E(xc)   XCENC  =       264.39806163
  PAW double counting   =      5979.29280555    -6097.23635537
  entropy T*S    EENTRO =         0.00000000
  eigenvalues    EBANDS =      -578.97530015
  atomic energy  EATOM  =      6962.44817098
  Solvation  Ediel_sol  =         0.00000000
  ---------------------------------------------------
  free energy    TOTEN  =       -60.92159936 eV

  energy without entropy =      -60.92159936  energy(sigma->0) =      -60.92159936


--------------------------------------------------------------------------------------------------------




--------------------------------------- Iteration      1(   8)  ---------------------------------------


    POTLOK:  cpu time    0.0199: real time    0.0201
    SETDIJ:  cpu time    0.6383: real time    0.6383
atom =   1  type =  1  l = 0

 onsite density matrix

spin component  1

  1.0398

spin component  2

  1.0533

 occupancies and eigenvectors

  o =  1.0398  v =  1.0000  0.0000      0.0000  0.0000
  o =  1.0533  v =  0.0000  1.0000      0.0000  0.0000

atom =   2  type =  1  l = 0

 onsite density matrix

spin component  1

  1.0398

spin component  2

  1.0533

 occupancies and eigenvectors

  o =  1.0398  v =  1.0000  0.0000      0.0000  0.0000
  o =  1.0533  v =  0.0000  1.0000      0.0000  0.0000

atom =   3  type =  2  l = 2

 onsite density matrix

spin component  1

  0.9347  0.0000  0.0000  0.0000  0.0000
  0.0000  0.9333  0.0000 -0.0000 -0.0000
  0.0000  0.0000  0.9794  0.0000  0.0000
  0.0000 -0.0000  0.0000  0.9333  0.0000
  0.0000 -0.0000  0.0000  0.0000  1.0839

spin component  2

  0.6315  0.0000  0.0000  0.0000 -0.0000
  0.0000  0.6254  0.0000 -0.0000 -0.0000
  0.0000  0.0000  0.5405  0.0000  0.0000
  0.0000 -0.0000  0.0000  0.6254  0.0000
 -0.0000 -0.0000  0.0000  0.0000  0.3380

 occupancies and eigenvectors

  o =  0.3380  v =  0.0000  0.0000  0.0000  0.0000  0.0000  0.0000 -0.0000  0.0000  0.0000 -1.0000      0.0000  0.0000  0.0000  0.0000  0.0000  0.0000  0.0000  0.0000  0.0000  0.0000
  o =  0.5405  v =  0.0000  0.0000  0.0000  0.0000  0.0000  0.0000  0.0000 -1.0000  0.0000 -0.0000      0.0000  0.0000  0.0000  0.0000  0.0000  0.0000  0.0000  0.0000  0.0000  0.0000
  o =  0.6254  v =  0.0000  0.0000  0.0000  0.0000  0.0000  0.0000  0.1523 -0.0000 -0.9883 -0.0000      0.0000  0.0000  0.0000  0.0000  0.0000  0.0000  0.0000  0.0000  0.0000  0.0000
  o =  0.6254  v =  0.0000  0.0000  0.0000  0.0000  0.0000  0.0000  0.9883  0.0000  0.1523 -0.0000      0.0000  0.0000  0.0000  0.0000  0.0000  0.0000  0.0000  0.0000  0.0000  0.0000
  o =  0.6315  v =  0.0000  0.0000  0.0000  0.0000  0.0000  1.0000  0.0000  0.0000  0.0000  0.0000      0.0000  0.0000  0.0000  0.0000  0.0000  0.0000  0.0000  0.0000  0.0000  0.0000
  o =  0.9333  v =  0.0000  0.0524  0.0000 -0.9986  0.0000  0.0000  0.0000  0.0000  0.0000  0.0000     -0.0000  0.0000 -0.0000  0.0000  0.0000  0.0000  0.0000  0.0000  0.0000  0.0000
  o =  0.9333  v = -0.0000  0.9986 -0.0000  0.0524  0.0000 -0.0000 -0.0000 -0.0000 -0.0000 -0.0000      0.0000 -0.0000  0.0000  0.0000 -0.0000  0.0000  0.0000  0.0000  0.0000  0.0000
  o =  0.9347  v =  1.0000  0.0000 -0.0000  0.0000 -0.0000  0.0000  0.0000  0.0000  0.0000  0.0000      0.0000  0.0000  0.0000  0.0000  0.0000  0.0000  0.0000  0.0000  0.0000  0.0000
  o =  0.9794  v =  0.0000  0.0000  1.0000  0.0000 -0.0000 -0.0000 -0.0000 -0.0000 -0.0000 -0.0000      0.0000 -0.0000 -0.0000 -0.0000  0.0000  0.0000  0.0000  0.0000  0.0000  0.0000
  o =  1.0839  v =  0.0000 -0.0000  0.0000  0.0000  1.0000  0.0000  0.0000  0.0000  0.0000  0.0000      0.0000  0.0000  0.0000  0.0000  0.0000  0.0000  0.0000  0.0000  0.0000  0.0000

atom =   4  type =  3  l = 0

 onsite density matrix

spin component  1

  0.7995

spin component  2

  0.8176

 occupancies and eigenvectors

  o =  0.7995  v =  1.0000  0.0000      0.0000  0.0000
  o =  0.8176  v =  0.0000  1.0000      0.0000  0.0000

atom =   5  type =  3  l = 0

 onsite density matrix

spin component  1

  0.7995

spin component  2

  0.8176

 occupancies and eigenvectors

  o =  0.7995  v =  1.0000  0.0000      0.0000  0.0000
  o =  0.8176  v =  0.0000  1.0000      0.0000  0.0000

atom =   6  type =  3  l = 0

 onsite density matrix

spin component  1

  0.7964

spin component  2

  0.8142

 occupancies and eigenvectors

  o =  0.7964  v =  1.0000  0.0000      0.0000  0.0000
  o =  0.8142  v =  0.0000  1.0000      0.0000  0.0000

atom =   7  type =  3  l = 0

 onsite density matrix

spin component  1

  0.7964

spin component  2

  0.8142

 occupancies and eigenvectors

  o =  0.7964  v =  1.0000  0.0000      0.0000  0.0000
[...]
 -0.000   0.000  -0.000  -0.000   0.000  -0.000  -0.000   0.000
  0.000  -0.000   0.000   0.000   0.000   0.000   0.000   0.000
  0.000  -0.000   0.005   0.000   0.000  -0.004   0.000   0.000
  0.006   0.003  -0.000   0.011  -0.000  -0.000  -0.001  -0.000
  0.000  -0.000   0.000   0.000   0.005   0.000   0.000  -0.004
 -0.000   0.000  -0.000  -0.000   0.000  -0.000  -0.000   0.000
  0.000  -0.000   0.002  -0.000  -0.000  -0.001   0.000   0.000
 -0.000   0.000  -0.000  -0.000  -0.000   0.000   0.000   0.000
  0.000  -0.000   0.007  -0.000   0.000  -0.004   0.000  -0.000
 -0.005  -0.002   0.000   0.011   0.000  -0.000  -0.007  -0.000
  0.000  -0.000   0.000  -0.000   0.007  -0.000   0.000  -0.004
  0.000  -0.000   0.000   0.000  -0.000  -0.000  -0.000   0.000
 -0.000   0.000   0.000   0.000  -0.002  -0.000  -0.000   0.001
  0.000  -0.000   0.002  -0.000  -0.000  -0.001   0.000   0.000
 -0.000   0.000  -0.000  -0.000  -0.000   0.000   0.000   0.000
  0.000  -0.000   0.007  -0.000   0.000  -0.004   0.000  -0.000
 -0.005  -0.002   0.000   0.010   0.000  -0.000  -0.007  -0.000
  0.000  -0.000   0.000  -0.000   0.007  -0.000   0.000  -0.004
  0.000  -0.000   0.000   0.000  -0.000  -0.000  -0.000   0.000
 -0.000   0.000   0.000   0.000  -0.002  -0.000  -0.000   0.001
 total augmentation occupancy for first ion, spin component:           1
  1.993   0.034   0.000   0.002   0.000   0.000   0.001   0.000   0.000   0.000   0.009   0.000   0.000   0.000  -0.000  -0.014
  0.034   0.558   0.000   0.007   0.000  -0.000  -0.003  -0.000   0.000   0.000   0.365   0.000  -0.000  -0.000  -0.000  -0.178
  0.000   0.000   2.027   0.000   0.000  -0.001  -0.000  -0.000  -0.000  -0.067   0.000   0.000   0.000   0.000   0.028  -0.000
  0.002   0.007   0.000   2.035   0.000  -0.000  -0.013  -0.000   0.000   0.000   0.159   0.000  -0.000   0.000  -0.000  -0.060
  0.000   0.000  -0.000   0.000   2.027  -0.000  -0.000  -0.001  -0.000  -0.000   0.000  -0.067  -0.000   0.000  -0.000  -0.000
  0.000  -0.000  -0.001  -0.000  -0.000   0.012   0.000  -0.000   0.000   0.033  -0.000  -0.000  -0.000  -0.000  -0.016   0.000
  0.001  -0.003  -0.000  -0.013  -0.000   0.000   0.020   0.000   0.000  -0.000  -0.087  -0.000   0.000  -0.000   0.000   0.041
  0.000  -0.000  -0.000  -0.000  -0.001  -0.000   0.000   0.012   0.000   0.000  -0.000   0.033   0.000  -0.000  -0.000   0.000
  0.000   0.000  -0.000   0.000  -0.000   0.000   0.000   0.000   1.201   0.000   0.000   0.000   0.000  -0.566  -0.000   0.000
  0.000   0.000  -0.067   0.000   0.000   0.033  -0.000  -0.000   0.000   1.602   0.000  -0.000  -0.000  -0.000  -0.758  -0.000
  0.009   0.365   0.000   0.159   0.000  -0.000  -0.087  -0.000   0.000   0.000   2.386   0.000   0.000   0.000  -0.000  -1.143
  0.000   0.000  -0.000   0.000  -0.067  -0.000  -0.000   0.033   0.000   0.000   0.000   1.602   0.000  -0.000   0.000  -0.000
 -0.000   0.000   0.000  -0.000  -0.000  -0.000   0.000   0.000  -0.000  -0.000   0.000   0.000   1.127  -0.000   0.000   0.000
  0.000  -0.000   0.000   0.000   0.000  -0.000  -0.000  -0.000  -0.566  -0.000   0.000  -0.000   0.000   0.269   0.000   0.000
 -0.000  -0.000   0.028  -0.000   0.000  -0.016   0.000   0.000  -0.000  -0.758  -0.000  -0.000   0.000   0.000   0.361   0.000
 -0.014  -0.178  -0.000  -0.060  -0.000   0.000   0.041   0.000   0.000  -0.000  -1.143  -0.000  -0.000   0.000   0.000   0.554
 -0.000  -0.000   0.000  -0.000   0.028  -0.000   0.000  -0.016  -0.000  -0.000  -0.000  -0.758  -0.000   0.000   0.000   0.000
  0.000   0.000  -0.000   0.000   0.000   0.000   0.000  -0.000  -0.000   0.000   0.000  -0.000  -0.516   0.000  -0.000   0.000
 -0.000   0.000   0.020  -0.000  -0.000  -0.004   0.000  -0.000   0.000   0.172  -0.000  -0.000  -0.000  -0.000  -0.080   0.000
 -0.000   0.000   0.000  -0.000   0.000  -0.000  -0.000  -0.000   0.025  -0.000  -0.000  -0.000  -0.000  -0.006   0.000   0.000
 -0.000   0.000   0.031   0.000  -0.000  -0.015  -0.000  -0.000  -0.000  -0.134   0.000   0.000  -0.000   0.000   0.069  -0.000
 -0.027   0.230   0.000   0.034   0.000  -0.000  -0.042  -0.000   0.000   0.000   0.772   0.000   0.000  -0.000  -0.000  -0.372
 -0.000   0.000  -0.000   0.000   0.031   0.000  -0.000  -0.015  -0.000   0.000   0.000  -0.134   0.000   0.000  -0.000  -0.000
  0.000  -0.000  -0.000   0.000   0.000   0.000   0.000  -0.000  -0.000   0.000  -0.000  -0.000  -0.426  -0.000  -0.000   0.000
  0.000  -0.000  -0.000   0.000  -0.020   0.000   0.000   0.004  -0.000   0.000   0.000  -0.172  -0.000   0.000   0.000  -0.000
 -0.000   0.000  -0.026   0.000  -0.000   0.005   0.000  -0.000  -0.000  -0.231   0.000   0.000   0.000   0.000   0.107  -0.000
  0.000   0.000  -0.000  -0.000  -0.000   0.000   0.000   0.000  -0.047   0.000   0.000   0.000   0.000   0.014  -0.000   0.000
  0.000  -0.000  -0.045  -0.000  -0.000   0.021   0.000   0.000   0.000   0.169  -0.000   0.000   0.000  -0.000  -0.086   0.000
  0.034  -0.296  -0.000  -0.062  -0.000   0.000   0.056   0.000   0.000  -0.000  -1.009  -0.000   0.000  -0.000   0.000   0.483
  0.000  -0.000  -0.000  -0.000  -0.045   0.000   0.000   0.021   0.000   0.000  -0.000   0.169  -0.000  -0.000   0.000   0.000
  0.000   0.000   0.000   0.000  -0.000  -0.000  -0.000   0.000  -0.000  -0.000   0.000   0.000   0.556  -0.000   0.000  -0.000
  0.000  -0.000   0.000   0.000   0.026   0.000   0.000  -0.005   0.000   0.000  -0.000   0.231   0.000  -0.000   0.000   0.000
 total augmentation occupancy for first ion, spin component:           2
 -0.000  -0.001   0.000   0.000   0.000   0.000   0.000   0.000  -0.000   0.000   0.001   0.000   0.000  -0.000  -0.000  -0.001
 -0.001   0.007   0.000   0.002   0.000  -0.000  -0.001  -0.000  -0.000   0.000   0.011   0.000   0.000   0.000  -0.000  -0.004
  0.000   0.000  -0.000   0.000   0.000   0.000  -0.000   0.000   0.000   0.001   0.000  -0.000  -0.000  -0.000  -0.001  -0.000
  0.000   0.002   0.000   0.000   0.000  -0.000  -0.000  -0.000  -0.000   0.000   0.004   0.000   0.000   0.000  -0.000  -0.001
  0.000   0.000  -0.000   0.000  -0.000  -0.000  -0.000   0.000   0.000  -0.000   0.000   0.001   0.000  -0.000   0.000  -0.000
  0.000  -0.000   0.000  -0.000  -0.000  -0.000   0.000   0.000  -0.000  -0.000  -0.000   0.000   0.000   0.000   0.000   0.000
  0.000  -0.001  -0.000  -0.000  -0.000   0.000   0.000   0.000  -0.000  -0.000  -0.003  -0.000   0.000   0.000   0.000   0.001
  0.000  -0.000   0.000  -0.000   0.000   0.000   0.000  -0.000  -0.000   0.000  -0.000  -0.000  -0.000   0.000  -0.000   0.000
 -0.000  -0.000   0.000  -0.000   0.000  -0.000   0.000  -0.000  -0.010  -0.000   0.000  -0.000   0.000   0.005   0.000  -0.000
  0.000   0.000   0.001   0.000  -0.000  -0.000  -0.000   0.000  -0.000  -0.007   0.000  -0.000   0.000   0.000   0.003  -0.000
  0.001   0.011   0.000   0.004   0.000  -0.000  -0.003  -0.000   0.000   0.000   0.035   0.000   0.000   0.000  -0.000  -0.013
  0.000   0.000  -0.000   0.000   0.001   0.000  -0.000  -0.000  -0.000   0.000   0.000  -0.007  -0.000   0.000   0.000  -0.000
  0.000   0.000  -0.000   0.000   0.000   0.000   0.000  -0.000   0.000   0.000   0.000  -0.000  -0.008  -0.000  -0.000   0.000
 -0.000   0.000  -0.000   0.000  -0.000   0.000   0.000   0.000   0.005   0.000   0.000   0.000  -0.000  -0.002  -0.000   0.000
 -0.000  -0.000  -0.001  -0.000   0.000   0.000   0.000  -0.000   0.000   0.003  -0.000   0.000  -0.000  -0.000  -0.001   0.000
 -0.001  -0.004  -0.000  -0.001  -0.000   0.000   0.001   0.000  -0.000  -0.000  -0.013  -0.000   0.000   0.000   0.000   0.004
 -0.000  -0.000  -0.000  -0.000  -0.001  -0.000   0.000   0.000   0.000  -0.000  -0.000   0.003   0.000  -0.000   0.000   0.000
  0.000   0.000   0.000   0.000  -0.000  -0.000  -0.000   0.000   0.000  -0.000   0.000   0.000   0.003   0.000   0.000   0.000
 -0.000   0.000  -0.000   0.000  -0.000   0.000   0.000   0.000   0.000  -0.001   0.000   0.000   0.000  -0.000   0.000  -0.000
  0.000   0.000   0.000  -0.000   0.000  -0.000   0.000  -0.000   0.004   0.000  -0.000   0.000   0.000  -0.001  -0.000   0.000
  0.000   0.000   0.000  -0.000   0.000  -0.000  -0.000  -0.000  -0.000   0.000   0.000  -0.000  -0.000   0.000  -0.000  -0.000
  0.000   0.004  -0.000  -0.000  -0.000  -0.000  -0.001  -0.000  -0.000   0.000   0.012   0.000   0.000   0.000  -0.000  -0.005
  0.000   0.000   0.000  -0.000   0.000   0.000  -0.000  -0.000  -0.000   0.000   0.000   0.000   0.000   0.000  -0.000  -0.000
  0.000   0.000  -0.000   0.000   0.000   0.000   0.000  -0.000   0.000  -0.000   0.000   0.000   0.001  -0.000   0.000   0.000
  0.000   0.000  -0.000  -0.000   0.000   0.000   0.000  -0.000  -0.000   0.000  -0.000   0.001   0.000   0.000   0.000   0.000
  0.000   0.000   0.000   0.000  -0.000   0.000   0.000   0.000  -0.000   0.001  -0.000   0.000  -0.000   0.000  -0.000   0.000
 -0.000  -0.000  -0.000   0.000  -0.000   0.000  -0.000   0.000  -0.005  -0.000   0.000  -0.000   0.000   0.002   0.000   0.000
  0.000  -0.000  -0.000  -0.000  -0.000   0.000   0.000  -0.000   0.000  -0.000  -0.000  -0.000  -0.000  -0.000   0.000   0.000
  0.000  -0.007  -0.000  -0.001  -0.000   0.000   0.002   0.000  -0.000  -0.000  -0.023  -0.000   0.000   0.000   0.000   0.008
  0.000  -0.000   0.000  -0.000  -0.000  -0.000   0.000   0.000   0.000   0.000  -0.000  -0.000   0.000  -0.000   0.000   0.000
  0.000   0.000   0.000   0.000  -0.000  -0.000   0.000   0.000   0.000   0.000   0.000  -0.000  -0.002   0.000  -0.000   0.000
 -0.000  -0.000   0.000  -0.000  -0.000  -0.000   0.000  -0.000   0.000   0.000   0.000  -0.001  -0.000  -0.000  -0.000  -0.000


------------------------ aborting loop because EDIFF is reached ----------------------------------------





 total charge

# of ion       s       p       d       f       tot
--------------------------------------------------
    1        2.009   5.699   0.625   0.238   8.572
    2        2.009   5.699   0.625   0.238   8.572
    3        0.248   6.253   7.936   0.000  14.437
    4        1.561   3.415   0.000   0.000   4.976
    5        1.561   3.415   0.000   0.000   4.976
    6        1.557   3.514   0.000   0.000   5.070
    7        1.557   3.514   0.000   0.000   5.070
--------------------------------------------------
tot         10.503  31.508   9.186   0.477  51.675



 magnetization (x)

# of ion       s       p       d       f       tot
--------------------------------------------------
    1        0.001   0.000   0.001  -0.008  -0.006
    2        0.001   0.000   0.001  -0.008  -0.006
    3        0.014   0.013   1.763   0.000   1.790
    4        0.003   0.036   0.000   0.000   0.039
    5        0.003   0.036   0.000   0.000   0.039
    6        0.009   0.079   0.000   0.000   0.088
    7        0.009   0.079   0.000   0.000   0.088
--------------------------------------------------
tot          0.041   0.243   1.765  -0.017   2.033

    CHARGE:  cpu time    0.0785: real time    0.0785
    FORLOC:  cpu time    0.0005: real time    0.0006
    FORNL :  cpu time    0.2423: real time    0.2423
    STRESS:  cpu time    1.4980: real time    1.4980
    FORCOR:  cpu time    0.0127: real time    0.0128
    FORHAR:  cpu time    0.0017: real time    0.0017
    MIXING:  cpu time    0.0012: real time    0.0013
    OFIELD:  cpu time    0.0000: real time    0.0000

  FORCE on cell =-STRESS in cart. coord.  units (eV):
  Direction    XX          YY          ZZ          XY          YZ          ZX
  --------------------------------------------------------------------------------------
  Alpha Z   295.27364   295.27364   295.27364
  Ewald   -1265.30339 -1265.30339 -2226.08020     0.00000     0.00000     0.00000
  Hartree  1055.34015  1055.34015   145.93751    -0.00001    -0.00000    -0.00000
  E(xc)    -318.87335  -318.87335  -318.39231    -0.00001     0.00001     0.00001
  Local   -1110.01803 -1110.01803   756.72196     0.00007    -0.00019    -0.00019
  n-local   128.26414   125.37394   114.09631     0.00072    -0.03599     0.03217
  augment   120.72792   120.72792   120.51021     0.00028    -0.00047    -0.00047
  Kinetic  1091.98592  1107.80985  1116.13116    -0.00729     0.08539    -0.07315
  Fock        0.00000     0.00000     0.00000     0.00000     0.00000     0.00000
  -------------------------------------------------------------------------------------
  Total       3.86387     3.86387     4.19828     0.00000     0.00000     0.00000
  in kB      66.89550    66.89550    72.68508     0.00000     0.00000     0.00000
  external pressure =       68.83 kB  Pullay stress =        0.00 kB


 VOLUME and BASIS-vectors are now :
 -----------------------------------------------------------------------------
  energy-cutoff  :      520.00
  volume of cell :       92.54
      direct lattice vectors                 reciprocal lattice vectors
     3.871055256  0.000000000  0.000000000     0.258327493 -0.000000000  0.080964088
     0.000000000  3.871055256  0.000000000    -0.000000000  0.258327493  0.080964088
    -1.935527628 -1.935527628  6.175577534     0.000000000  0.000000000  0.161928175

  length of vectors
     3.871055256  3.871055256  6.755019783     0.270718077  0.270718077  0.161928175


 FORCES acting on ions
    electron-ion (+dipol)            ewald-force                    non-local-force                 convergence-correction
 -----------------------------------------------------------------------------------------------
   0.808E-06 0.808E-06 0.349E+03   0.437E-11 0.437E-11 -.349E+03   0.304E-16 0.312E-16 0.178E+00   -.117E-06 -.117E-06 -.849E-02
   -.808E-06 -.808E-06 -.349E+03   -.436E-11 -.437E-11 0.349E+03   -.308E-16 -.312E-16 -.178E+00   0.117E-06 0.117E-06 0.849E-02
   -.739E-14 -.556E-14 0.951E-14   0.104E-14 -.282E-13 -.114E-12   0.000E+00 0.000E+00 0.000E+00   0.729E-13 0.132E-12 0.190E-12
   0.288E-04 0.288E-04 -.218E+03   0.477E-12 0.469E-12 0.218E+03   0.486E-16 0.486E-16 0.290E+00   -.236E-08 -.236E-08 0.194E-02
   -.288E-04 -.288E-04 0.218E+03   -.470E-12 -.467E-12 -.218E+03   -.503E-16 -.486E-16 -.290E+00   0.236E-08 0.236E-08 -.194E-02
   -.117E-12 -.664E-12 0.333E-11   -.134E-13 0.349E-14 0.853E-13   0.000E+00 0.000E+00 0.000E+00   -.664E-14 0.940E-14 0.527E-13
   0.118E-14 0.827E-13 0.192E-13   -.766E-14 0.284E-13 0.497E-13   0.000E+00 0.000E+00 0.000E+00   -.219E-13 -.234E-13 0.453E-13
 -----------------------------------------------------------------------------------------------
   0.994E-12 0.531E-11 0.593E-11   0.164E-14 0.532E-15 -.355E-13   -.217E-17 0.000E+00 0.111E-15   0.298E-13 0.849E-13 0.196E-12


 POSITION                                       TOTAL-FORCE (eV/Angst)
 -----------------------------------------------------------------------------------
      0.00000      0.00000      4.48931        -0.000000     -0.000000     -0.247998
      1.93553      1.93553      1.68627         0.000000      0.000000      0.247998
      0.00000      0.00000      0.00000         0.000000     -0.000000     -0.000000
      0.00000      0.00000      2.21077        -0.000000     -0.000000     -0.256591
      1.93553      1.93553      3.96481         0.000000      0.000000      0.256591
      1.93553      0.00000      0.00000        -0.000000      0.000000     -0.000000
      0.00000      1.93553      0.00000        -0.000000      0.000000     -0.000000
 -----------------------------------------------------------------------------------
    total drift:                                0.000000      0.000000      0.000000


--------------------------------------------------------------------------------------------------------



  FREE ENERGIE OF THE ION-ELECTRON SYSTEM (eV)
  ---------------------------------------------------
  free  energy   TOTEN  =       -50.57667071 eV

  energy  without entropy=      -50.57667071  energy(sigma->0) =      -50.57667071



--------------------------------------------------------------------------------------------------------


    POTLOK:  cpu time    0.6395: real time    0.6395


--------------------------------------------------------------------------------------------------------


 stress matrix after NEB project (eV)
      3.86387      0.00000      0.00000
      0.00000      3.86387      0.00000
      0.00000      0.00000      4.19828
  FORCES: max atom, RMS     0.256591    0.190744
  FORCE total and by dimension    0.504662    0.256591
  Stress total and by dimension    6.890902    4.198276
     LOOP+:  cpu time   96.4640: real time   96.5106
 -----------------------------------------------------------------------------
|                                                                             |
|           W    W    AA    RRRRR   N    N  II  N    N   GGGG   !!!           |
|           W    W   A  A   R    R  NN   N  II  NN   N  G    G  !!!           |
|           W    W  A    A  R    R  N N  N  II  N N  N  G       !!!           |
|           W WW W  AAAAAA  RRRRR   N  N N  II  N  N N  G  GGG   !            |
|           WW  WW  A    A  R   R   N   NN  II  N   NN  G    G                |
|           W    W  A    A  R    R  N    N  II  N    N   GGGG   !!!           |
|                                                                             |
|     Tetrahedron method does not include variations of the Fermi             |
|     occupations, so forces and stress will be inaccurate. We suggest        |
|     using a different smearing scheme ISMEAR = 1 or 2 for metals in         |
|     relaxations.                                                            |
|                                                                             |
 -----------------------------------------------------------------------------

    4ORBIT:  cpu time    0.0000: real time    0.0000



 total charge

# of ion       s       p       d       f       tot
--------------------------------------------------
    1        2.009   5.699   0.625   0.238   8.572
    2        2.009   5.699   0.625   0.238   8.572
    3        0.248   6.253   7.936   0.000  14.437
    4        1.561   3.415   0.000   0.000   4.976
    5        1.561   3.415   0.000   0.000   4.976
    6        1.557   3.514   0.000   0.000   5.070
    7        1.557   3.514   0.000   0.000   5.070
--------------------------------------------------
tot         10.503  31.508   9.186   0.477  51.675



 magnetization (x)

# of ion       s       p       d       f       tot
--------------------------------------------------
    1        0.001   0.000   0.001  -0.008  -0.006
    2        0.001   0.000   0.001  -0.008  -0.006
    3        0.014   0.013   1.763   0.000   1.790
    4        0.003   0.036   0.000   0.000   0.039
    5        0.003   0.036   0.000   0.000   0.039
    6        0.009   0.079   0.000   0.000   0.088
    7        0.009   0.079   0.000   0.000   0.088
--------------------------------------------------
tot          0.041   0.243   1.765  -0.017   2.033

 BZINTS: Fermi energy:   10.059778;   62.000000 electrons
         Band energy:-0.430257E+03;  BLOECHL correction:   -0.056447

 total amount of memory used by VASP MPI-rank0   158631. kBytes
=======================================================================

   base      :      30000. kBytes
   nonl-proj :     117512. kBytes
   fftplans  :        569. kBytes
   grid      :       4702. kBytes
   one-center:        688. kBytes
   wavefun   :       5160. kBytes

  
  
 General timing and accounting informations for this job:
 ========================================================
  
                  Total CPU time used (sec):      103.471
                            User time (sec):      102.007
                          System time (sec):        1.464
                         Elapsed time (sec):      103.868
  
                   Maximum memory used (kb):      138812.
                   Average memory used (kb):          N/A
  
                          Minor page faults:       226212
                          Major page faults:          423
                 Voluntary context switches:         2721
