 vasp.6.2.1 16May21 (build Aug 15 2022 14:47:30) complex                         
 executed on             LinuxGNU date 2025.12.30  16:12:29
 running on    4 total cores
 distrk:  each k-point on    4 cores,    1 groups
 distr:  one band on NCORE=   1 cores,    4 groups


--------------------------------------------------------------------------------------------------------


 INCAR:
   ALGO = Fast
   EDIFF = 1e-6
   ENCUT = 520.0
   ISMEAR = 1
   LASPH = True
   LCHARG = False
   LREAL = False
   LWAVE = False
   NELM = 100
   NSW = 0
   PREC = Accurate

 POTCAR:   PAW_PBE Si 05Jan2001                   
 POTCAR:   PAW_PBE Si 05Jan2001                   
   VRHFIN =Si: s2p2                                                                                 
   LEXCH  = PE                                                                                      
   EATOM  =   103.0669 eV,    7.5752 Ry                                                             
                                                                                                    
   TITEL  = PAW_PBE Si 05Jan2001                                                                    
   LULTRA =        F    use ultrasoft PP ?                                                          
   IUNSCR =        1    unscreen: 0-lin 1-nonlin 2-no                                               
   RPACOR =    1.500    partial core radius                                                         
   POMASS =   28.085; ZVAL   =    4.000    mass and valenz                                          
   RCORE  =    1.900    outmost cutoff radius                                                       
   RWIGS  =    2.480; RWIGS  =    1.312    wigner-seitz radius (au A)                               
   ENMAX  =  245.345; ENMIN  =  184.009 eV                                                          
   ICORE  =        2    local potential                                                             
   LCOR   =        T    correct aug charges                                                         
   LPAW   =        T    paw PP                                                                      
   EAUG   =  322.069                                                                                
   DEXC   =    -.007                                                                                
   RMAX   =    2.944    core radius for proj-oper                                                   
   RAUG   =    1.300    factor for augmentation sphere                                              
   RDEP   =    1.993    radius for radial grids                                                     
   QCUT   =   -4.246; QGAM   =    8.493    optimization parameters                                  
                                                                                                    
   Description                                                                                      
     l     E      TYP  RCUT    TYP  RCUT                                                            
     0   .000     23  1.900                                                                         
     0   .000     23  1.900                                                                         
     1   .000     23  1.900                                                                         
     1   .000     23  1.900                                                                         
     2   .000      7  1.900                                                                         
  local pseudopotential read in
  partial core-charges read in
  atomic valenz-charges read in
  non local Contribution for L=           0  read in
    real space projection operators read in
  non local Contribution for L=           0  read in
    real space projection operators read in
  non local Contribution for L=           1  read in
    real space projection operators read in
  non local Contribution for L=           1  read in
    real space projection operators read in
    PAW grid and wavefunctions read in

   number of l-projection  operators is LMAX  =           4
   number of lm-projection operators is LMMAX =           8

 PAW_PBE Si 05Jan2001                   :
 energy of atom  1       EATOM= -103.0669
 kinetic energy error for atom=    0.0005 (will be added to EATOM!!)


 POSCAR: # Generated by Masgent for EOS calculati
  positions in direct lattice
  No initial velocities read in
 exchange correlation table for  LEXCH =        8
   RHO(1)=    0.500       N(1)  =     2000
   RHO(2)=  100.500       N(2)  =     4000

 VTST: version 4.2, (08/11/21)

 CHAIN: initializing optimizer
 
 OPT: Using VASP Dynamics algorithm
 CHAIN: Read ICHAIN            0

 POSCAR: # Generated by Masgent for EOS calculati
  positions in direct lattice
  No initial velocities read in



--------------------------------------------------------------------------------------------------------


 ion  position               nearest neighbor table
   1  0.750  0.750  0.250-   2 2.33   4 2.33   8 2.33   6 2.33
   2  0.000  0.500  0.500-   1 2.33   3 2.33   7 2.33   5 2.33
   3  0.750  0.250  0.750-   2 2.33   4 2.33   6 2.33   8 2.33
   4  0.000  0.000  0.000-   1 2.33   3 2.33   5 2.33   7 2.33
   5  0.250  0.750  0.750-   4 2.33   6 2.33   8 2.33   2 2.33
   6  0.500  0.500  0.000-   3 2.33   5 2.33   7 2.33   1 2.33
   7  0.250  0.250  0.250-   2 2.33   6 2.33   8 2.33   4 2.33
   8  0.500  0.000  0.500-   1 2.33   5 2.33   7 2.33   3 2.33

  LATTYP: Found a simple cubic cell.
 ALAT       =     5.3701298085
  
  Lattice vectors:
  
 A1 = (   5.3701298085,   0.0000000000,   0.0000000000)
 A2 = (   0.0000000000,   5.3701298085,   0.0000000000)
 A3 = (   0.0000000000,   0.0000000000,   5.3701298085)


Analysis of symmetry for initial positions (statically):
=====================================================================
 Subroutine PRICEL returns following result:
 
  LATTYP: Found a face centered cubic cell.
 ALAT       =     5.3701298085
  
  Lattice vectors:
  
 A1 = (   2.6850649042,  -2.6850649042,   0.0000000000)
 A2 = (   2.6850649042,   0.0000000000,   2.6850649042)
 A3 = (   0.0000000000,  -2.6850649042,   2.6850649042)
 
   4 primitive cells build up your supercell.
 

 Routine SETGRP: Setting up the symmetry group for a 
 simple cubic supercell.


 Subroutine GETGRP returns: Found 48 space group operations
 (whereof 24 operations were pure point group operations)
 out of a pool of 48 trial point group operations.


The static configuration has the point symmetry T_d .
 The point group associated with its full space group is O_h .


Analysis of symmetry for dynamics (positions and initial velocities):
=====================================================================
 Subroutine PRICEL returns following result:
 
  LATTYP: Found a face centered cubic cell.
 ALAT       =     5.3701298085
  
  Lattice vectors:
  
 A1 = (   2.6850649042,  -2.6850649042,   0.0000000000)
 A2 = (   2.6850649042,   0.0000000000,   2.6850649042)
 A3 = (   0.0000000000,  -2.6850649042,   2.6850649042)
 
   4 primitive cells build up your supercell.
 

 Routine SETGRP: Setting up the symmetry group for a 
 simple cubic supercell.


 Subroutine GETGRP returns: Found 48 space group operations
 (whereof 24 operations were pure point group operations)
 out of a pool of 48 trial point group operations.


The dynamic configuration has the point symmetry T_d .
 The point group associated with its full space group is O_h .


 Subroutine INISYM returns: Found 48 space group operations
 (whereof 24 operations are pure point group operations),
 and found     4 'primitive' translations


----------------------------------------------------------------------------------------

                                     Primitive cell                                     

  volume of cell :      38.7163

  direct lattice vectors                    reciprocal lattice vectors
     2.685064904 -2.685064904  0.000000000     0.186215238 -0.186215238 -0.186215238
     2.685064904  0.000000000  2.685064904     0.186215238  0.186215238  0.186215238
     0.000000000 -2.685064904  2.685064904    -0.186215238 -0.186215238  0.186215238

  length of vectors
     3.797255203  3.797255203  3.797255203     0.322534253  0.322534253  0.322534253

  position of ions in fractional coordinates (direct lattice)
     0.750000000  0.750000000  0.750000000
     0.000000000  0.000000000  0.000000000

  ion indices of the primitive-cell ions
   primitive index   ion index
                 1           1
                 2           2

----------------------------------------------------------------------------------------



 KPOINTS: # Generated by Masgent for EOS calculati

Automatic generation of k-mesh.
 Grid dimensions read from file:
 generate k-points for:    5    5    5

 Generating k-lattice:

  Cartesian coordinates                     Fractional coordinates (reciprocal lattice)
     0.037243048 -0.000000000  0.000000000     0.200000000  0.000000000  0.000000000
     0.000000000  0.037243048  0.000000000     0.000000000  0.200000000  0.000000000
    -0.000000000 -0.000000000  0.037243048    -0.000000000 -0.000000000  0.200000000

  Length of vectors
     0.037243048  0.037243048  0.037243048

  Shift w.r.t. Gamma in fractional coordinates (k-lattice)
     0.000000000  0.000000000  0.000000000

 
 Subroutine IBZKPT returns following result:
 ===========================================
 
 Found     10 irreducible k-points:
 
 Following reciprocal coordinates:
            Coordinates               Weight
  0.000000  0.000000  0.000000      1.000000
  0.200000  0.000000  0.000000      6.000000
  0.400000  0.000000  0.000000      6.000000
  0.200000  0.200000  0.000000     12.000000
  0.400000  0.200000  0.000000     24.000000
  0.400000  0.400000  0.000000     12.000000
  0.200000  0.200000  0.200000      8.000000
  0.400000  0.200000  0.200000     24.000000
  0.400000  0.400000  0.200000     24.000000
  0.400000  0.400000  0.400000      8.000000
 
 Following cartesian coordinates:
            Coordinates               Weight
  0.000000  0.000000  0.000000      1.000000
  0.037243  0.000000  0.000000      6.000000
  0.074486  0.000000  0.000000      6.000000
  0.037243  0.037243  0.000000     12.000000
  0.074486  0.037243  0.000000     24.000000
  0.074486  0.074486  0.000000     12.000000
  0.037243  0.037243  0.037243      8.000000
  0.074486  0.037243  0.037243     24.000000
  0.074486  0.074486  0.037243     24.000000
  0.074486  0.074486  0.074486      8.000000
 


--------------------------------------------------------------------------------------------------------




 Dimension of arrays:
   k-points           NKPTS =     10   k-points in BZ     NKDIM =     10   number of bands    NBANDS=     24
   number of dos      NEDOS =    301   number of ions     NIONS =      8
   non local maximal  LDIM  =      4   non local SUM 2l+1 LMDIM =      8
   total plane-waves  NPLWV =  64000
   max r-space proj   IRMAX =      1   max aug-charges    IRDMAX=  14015
   dimension x,y,z NGX =    40 NGY =   40 NGZ =   40
   dimension x,y,z NGXF=    80 NGYF=   80 NGZF=   80
   support grid    NGXF=    80 NGYF=   80 NGZF=   80
   ions per type =               8
   NGX,Y,Z   is equivalent  to a cutoff of  12.38, 12.38, 12.38 a.u.
   NGXF,Y,Z  is equivalent  to a cutoff of  24.77, 24.77, 24.77 a.u.

 SYSTEM =  unknown system                          
 POSCAR =  # Generated by Masgent for EOS calculati

 Startparameter for this run:
   NWRITE =      2    write-flag & timer
   PREC   = accura    normal or accurate (medium, high low for compatibility)
   ISTART =      0    job   : 0-new  1-cont  2-samecut
   ICHARG =      2    charge: 1-file 2-atom 10-const
   ISPIN  =      1    spin polarized calculation?
   LNONCOLLINEAR =      F non collinear calculations
   LSORBIT =      F    spin-orbit coupling
   INIWAV =      1    electr: 0-lowe 1-rand  2-diag
   LASPH  =      T    aspherical Exc in radial PAW
 Electronic Relaxation 1
   ENCUT  =  520.0 eV  38.22 Ry    6.18 a.u.   9.98  9.98  9.98*2*pi/ulx,y,z
   ENINI  =  520.0     initial cutoff
   ENAUG  =  322.1 eV  augmentation charge cutoff
   NELM   =    100;   NELMIN=  2; NELMDL=  0     # of ELM steps 
   EDIFF  = 0.1E-05   stopping-criterion for ELM
   LREAL  =      F    real-space projection
   NLSPLINE    = F    spline interpolate recip. space projectors
   LCOMPAT=      F    compatible to vasp.4.4
   GGA_COMPAT  = T    GGA compatible to vasp.4.4-vasp.4.6
   LMAXPAW     = -100 max onsite density
   LMAXMIX     =    2 max onsite mixed and CHGCAR
   VOSKOWN=      0    Vosko Wilk Nusair interpolation
   ROPT   =    0.00000
 Ionic relaxation
   EDIFFG = 0.1E-04   stopping-criterion for IOM
   NSW    =      0    number of steps for IOM
   NBLOCK =      1;   KBLOCK =      1    inner block; outer block 
   IBRION =     -1    ionic relax: 0-MD 1-quasi-New 2-CG
   NFREE  =      0    steps in history (QN), initial steepest desc. (CG)
   ISIF   =      2    stress and relaxation
   IWAVPR =     10    prediction:  0-non 1-charg 2-wave 3-comb
   ISYM   =      2    0-nonsym 1-usesym 2-fastsym
   LCORR  =      T    Harris-Foulkes like correction to forces

   POTIM  = 0.5000    time-step for ionic-motion
   TEIN   =    0.0    initial temperature
   TEBEG  =    0.0;   TEEND  =   0.0 temperature during run
   SMASS  =  -3.00    Nose mass-parameter (am)
   estimated Nose-frequenzy (Omega)   =  0.10E-29 period in steps = 0.13E+47 mass=  -0.659E-27a.u.
   SCALEE = 1.0000    scale energy and forces
   NPACO  =    256;   APACO  = 16.0  distance and # of slots for P.C.
   PSTRESS=    0.0 pullay stress

  Mass of Ions in am
   POMASS =  28.09
  Ionic Valenz
   ZVAL   =   4.00
  Atomic Wigner-Seitz radii
   RWIGS  =  -1.00
  virtual crystal weights 
   VCA    =   1.00
   NELECT =      32.0000    total number of electrons
   NUPDOWN=      -1.0000    fix difference up-down

 DOS related values:
   EMIN   =  10.00;   EMAX   =-10.00  energy-range for DOS
   EFERMI =   0.00
   ISMEAR =     1;   SIGMA  =   0.20  broadening in eV -4-tet -1-fermi 0-gaus

 Electronic relaxation 2 (details)
   IALGO  =     68    algorithm
   LDIAG  =      T    sub-space diagonalisation (order eigenvalues)
   LSUBROT=      F    optimize rotation matrix (better conditioning)
   TURBO    =      0    0=normal 1=particle mesh
   IRESTART =      0    0=no restart 2=restart with 2 vectors
   NREBOOT  =      0    no. of reboots
   NMIN     =      0    reboot dimension
   EREF     =   0.00    reference energy to select bands
   IMIX   =      4    mixing-type and parameters
     AMIX     =   0.40;   BMIX     =  1.00
     AMIX_MAG =   1.60;   BMIX_MAG =  1.00
     AMIN     =   0.10
     WC   =   100.;   INIMIX=   1;  MIXPRE=   1;  MAXMIX= -45

 Intra band minimization:
   WEIMIN = 0.0000     energy-eigenvalue tresh-hold
   EBREAK =  0.10E-07  absolut break condition
   DEPER  =   0.30     relativ break condition  

   TIME   =   0.40     timestep for ELM

  volume/ion in A,a.u.               =      19.36       130.64
  Fermi-wavevector in a.u.,A,eV,Ry     =   0.967847  1.828966 12.744956  0.936728
  Thomas-Fermi vector in A             =   2.097767

 Write flags
   LWAVE        =      F    write WAVECAR
   LDOWNSAMPLE  =      F    k-point downsampling of WAVECAR
   LCHARG       =      F    write CHGCAR
   LVTOT        =      F    write LOCPOT, total local potential
   LVHAR        =      F    write LOCPOT, Hartree potential only
   LELF         =      F    write electronic localiz. function (ELF)
   LORBIT       =      0    0 simple, 1 ext, 2 COOP (PROOUT), +10 PAW based schemes


 Dipole corrections
   LMONO  =      F    monopole corrections only (constant potential shift)
   LDIPOL =      F    correct potential (dipole corrections)
   IDIPOL =      0    1-x, 2-y, 3-z, 4-all directions 
   EPSILON=  1.0000000 bulk dielectric constant

 Exchange correlation treatment:
   GGA     =    --    GGA type
   LEXCH   =     8    internal setting for exchange type
   VOSKOWN=      0    Vosko Wilk Nusair interpolation
   LHFCALC =     F    Hartree Fock is set to
   LHFONE  =     F    Hartree Fock one center treatment
   AEXX    =    0.0000 exact exchange contribution

 Linear response parameters
   LEPSILON=     F    determine dielectric tensor
   LRPA    =     F    only Hartree local field effects (RPA)
   LNABLA  =     F    use nabla operator in PAW spheres
   LVEL    =     F    velocity operator in full k-point grid
   LINTERFAST=   F  fast interpolation
   KINTER  =     0    interpolate to denser k-point grid
   CSHIFT  =0.1000    complex shift for real part using Kramers Kronig
   OMEGAMAX=  -1.0    maximum frequency
   DEG_THRESHOLD= 0.2000000E-02 threshold for treating states as degnerate
   RTIME   =   -0.100 relaxation time in fs
  (WPLASMAI=    0.000 imaginary part of plasma frequency in eV, 0.658/RTIME)
   DFIELD  = 0.0000000 0.0000000 0.0000000 field for delta impulse in time

 Orbital magnetization related:
   ORBITALMAG=     F  switch on orbital magnetization
   LCHIMAG   =     F  perturbation theory with respect to B field
   DQ        =  0.001000  dq finite difference perturbation B field
   LLRAUG    =     F  two centre corrections for induced B field



--------------------------------------------------------------------------------------------------------


 Static calculation
 charge density and potential will be updated during run
 non-spin polarized calculation
 RMM-DIIS sequential band-by-band and
  variant of blocked Davidson during initial phase
 perform sub-space diagonalisation
    before iterative eigenvector-optimisation
 modified Broyden-mixing scheme, WC =      100.0
 initial mixing is a Kerker type mixing with AMIX =  0.4000 and BMIX =      1.0000
 Hartree-type preconditioning will be used
 using additional bands            8
 reciprocal scheme for non local part
 use partial core corrections
 calculate Harris-corrections to forces   (improved forces if not selfconsistent)
 use gradient corrections 
 use of overlap-Matrix (Vanderbilt PP)
 Methfessel and Paxton  Order N= 1 SIGMA  =   0.20


--------------------------------------------------------------------------------------------------------


  energy-cutoff  :      520.00
  volume of cell :      154.87
      direct lattice vectors                 reciprocal lattice vectors
     5.370129808  0.000000000  0.000000000     0.186215238 -0.000000000  0.000000000
     0.000000000  5.370129808  0.000000000     0.000000000  0.186215238  0.000000000
     0.000000000  0.000000000  5.370129808    -0.000000000 -0.000000000  0.186215238

  length of vectors
     5.370129808  5.370129808  5.370129808     0.186215238  0.186215238  0.186215238



 k-points in units of 2pi/SCALE and weight: # Generated by Masgent for EOS calculati
   0.00000000  0.00000000  0.00000000       0.008
   0.03724305  0.00000000  0.00000000       0.048
   0.07448610  0.00000000  0.00000000       0.048
   0.03724305  0.03724305  0.00000000       0.096
   0.07448610  0.03724305  0.00000000       0.192
   0.07448610  0.07448610  0.00000000       0.096
   0.03724305  0.03724305  0.03724305       0.064
   0.07448610  0.03724305  0.03724305       0.192
   0.07448610  0.07448610  0.03724305       0.192
   0.07448610  0.07448610  0.07448610       0.064

 k-points in reciprocal lattice and weights: # Generated by Masgent for EOS calculati
   0.00000000  0.00000000  0.00000000       0.008
   0.20000000  0.00000000  0.00000000       0.048
   0.40000000  0.00000000  0.00000000       0.048
   0.20000000  0.20000000  0.00000000       0.096
   0.40000000  0.20000000  0.00000000       0.192
   0.40000000  0.40000000  0.00000000       0.096
   0.20000000  0.20000000  0.20000000       0.064
   0.40000000  0.20000000  0.20000000       0.192
   0.40000000  0.40000000  0.20000000       0.192
   0.40000000  0.40000000  0.40000000       0.064

 position of ions in fractional coordinates (direct lattice) 
   0.75000000  0.75000000  0.25000000
   0.00000000  0.50000000  0.50000000
   0.75000000  0.25000000  0.75000000
   0.00000000  0.00000000  0.00000000
   0.25000000  0.75000000  0.75000000
   0.50000000  0.50000000  0.00000000
   0.25000000  0.25000000  0.25000000
   0.50000000  0.00000000  0.50000000

 position of ions in cartesian coordinates  (Angst):
   4.02759736  4.02759736  1.34253245
   0.00000000  2.68506490  2.68506490
   4.02759736  1.34253245  4.02759736
   0.00000000  0.00000000  0.00000000
   1.34253245  4.02759736  4.02759736
   2.68506490  2.68506490  0.00000000
   1.34253245  1.34253245  1.34253245
   2.68506490  0.00000000  2.68506490



--------------------------------------------------------------------------------------------------------


 k-point   1 :   0.0000 0.0000 0.0000  plane waves:    4139
 k-point   2 :   0.2000 0.0000 0.0000  plane waves:    4156
 k-point   3 :   0.4000 0.0000 0.0000  plane waves:    4156
 k-point   4 :   0.2000 0.2000 0.0000  plane waves:    4146
 k-point   5 :   0.4000 0.2000 0.0000  plane waves:    4171
 k-point   6 :   0.4000 0.4000 0.0000  plane waves:    4172
 k-point   7 :   0.2000 0.2000 0.2000  plane waves:    4154
 k-point   8 :   0.4000 0.2000 0.2000  plane waves:    4186
 k-point   9 :   0.4000 0.4000 0.2000  plane waves:    4184
 k-point  10 :   0.4000 0.4000 0.4000  plane waves:    4158

 maximum and minimum number of plane-waves per node :      4186     4139

 maximum number of plane-waves:      4186
 maximum index in each direction: 
   IXMAX=    9   IYMAX=    9   IZMAX=    9
   IXMIN=  -10   IYMIN=  -10   IZMIN=  -10


 serial   3D FFT for wavefunctions
 parallel 3D FFT for charge:
    minimum data exchange during FFTs selected (reduces bandwidth)


 total amount of memory used by VASP MPI-rank0    50814. kBytes
=======================================================================

   base      :      30000. kBytes
   nonl-proj :       3216. kBytes
   fftplans  :       4661. kBytes
   grid      :       8832. kBytes
   one-center:         24. kBytes
   wavefun   :       4081. kBytes

     INWAV:  cpu time    0.0000: real time    0.0001
 Broyden mixing: mesh for mixing (old mesh)
   NGX = 19   NGY = 19   NGZ = 19
  (NGX  = 80   NGY  = 80   NGZ  = 80)
  gives a total of   6859 points

 initial charge density was supplied:
 charge density of overlapping atoms calculated
 number of electron      32.0000000 magnetization 
 keeping initial charge density in first step


--------------------------------------------------------------------------------------------------------


 Maximum index for augmentation-charges         3383 (set IRDMAX)


--------------------------------------------------------------------------------------------------------


 First call to EWALD:  gamma=   0.330
 Maximum number of real-space cells 3x 3x 3
 Maximum number of reciprocal cells 3x 3x 3

    FEWALD:  cpu time    0.0005: real time    0.0005


--------------------------------------- Iteration      1(   1)  ---------------------------------------


    POTLOK:  cpu time    0.0451: real time    0.0460
    SETDIJ:  cpu time    0.0519: real time    0.0519
     EDDAV:  cpu time    0.3486: real time    0.3487
       DOS:  cpu time    0.0003: real time    0.0003
    --------------------------------------------
      LOOP:  cpu time    0.4458: real time    0.4469

 eigenvalue-minimisations  :   480
 total energy-change (2. order) : 0.7440136E+02  (-0.1212952E+04)
 number of electron      32.0000000 magnetization 
 augmentation part       32.0000000 magnetization 

 Free energy of the ion-electron system (eV)
  ---------------------------------------------------
  alpha Z        PSCENC =        13.91167590
  Ewald energy   TEWEN  =      -924.44691595
  -Hartree energ DENC   =       -42.03052573
  -exchange      EXHF   =         0.00000000
  -V(xc)+E(xc)   XCENC  =       -73.87887396
  PAW double counting   =       263.82083246     -123.07410713
  entropy T*S    EENTRO =         0.01338988
  eigenvalues    EBANDS =       135.55507002
  atomic energy  EATOM  =       824.53081094
  Solvation  Ediel_sol  =         0.00000000
  ---------------------------------------------------
  free energy    TOTEN  =        74.40135642 eV

  energy without entropy =       74.38796654  energy(sigma->0) =       74.39689313


--------------------------------------------------------------------------------------------------------




--------------------------------------- Iteration      1(   2)  ---------------------------------------


     EDDAV:  cpu time    0.4252: real time    0.4254
       DOS:  cpu time    0.0002: real time    0.0002
    --------------------------------------------
      LOOP:  cpu time    0.4254: real time    0.4256

 eigenvalue-minimisations  :   640
 total energy-change (2. order) :-0.1133453E+03  (-0.1034780E+03)
 number of electron      32.0000000 magnetization 
 augmentation part       32.0000000 magnetization 

 Free energy of the ion-electron system (eV)
  ---------------------------------------------------
  alpha Z        PSCENC =        13.91167590
  Ewald energy   TEWEN  =      -924.44691595
  -Hartree energ DENC   =       -42.03052573
  -exchange      EXHF   =         0.00000000
  -V(xc)+E(xc)   XCENC  =       -73.87887396
  PAW double counting   =       263.82083246     -123.07410713
  entropy T*S    EENTRO =         0.00226291
  eigenvalues    EBANDS =        22.22088313
  atomic energy  EATOM  =       824.53081094
  Solvation  Ediel_sol  =         0.00000000
  ---------------------------------------------------
  free energy    TOTEN  =       -38.94395745 eV

  energy without entropy =      -38.94622035  energy(sigma->0) =      -38.94471175


--------------------------------------------------------------------------------------------------------




--------------------------------------- Iteration      1(   3)  ---------------------------------------


     EDDAV:  cpu time    0.4106: real time    0.4108
       DOS:  cpu time    0.0002: real time    0.0002
    --------------------------------------------
      LOOP:  cpu time    0.4108: real time    0.4110

 eigenvalue-minimisations  :   616
 total energy-change (2. order) :-0.5032105E+01  (-0.4971446E+01)
 number of electron      32.0000000 magnetization 
 augmentation part       32.0000000 magnetization 

 Free energy of the ion-electron system (eV)
  ---------------------------------------------------
  alpha Z        PSCENC =        13.91167590
  Ewald energy   TEWEN  =      -924.44691595
  -Hartree energ DENC   =       -42.03052573
  -exchange      EXHF   =         0.00000000
  -V(xc)+E(xc)   XCENC  =       -73.87887396
  PAW double counting   =       263.82083246     -123.07410713
  entropy T*S    EENTRO =         0.00175827
  eigenvalues    EBANDS =        17.18928294
  atomic energy  EATOM  =       824.53081094
  Solvation  Ediel_sol  =         0.00000000
  ---------------------------------------------------
  free energy    TOTEN  =       -43.97606228 eV

  energy without entropy =      -43.97782055  energy(sigma->0) =      -43.97664837


--------------------------------------------------------------------------------------------------------




--------------------------------------- Iteration      1(   4)  ---------------------------------------


     EDDAV:  cpu time    0.3909: real time    0.3910
       DOS:  cpu time    0.0002: real time    0.0003
    --------------------------------------------
      LOOP:  cpu time    0.3911: real time    0.3913

 eigenvalue-minimisations  :   584
 total energy-change (2. order) :-0.7877834E-01  (-0.7863320E-01)
 number of electron      32.0000000 magnetization 
 augmentation part       32.0000000 magnetization 

 Free energy of the ion-electron system (eV)
  ---------------------------------------------------
  alpha Z        PSCENC =        13.91167590
  Ewald energy   TEWEN  =      -924.44691595
  -Hartree energ DENC   =       -42.03052573
  -exchange      EXHF   =         0.00000000
  -V(xc)+E(xc)   XCENC  =       -73.87887396
  PAW double counting   =       263.82083246     -123.07410713
  entropy T*S    EENTRO =         0.00176194
  eigenvalues    EBANDS =        17.11050093
  atomic energy  EATOM  =       824.53081094
  Solvation  Ediel_sol  =         0.00000000
  ---------------------------------------------------
  free energy    TOTEN  =       -44.05484062 eV

  energy without entropy =      -44.05660256  energy(sigma->0) =      -44.05542793


--------------------------------------------------------------------------------------------------------




--------------------------------------- Iteration      1(   5)  ---------------------------------------


     EDDAV:  cpu time    0.4190: real time    0.4191
       DOS:  cpu time    0.0002: real time    0.0003
    CHARGE:  cpu time    0.0518: real time    0.0518
    MIXING:  cpu time    0.0014: real time    0.0014
    --------------------------------------------
      LOOP:  cpu time    0.4724: real time    0.4726

 eigenvalue-minimisations  :   632
 total energy-change (2. order) :-0.1969312E-02  (-0.1968799E-02)
 number of electron      32.0000008 magnetization 
 augmentation part       -1.8912528 magnetization 

 Broyden mixing:
  rms(total) = 0.61906E+00    rms(broyden)= 0.61905E+00
  rms(prec ) = 0.11619E+01
  weight for this iteration     100.00

 Free energy of the ion-electron system (eV)
  ---------------------------------------------------
  alpha Z        PSCENC =        13.91167590
  Ewald energy   TEWEN  =      -924.44691595
  -Hartree energ DENC   =       -42.03052573
  -exchange      EXHF   =         0.00000000
  -V(xc)+E(xc)   XCENC  =       -73.87887396
  PAW double counting   =       263.82083246     -123.07410713
  entropy T*S    EENTRO =         0.00176260
  eigenvalues    EBANDS =        17.10853095
  atomic energy  EATOM  =       824.53081094
  Solvation  Ediel_sol  =         0.00000000
  ---------------------------------------------------
  free energy    TOTEN  =       -44.05680993 eV

  energy without entropy =      -44.05857253  energy(sigma->0) =      -44.05739746


--------------------------------------------------------------------------------------------------------




--------------------------------------- Iteration      1(   6)  ---------------------------------------


    POTLOK:  cpu time    0.0422: real time    0.0424
    SETDIJ:  cpu time    0.0527: real time    0.0527
    EDDIAG:  cpu time    0.0822: real time    0.0822
  RMM-DIIS:  cpu time    0.2725: real time    0.2725
    ORTHCH:  cpu time    0.0038: real time    0.0038
       DOS:  cpu time    0.0002: real time    0.0003
    CHARGE:  cpu time    0.0495: real time    0.0495
    MIXING:  cpu time    0.0009: real time    0.0009
    --------------------------------------------
      LOOP:  cpu time    0.5041: real time    0.5044

 eigenvalue-minimisations  :   480
 total energy-change (2. order) : 0.5614599E+00  (-0.2735553E-01)
 number of electron      32.0000008 magnetization 
 augmentation part       -1.8672461 magnetization 

 Broyden mixing:
  rms(total) = 0.36813E+00    rms(broyden)= 0.36813E+00
  rms(prec ) = 0.68669E+00
  weight for this iteration     100.00

 eigenvalues of (default mixing * dielectric matrix)
  average eigenvalue GAMMA=   2.4516
  2.4516

 Free energy of the ion-electron system (eV)
  ---------------------------------------------------
  alpha Z        PSCENC =        13.91167590
  Ewald energy   TEWEN  =      -924.44691595
  -Hartree energ DENC   =       -48.23057297
  -exchange      EXHF   =         0.00000000
  -V(xc)+E(xc)   XCENC  =       -72.89490627
  PAW double counting   =       281.67971229     -141.43075865
  entropy T*S    EENTRO =         0.00176021
  eigenvalues    EBANDS =        23.38384443
  atomic energy  EATOM  =       824.53081094
  Solvation  Ediel_sol  =         0.00000000
  ---------------------------------------------------
  free energy    TOTEN  =       -43.49535007 eV

  energy without entropy =      -43.49711028  energy(sigma->0) =      -43.49593681


--------------------------------------------------------------------------------------------------------




--------------------------------------- Iteration      1(   7)  ---------------------------------------


    POTLOK:  cpu time    0.0423: real time    0.0425
    SETDIJ:  cpu time    0.0519: real time    0.0519
    EDDIAG:  cpu time    0.0760: real time    0.0761
  RMM-DIIS:  cpu time    0.2851: real time    0.2851
    ORTHCH:  cpu time    0.0039: real time    0.0039
       DOS:  cpu time    0.0003: real time    0.0005
    CHARGE:  cpu time    0.0474: real time    0.0474
    MIXING:  cpu time    0.0009: real time    0.0009
    --------------------------------------------
      LOOP:  cpu time    0.5079: real time    0.5083

 eigenvalue-minimisations  :   506
 total energy-change (2. order) : 0.2523468E+00  (-0.6390710E-01)
 number of electron      32.0000008 magnetization 
 augmentation part       -1.8343052 magnetization 

 Broyden mixing:
  rms(total) = 0.31649E-01    rms(broyden)= 0.31649E-01
  rms(prec ) = 0.55032E-01
  weight for this iteration     100.00

 eigenvalues of (default mixing * dielectric matrix)
  average eigenvalue GAMMA=   2.7280
  2.7280  2.7280

 Free energy of the ion-electron system (eV)
  ---------------------------------------------------
  alpha Z        PSCENC =        13.91167590
  Ewald energy   TEWEN  =      -924.44691595
  -Hartree energ DENC   =       -58.35627210
  -exchange      EXHF   =         0.00000000
  -V(xc)+E(xc)   XCENC  =       -71.26395667
  PAW double counting   =       306.06900554     -166.47905615
  entropy T*S    EENTRO =         0.00234980
  eigenvalues    EBANDS =        32.78935542
  atomic energy  EATOM  =       824.53081094
  Solvation  Ediel_sol  =         0.00000000
  ---------------------------------------------------
  free energy    TOTEN  =       -43.24300329 eV

  energy without entropy =      -43.24535309  energy(sigma->0) =      -43.24378656


--------------------------------------------------------------------------------------------------------




--------------------------------------- Iteration      1(   8)  ---------------------------------------


    POTLOK:  cpu time    0.0414: real time    0.0415
    SETDIJ:  cpu time    0.0520: real time    0.0520
    EDDIAG:  cpu time    0.0763: real time    0.0763
  RMM-DIIS:  cpu time    0.2871: real time    0.2871
    ORTHCH:  cpu time    0.0039: real time    0.0039
       DOS:  cpu time    0.0002: real time    0.0004
    CHARGE:  cpu time    0.0479: real time    0.0479
    MIXING:  cpu time    0.0010: real time    0.0010
    --------------------------------------------
      LOOP:  cpu time    0.5098: real time    0.5101

 eigenvalue-minimisations  :   505
 total energy-change (2. order) :-0.9044745E-02  (-0.5695414E-02)
 number of electron      32.0000008 magnetization 
 augmentation part       -1.8397417 magnetization 

 Broyden mixing:
  rms(total) = 0.86980E-02    rms(broyden)= 0.86980E-02
  rms(prec ) = 0.21120E-01
  weight for this iteration     100.00

 eigenvalues of (default mixing * dielectric matrix)
  average eigenvalue GAMMA=   2.1187
  2.7111  1.8225  1.8225

 Free energy of the ion-electron system (eV)
  ---------------------------------------------------
  alpha Z        PSCENC =        13.91167590
  Ewald energy   TEWEN  =      -924.44691595
  -Hartree energ DENC   =       -57.82430012
  -exchange      EXHF   =         0.00000000
  -V(xc)+E(xc)   XCENC  =       -71.27640514
  PAW double counting   =       300.80920243     -161.05428703
  entropy T*S    EENTRO =         0.00205896
  eigenvalues    EBANDS =        32.09611198
  atomic energy  EATOM  =       824.53081094
  Solvation  Ediel_sol  =         0.00000000
  ---------------------------------------------------
  free energy    TOTEN  =       -43.25204804 eV

  energy without entropy =      -43.25410700  energy(sigma->0) =      -43.25273436


--------------------------------------------------------------------------------------------------------




--------------------------------------- Iteration      1(   9)  ---------------------------------------


    POTLOK:  cpu time    0.0412: real time    0.0414
    SETDIJ:  cpu time    0.0519: real time    0.0519
    EDDIAG:  cpu time    0.0764: real time    0.0764
  RMM-DIIS:  cpu time    0.3025: real time    0.3025
    ORTHCH:  cpu time    0.0040: real time    0.0040
       DOS:  cpu time    0.0003: real time    0.0004
    CHARGE:  cpu time    0.0482: real time    0.0482
    MIXING:  cpu time    0.0009: real time    0.0009
    --------------------------------------------
      LOOP:  cpu time    0.5254: real time    0.5257

 eigenvalue-minimisations  :   544
 total energy-change (2. order) :-0.1229271E-02  (-0.1554549E-02)
 number of electron      32.0000008 magnetization 
 augmentation part       -1.8378524 magnetization 

 Broyden mixing:
  rms(total) = 0.86084E-02    rms(broyden)= 0.86084E-02
  rms(prec ) = 0.14302E-01
  weight for this iteration     100.00

 eigenvalues of (default mixing * dielectric matrix)
  average eigenvalue GAMMA=   2.1361
  2.9151  2.9151  0.9021  1.8120

 Free energy of the ion-electron system (eV)
  ---------------------------------------------------
  alpha Z        PSCENC =        13.91167590
  Ewald energy   TEWEN  =      -924.44691595
  -Hartree energ DENC   =       -58.24436130
  -exchange      EXHF   =         0.00000000
  -V(xc)+E(xc)   XCENC  =       -71.21896332
  PAW double counting   =       302.17502607     -162.45995550
  entropy T*S    EENTRO =         0.00211356
  eigenvalues    EBANDS =        32.49729231
  atomic energy  EATOM  =       824.53081094
  Solvation  Ediel_sol  =         0.00000000
  ---------------------------------------------------
  free energy    TOTEN  =       -43.25327731 eV

  energy without entropy =      -43.25539087  energy(sigma->0) =      -43.25398183


--------------------------------------------------------------------------------------------------------




--------------------------------------- Iteration      1(  10)  ---------------------------------------


    POTLOK:  cpu time    0.0411: real time    0.0413
    SETDIJ:  cpu time    0.0520: real time    0.0520
    EDDIAG:  cpu time    0.0759: real time    0.0759
  RMM-DIIS:  cpu time    0.2864: real time    0.2864
    ORTHCH:  cpu time    0.0038: real time    0.0038
       DOS:  cpu time    0.0002: real time    0.0004
    CHARGE:  cpu time    0.0478: real time    0.0478
    MIXING:  cpu time    0.0009: real time    0.0009
    --------------------------------------------
      LOOP:  cpu time    0.5081: real time    0.5085

 eigenvalue-minimisations  :   517
 total energy-change (2. order) :-0.4093326E-03  (-0.3657951E-03)
 number of electron      32.0000008 magnetization 
 augmentation part       -1.8396718 magnetization 

 Broyden mixing:
  rms(total) = 0.51664E-02    rms(broyden)= 0.51664E-02
  rms(prec ) = 0.10618E-01
  weight for this iteration     100.00

 eigenvalues of (default mixing * dielectric matrix)
  average eigenvalue GAMMA=   2.0434
  3.2958  2.7168  2.2569  1.0913  0.8561

 Free energy of the ion-electron system (eV)
  ---------------------------------------------------
  alpha Z        PSCENC =        13.91167590
  Ewald energy   TEWEN  =      -924.44691595
  -Hartree energ DENC   =       -57.95783970
  -exchange      EXHF   =         0.00000000
  -V(xc)+E(xc)   XCENC  =       -71.25396605
  PAW double counting   =       301.13147466     -161.38597731
  entropy T*S    EENTRO =         0.00204391
  eigenvalues    EBANDS =        32.21500697
  atomic energy  EATOM  =       824.53081094
  Solvation  Ediel_sol  =         0.00000000
  ---------------------------------------------------
  free energy    TOTEN  =       -43.25368664 eV

  energy without entropy =      -43.25573055  energy(sigma->0) =      -43.25436794


--------------------------------------------------------------------------------------------------------




--------------------------------------- Iteration      1(  11)  ---------------------------------------


    POTLOK:  cpu time    0.0412: real time    0.0414
    SETDIJ:  cpu time    0.0519: real time    0.0519
    EDDIAG:  cpu time    0.0773: real time    0.0773
  RMM-DIIS:  cpu time    0.3165: real time    0.3165
    ORTHCH:  cpu time    0.0040: real time    0.0040
       DOS:  cpu time    0.0002: real time    0.0003
    CHARGE:  cpu time    0.0490: real time    0.0490
    MIXING:  cpu time    0.0011: real time    0.0011
    --------------------------------------------
      LOOP:  cpu time    0.5413: real time    0.5417

 eigenvalue-minimisations  :   557
 total energy-change (2. order) :-0.7633211E-06  (-0.1095901E-03)
 number of electron      32.0000008 magnetization 
 augmentation part       -1.8391700 magnetization 

 Broyden mixing:
  rms(total) = 0.49205E-03    rms(broyden)= 0.49197E-03
  rms(prec ) = 0.70580E-03
  weight for this iteration     100.00

 eigenvalues of (default mixing * dielectric matrix)
  average eigenvalue GAMMA=   2.0497
  3.7173  2.8037  2.3392  1.6713  0.8835  0.8835

 Free energy of the ion-electron system (eV)
  ---------------------------------------------------
  alpha Z        PSCENC =        13.91167590
  Ewald energy   TEWEN  =      -924.44691595
  -Hartree energ DENC   =       -58.12618695
  -exchange      EXHF   =         0.00000000
  -V(xc)+E(xc)   XCENC  =       -71.23201997
  PAW double counting   =       301.77267584     -162.04633715
  entropy T*S    EENTRO =         0.00206911
  eigenvalues    EBANDS =        32.38054085
  atomic energy  EATOM  =       824.53081094
  Solvation  Ediel_sol  =         0.00000000
  ---------------------------------------------------
  free energy    TOTEN  =       -43.25368740 eV

  energy without entropy =      -43.25575651  energy(sigma->0) =      -43.25437711


--------------------------------------------------------------------------------------------------------




--------------------------------------- Iteration      1(  12)  ---------------------------------------


    POTLOK:  cpu time    0.0414: real time    0.0415
    SETDIJ:  cpu time    0.0519: real time    0.0519
    EDDIAG:  cpu time    0.0767: real time    0.0767
  RMM-DIIS:  cpu time    0.3257: real time    0.3258
    ORTHCH:  cpu time    0.0039: real time    0.0039
       DOS:  cpu time    0.0002: real time    0.0004
    CHARGE:  cpu time    0.0474: real time    0.0474
    MIXING:  cpu time    0.0010: real time    0.0010
    --------------------------------------------
      LOOP:  cpu time    0.5481: real time    0.5485

 eigenvalue-minimisations  :   576
 total energy-change (2. order) :-0.2576258E-04  (-0.2410579E-04)
 number of electron      32.0000008 magnetization 
 augmentation part       -1.8393844 magnetization 

 Broyden mixing:
  rms(total) = 0.47765E-03    rms(broyden)= 0.47762E-03
  rms(prec ) = 0.69072E-03
  weight for this iteration     100.00

 eigenvalues of (default mixing * dielectric matrix)
  average eigenvalue GAMMA=   2.0715
  4.4268  2.6618  2.1817  1.6550  1.6550  0.8485  1.0719

 Free energy of the ion-electron system (eV)
  ---------------------------------------------------
  alpha Z        PSCENC =        13.91167590
  Ewald energy   TEWEN  =      -924.44691595
  -Hartree energ DENC   =       -58.12914686
  -exchange      EXHF   =         0.00000000
  -V(xc)+E(xc)   XCENC  =       -71.23212446
  PAW double counting   =       301.79169447     -162.06630780
  entropy T*S    EENTRO =         0.00206929
  eigenvalues    EBANDS =        32.38453131
  atomic energy  EATOM  =       824.53081094
  Solvation  Ediel_sol  =         0.00000000
  ---------------------------------------------------
  free energy    TOTEN  =       -43.25371317 eV

  energy without entropy =      -43.25578246  energy(sigma->0) =      -43.25440293


--------------------------------------------------------------------------------------------------------




--------------------------------------- Iteration      1(  13)  ---------------------------------------


    POTLOK:  cpu time    0.0411: real time    0.0413
    SETDIJ:  cpu time    0.0520: real time    0.0520
    EDDIAG:  cpu time    0.0771: real time    0.0771
  RMM-DIIS:  cpu time    0.2989: real time    0.2989
    ORTHCH:  cpu time    0.0039: real time    0.0039
       DOS:  cpu time    0.0002: real time    0.0004
    CHARGE:  cpu time    0.0482: real time    0.0482
    MIXING:  cpu time    0.0010: real time    0.0010
    --------------------------------------------
      LOOP:  cpu time    0.5224: real time    0.5228

 eigenvalue-minimisations  :   538
 total energy-change (2. order) :-0.4073892E-05  (-0.6185278E-05)
 number of electron      32.0000008 magnetization 
 augmentation part       -1.8394089 magnetization 

 Broyden mixing:
  rms(total) = 0.42261E-03    rms(broyden)= 0.42260E-03
  rms(prec ) = 0.77295E-03
  weight for this iteration     100.00

 eigenvalues of (default mixing * dielectric matrix)
  average eigenvalue GAMMA=   1.9062
  3.2988  3.1244  2.6157  2.3668  0.9120  0.8854  1.0233  1.0233

 Free energy of the ion-electron system (eV)
  ---------------------------------------------------
  alpha Z        PSCENC =        13.91167590
  Ewald energy   TEWEN  =      -924.44691595
  -Hartree energ DENC   =       -58.12958841
  -exchange      EXHF   =         0.00000000
  -V(xc)+E(xc)   XCENC  =       -71.23258753
  PAW double counting   =       301.75972918     -162.03403932
  entropy T*S    EENTRO =         0.00206648
  eigenvalues    EBANDS =        32.38513148
  atomic energy  EATOM  =       824.53081094
  Solvation  Ediel_sol  =         0.00000000
  ---------------------------------------------------
  free energy    TOTEN  =       -43.25371724 eV

  energy without entropy =      -43.25578372  energy(sigma->0) =      -43.25440607


--------------------------------------------------------------------------------------------------------




--------------------------------------- Iteration      1(  14)  ---------------------------------------


    POTLOK:  cpu time    0.0411: real time    0.0412
    SETDIJ:  cpu time    0.0520: real time    0.0520
    EDDIAG:  cpu time    0.0765: real time    0.0765
  RMM-DIIS:  cpu time    0.2799: real time    0.2799
    ORTHCH:  cpu time    0.0039: real time    0.0039
       DOS:  cpu time    0.0003: real time    0.0005
    CHARGE:  cpu time    0.0483: real time    0.0483
    MIXING:  cpu time    0.0011: real time    0.0011
    --------------------------------------------
      LOOP:  cpu time    0.5030: real time    0.5035

 eigenvalue-minimisations  :   493
 total energy-change (2. order) :-0.1054985E-05  (-0.1100479E-05)
 number of electron      32.0000008 magnetization 
 augmentation part       -1.8394589 magnetization 

 Broyden mixing:
  rms(total) = 0.22461E-03    rms(broyden)= 0.22461E-03
  rms(prec ) = 0.42001E-03
  weight for this iteration     100.00

 eigenvalues of (default mixing * dielectric matrix)
  average eigenvalue GAMMA=   1.7096
  3.3920  3.0180  2.6067  2.3672  0.9048  0.9048  1.0096  1.0096  0.1738

 Free energy of the ion-electron system (eV)
  ---------------------------------------------------
  alpha Z        PSCENC =        13.91167590
  Ewald energy   TEWEN  =      -924.44691595
  -Hartree energ DENC   =       -58.12474522
  -exchange      EXHF   =         0.00000000
  -V(xc)+E(xc)   XCENC  =       -71.23333715
  PAW double counting   =       301.73406476     -162.00758077
  entropy T*S    EENTRO =         0.00206782
  eigenvalues    EBANDS =        32.38024139
  atomic energy  EATOM  =       824.53081094
  Solvation  Ediel_sol  =         0.00000000
  ---------------------------------------------------
  free energy    TOTEN  =       -43.25371829 eV

  energy without entropy =      -43.25578611  energy(sigma->0) =      -43.25440757


--------------------------------------------------------------------------------------------------------




--------------------------------------- Iteration      1(  15)  ---------------------------------------


    POTLOK:  cpu time    0.0408: real time    0.0410
    SETDIJ:  cpu time    0.0520: real time    0.0520
    EDDIAG:  cpu time    0.0765: real time    0.0765
  RMM-DIIS:  cpu time    0.2250: real time    0.2250
    ORTHCH:  cpu time    0.0038: real time    0.0038
       DOS:  cpu time    0.0002: real time    0.0003
    --------------------------------------------
      LOOP:  cpu time    0.3983: real time    0.3986

 eigenvalue-minimisations  :   386
 total energy-change (2. order) :-0.8319580E-07  (-0.2559689E-06)
 number of electron      32.0000008 magnetization 
 augmentation part       -1.8394589 magnetization 

 Free energy of the ion-electron system (eV)
  ---------------------------------------------------
  alpha Z        PSCENC =        13.91167590
  Ewald energy   TEWEN  =      -924.44691595
  -Hartree energ DENC   =       -58.12275595
  -exchange      EXHF   =         0.00000000
  -V(xc)+E(xc)   XCENC  =       -71.23364872
  PAW double counting   =       301.72984848     -162.00331296
  entropy T*S    EENTRO =         0.00206764
  eigenvalues    EBANDS =        32.37851224
  atomic energy  EATOM  =       824.53081094
  Solvation  Ediel_sol  =         0.00000000
  ---------------------------------------------------
  free energy    TOTEN  =       -43.25371838 eV

  energy without entropy =      -43.25578602  energy(sigma->0) =      -43.25440759


--------------------------------------------------------------------------------------------------------




 average (electrostatic) potential at core
  the test charge radii are     0.9892
  (the norm of the test charge is              1.0000)
       1 -82.8660       2 -82.8660       3 -82.8660       4 -82.8660       5 -82.8660
       6 -82.8660       7 -82.8660       8 -82.8660



 E-fermi :   6.2801     XC(G=0):  -9.5410     alpha+bet :-12.3899

 Fermi energy:         6.2800973861

 k-point     1 :       0.0000    0.0000    0.0000
  band No.  band energies     occupation 
      1      -6.0202      2.00000
      2      -1.7518      2.00000
      3      -1.7518      2.00000
      4      -1.7518      2.00000
      5      -1.7518      2.00000
      6      -1.7518      2.00000
      7      -1.7518      2.00000
      8       3.2337      2.00000
      9       3.2337      2.00000
     10       3.2337      2.00000
     11       3.2337      2.00000
     12       3.2337      2.00000
     13       3.2337      2.00000
     14       6.1723      1.78157
     15       6.1723      1.78157
     16       6.1723      1.78157
     17       6.8136     -0.00106
     18       6.8136     -0.00106
     19       6.8136     -0.00106
     20       6.8136     -0.00106
     21       6.8136     -0.00106
     22       6.8136     -0.00106
     23       8.7507     -0.00000
     24       8.7507     -0.00000

 k-point     2 :       0.2000    0.0000    0.0000
  band No.  band energies     occupation 
      1      -5.8403      2.00000
      2      -3.2271      2.00000
      3      -1.6939      2.00000
      4      -1.6939      2.00000
      5      -1.6939      2.00000
      6      -1.6939      2.00000
      7      -0.0643      2.00000
      8       2.8005      2.00000
      9       2.8005      2.00000
     10       2.8005      2.00000
     11       2.8005      2.00000
     12       3.3952      2.00000
     13       3.3952      2.00000
     14       5.2631      2.00000
     15       5.5731      2.00001
     16       5.5731      2.00001
     17       6.6930     -0.01290
     18       7.4178     -0.00000
     19       7.6972     -0.00000
     20       7.6972     -0.00000
     21       7.6972     -0.00000
     22       7.6972     -0.00000
     23       8.3600     -0.00000
     24       9.5701     -0.00000

 k-point     3 :       0.4000    0.0000    0.0000
  band No.  band energies     occupation 
      1      -5.3043      2.00000
      2      -4.4251      2.00000
      3      -1.5911      2.00000
      4      -1.5911      2.00000
      5      -1.5911      2.00000
      6      -1.5911      2.00000
      7       1.7452      2.00000
      8       2.2594      2.00000
      9       2.2594      2.00000
     10       2.2594      2.00000
     11       2.2594      2.00000
     12       3.5722      2.00000
     13       3.8722      2.00000
     14       3.8722      2.00000
     15       4.6336      2.00000
     16       4.6336      2.00000
     17       6.9913     -0.00001
     18       7.6138     -0.00000
     19       8.5460     -0.00000
     20       9.6114     -0.00000
     21       9.6114     -0.00000
     22       9.6114     -0.00000
     23       9.6114     -0.00000
     24      10.1065     -0.00000

 k-point     4 :       0.2000    0.2000    0.0000
  band No.  band energies     occupation 
      1      -5.6624      2.00000
      2      -3.1033      2.00000
      3      -3.1033      2.00000
      4      -1.9733      2.00000
      5      -1.3659      2.00000
      6      -0.1502      2.00000
      7      -0.1502      2.00000
      8       1.9604      2.00000
      9       2.8465      2.00000
     10       2.8465      2.00000
     11       3.1808      2.00000
     12       3.1808      2.00000
     13       3.5185      2.00000
     14       4.1384      2.00000
     15       4.9674      2.00000
     16       5.9949      2.06157
     17       7.1447     -0.00000
     18       7.6280     -0.00000
     19       7.6280     -0.00000
     20       8.2098     -0.00000
     21       8.2098     -0.00000
     22       9.1187     -0.00000
     23       9.2738     -0.00000
     24       9.3257     -0.00000

 k-point     5 :       0.4000    0.2000    0.0000
  band No.  band energies     occupation 
      1      -5.1337      2.00000
      2      -4.2699      2.00000
      3      -2.7669      2.00000
      4      -2.3361      2.00000
      5      -0.9257      2.00000
      6      -0.4576      2.00000
      7       1.3722      2.00000
      8       1.6776      2.00000
      9       2.0531      2.00000
     10       2.7834      2.00000
     11       3.0718      2.00000
     12       3.2705      2.00000
     13       3.3673      2.00000
     14       4.0185      2.00000
     15       4.0204      2.00000
     16       5.1797      2.00000
     17       7.9370     -0.00000
     18       8.3194     -0.00000
     19       8.5291     -0.00000
     20       9.2163     -0.00000
     21       9.5887     -0.00000
     22       9.9228     -0.00000
     23      10.0432     -0.00000
     24      10.7165     -0.00000

 k-point     6 :       0.4000    0.4000    0.0000
  band No.  band energies     occupation 
      1      -4.6299      2.00000
      2      -3.8204      2.00000
      3      -3.8204      2.00000
      4      -3.1341      2.00000
      5      -0.2180      2.00000
      6       0.5885      2.00000
      7       0.5885      2.00000
      8       1.6557      2.00000
      9       1.7576      2.00000
     10       2.3613      2.00000
     11       2.3613      2.00000
     12       3.0689      2.00000
     13       4.3034      2.00000
     14       4.3265      2.00000
     15       4.3265      2.00000
     16       5.3073      2.00000
     17       8.0630     -0.00000
     18       9.1342     -0.00000
     19       9.3864     -0.00000
     20       9.3864     -0.00000
     21       9.8697     -0.00000
     22       9.8697     -0.00000
     23      10.2158     -0.00000
     24      10.5508     -0.00000

 k-point     7 :       0.2000    0.2000    0.2000
  band No.  band energies     occupation 
      1      -5.4873      2.00000
      2      -3.0156      2.00000
      3      -3.0156      2.00000
      4      -3.0156      2.00000
      5      -0.3283      2.00000
      6      -0.3283      2.00000
      7      -0.3283      2.00000
      8       2.3612      2.00000
      9       2.3612      2.00000
     10       2.3612      2.00000
     11       3.1239      2.00000
     12       3.6705      2.00000
     13       3.6705      2.00000
     14       3.6705      2.00000
     15       5.5761      2.00001
     16       5.5761      2.00001
     17       7.3527     -0.00000
     18       7.3527     -0.00000
     19       7.3527     -0.00000
     20       8.5056     -0.00000
     21       9.5584     -0.00000
     22       9.5584     -0.00000
     23       9.5628     -0.00000
     24       9.5696     -0.00000

 k-point     8 :       0.4000    0.2000    0.2000
  band No.  band energies     occupation 
      1      -4.9682      2.00000
      2      -4.1267      2.00000
      3      -2.8460      2.00000
      4      -2.8460      2.00000
      5      -0.6661      2.00000
      6      -0.6661      2.00000
      7       0.7968      2.00000
      8       1.8995      2.00000
      9       2.2190      2.00000
     10       2.2190      2.00000
     11       3.4793      2.00000
     12       3.6180      2.00000
     13       3.6180      2.00000
     14       4.1142      2.00000
     15       4.7994      2.00000
     16       4.8776      2.00000
     17       7.9263     -0.00000
     18       8.5043     -0.00000
     19       8.5043     -0.00000
     20       8.5961     -0.00000
     21       9.6493     -0.00000
     22      10.2770     -0.00000
     23      10.5180     -0.00000
     24      10.5862     -0.00000

 k-point     9 :       0.4000    0.4000    0.2000
  band No.  band energies     occupation 
      1      -4.4836      2.00000
      2      -3.7278      2.00000
      3      -3.7278      2.00000
      4      -3.2040      2.00000
      5      -0.6534      2.00000
      6      -0.0807      2.00000
      7      -0.0807      2.00000
      8       0.7885      2.00000
      9       2.6449      2.00000
     10       3.1978      2.00000
     11       3.1978      2.00000
     12       4.0752      2.00000
     13       4.4091      2.00000
     14       4.4237      2.00000
     15       4.4237      2.00000
     16       5.2414      2.00000
     17       8.2262     -0.00000
     18       8.7030     -0.00000
     19       8.9723     -0.00000
     20       8.9723     -0.00000
     21       9.4749     -0.00000
     22       9.4749     -0.00000
     23       9.8001     -0.00000
     24       9.8832     -0.00000

 k-point    10 :       0.4000    0.4000    0.4000
  band No.  band energies     occupation 
      1      -4.0768      2.00000
      2      -3.5483      2.00000
      3      -3.5483      2.00000
      4      -3.5483      2.00000
      5      -0.7981      2.00000
      6      -0.7981      2.00000
      7      -0.7981      2.00000
      8      -0.2286      2.00000
      9       4.1556      2.00000
     10       4.1556      2.00000
     11       4.1556      2.00000
     12       4.6880      2.00000
     13       4.6880      2.00000
     14       4.6880      2.00000
     15       5.0186      2.00000
     16       5.0186      2.00000
     17       7.9135     -0.00000
     18       8.4073     -0.00000
     19       8.4073     -0.00000
     20       8.4073     -0.00000
     21       9.4990     -0.00000
     22       9.4990     -0.00000
     23       9.5103     -0.00000
     24       9.5791     -0.00000


--------------------------------------------------------------------------------------------------------


 soft charge-density along one line, spin component           1
         0         1         2         3         4         5         6         7         8         9
 total charge-density along one line

 pseudopotential strength for first ion, spin component:           1
 18.375  -0.001   0.000  -0.000   0.000   0.000   0.000  -0.000
 -0.001   0.006  -0.000   0.000  -0.000  -0.000  -0.000   0.000
  0.000  -0.000   4.175   0.000  -0.000  -0.005  -0.000   0.000
 -0.000   0.000   0.000   4.175   0.000  -0.000  -0.005  -0.000
  0.000  -0.000  -0.000   0.000   4.175   0.000  -0.000  -0.005
  0.000  -0.000  -0.005  -0.000   0.000   0.005   0.000  -0.000
  0.000  -0.000  -0.000  -0.005  -0.000   0.000   0.005   0.000
 -0.000   0.000   0.000  -0.000  -0.005  -0.000   0.000   0.005
 total augmentation occupancy for first ion, spin component:           1
  1.487  -0.837  -0.000   0.000  -0.000  -0.000  -0.000   0.000
 -0.837   0.856   0.000   0.000   0.000   0.000  -0.000   0.000
 -0.000  -0.000   1.054   0.000   0.000  -0.591  -0.000  -0.000
  0.000  -0.000   0.000   1.054   0.000  -0.000  -0.591  -0.000
 -0.000  -0.000   0.000   0.000   1.054  -0.000  -0.000  -0.591
  0.000   0.000  -0.591  -0.000  -0.000   0.391   0.000   0.000
 -0.000  -0.000  -0.000  -0.591  -0.000   0.000   0.391   0.000
 -0.000  -0.000  -0.000  -0.000  -0.591   0.000   0.000   0.391


------------------------ aborting loop because EDIFF is reached ----------------------------------------


    CHARGE:  cpu time    0.0485: real time    0.0485
    FORLOC:  cpu time    0.0022: real time    0.0022
    FORNL :  cpu time    0.0939: real time    0.0940
    STRESS:  cpu time    0.1715: real time    0.1715
    FORCOR:  cpu time    0.0388: real time    0.0388
    FORHAR:  cpu time    0.0101: real time    0.0101
    MIXING:  cpu time    0.0010: real time    0.0010
    OFIELD:  cpu time    0.0000: real time    0.0000

  FORCE on cell =-STRESS in cart. coord.  units (eV):
  Direction    XX          YY          ZZ          XY          YZ          ZX
  --------------------------------------------------------------------------------------
  Alpha Z    13.91168    13.91168    13.91168
  Ewald    -308.14950  -308.14950  -308.14950     0.00000    -0.00000    -0.00000
  Hartree    19.37190    19.37190    19.37190     0.00000    -0.00000    -0.00000
  E(xc)    -102.27387  -102.27387  -102.27387    -0.00000    -0.00000    -0.00000
  Local    -115.05783  -115.05783  -115.05783    -0.00000    -0.00000     0.00000
  n-local   314.09478   317.13839   310.84038    -3.32765    -2.00794    -1.63262
  augment   -46.67131   -46.67131   -46.67131     0.00000    -0.00000    -0.00000
  Kinetic   223.09575   234.04891   233.19251    -4.23817    -4.25224    -2.68454
  Fock        0.00000     0.00000     0.00000     0.00000     0.00000     0.00000
  -------------------------------------------------------------------------------------
  Total       5.26798     5.26798     5.26798     0.00000     0.00000    -0.00000
  in kB      54.50050    54.50050    54.50050     0.00000     0.00000    -0.00000
  external pressure =       54.50 kB  Pullay stress =        0.00 kB


 VOLUME and BASIS-vectors are now :
 -----------------------------------------------------------------------------
  energy-cutoff  :      520.00
  volume of cell :      154.87
      direct lattice vectors                 reciprocal lattice vectors
     5.370129808  0.000000000  0.000000000     0.186215238 -0.000000000  0.000000000
     0.000000000  5.370129808  0.000000000     0.000000000  0.186215238  0.000000000
     0.000000000  0.000000000  5.370129808    -0.000000000 -0.000000000  0.186215238

  length of vectors
     5.370129808  5.370129808  5.370129808     0.186215238  0.186215238  0.186215238


 FORCES acting on ions
    electron-ion (+dipol)            ewald-force                    non-local-force                 convergence-correction
 -----------------------------------------------------------------------------------------------
   -.198E-14 0.691E-13 -.365E-12   0.711E-14 0.107E-13 -.142E-13   -.142E-16 0.291E-16 -.139E-16   -.243E-14 0.821E-15 -.327E-14
   0.159E-13 0.578E-14 0.146E-13   0.200E-13 0.143E-13 0.107E-13   0.194E-16 -.507E-16 0.269E-16   0.153E-14 -.136E-15 -.257E-14
   -.331E-14 -.495E-12 0.237E-12   0.000E+00 -.355E-14 -.284E-13   -.367E-16 -.694E-17 0.139E-16   -.238E-14 0.782E-15 -.300E-14
   0.165E-13 -.923E-15 0.649E-14   0.145E-13 0.912E-17 -.343E-14   0.393E-16 -.477E-17 -.156E-16   0.157E-14 0.623E-15 -.281E-14
   -.662E-14 0.127E-12 0.294E-13   -.107E-13 0.000E+00 0.355E-14   -.375E-17 0.395E-16 -.382E-16   -.237E-14 0.790E-15 -.277E-14
   0.185E-13 -.186E-12 -.120E-12   -.223E-16 0.439E-14 0.285E-13   0.107E-16 -.239E-16 0.477E-16   -.205E-14 0.966E-16 -.282E-14
   -.860E-14 0.584E-13 0.164E-13   -.213E-13 -.142E-13 -.107E-13   0.145E-17 -.694E-17 -.694E-17   -.247E-14 0.845E-15 -.317E-14
   0.106E-13 -.116E-14 -.354E-12   -.107E-13 -.106E-13 0.142E-13   0.115E-17 0.217E-17 0.520E-17   -.196E-14 0.692E-15 -.252E-14
 -----------------------------------------------------------------------------------------------
   0.410E-13 -.423E-12 -.534E-12   -.106E-14 0.979E-15 0.273E-15   0.173E-16 -.226E-16 0.191E-16   -.105E-13 0.451E-14 -.229E-13


 POSITION                                       TOTAL-FORCE (eV/Angst)
 -----------------------------------------------------------------------------------
      4.02760      4.02760      1.34253        -0.000000      0.000000     -0.000000
      0.00000      2.68506      2.68506         0.000000     -0.000000      0.000000
      4.02760      1.34253      4.02760         0.000000      0.000000     -0.000000
      0.00000      0.00000      0.00000        -0.000000     -0.000000      0.000000
      1.34253      4.02760      4.02760        -0.000000      0.000000      0.000000
      2.68506      2.68506      0.00000         0.000000     -0.000000     -0.000000
      1.34253      1.34253      1.34253         0.000000      0.000000     -0.000000
      2.68506      0.00000      2.68506        -0.000000     -0.000000      0.000000
 -----------------------------------------------------------------------------------
    total drift:                                0.000000     -0.000000     -0.000000


--------------------------------------------------------------------------------------------------------



  FREE ENERGIE OF THE ION-ELECTRON SYSTEM (eV)
  ---------------------------------------------------
  free  energy   TOTEN  =       -43.25371838 eV

  energy  without entropy=      -43.25578602  energy(sigma->0) =      -43.25440759



--------------------------------------------------------------------------------------------------------


    POTLOK:  cpu time    0.0898: real time    0.0898


--------------------------------------------------------------------------------------------------------


 stress matrix after NEB project (eV)
      5.26798      0.00000     -0.00000
      0.00000      5.26798      0.00000
      0.00000      0.00000      5.26798
  FORCES: max atom, RMS     0.000000    0.000000
  FORCE total and by dimension    0.000000    0.000000
  Stress total and by dimension    9.124411    5.267981
     LOOP+:  cpu time    7.7250: real time    7.7337
    4ORBIT:  cpu time    0.0000: real time    0.0000

 total amount of memory used by VASP MPI-rank0    50814. kBytes
=======================================================================

   base      :      30000. kBytes
   nonl-proj :       3216. kBytes
   fftplans  :       4661. kBytes
   grid      :       8832. kBytes
   one-center:         24. kBytes
   wavefun   :       4081. kBytes

  
  
 General timing and accounting informations for this job:
 ========================================================
  
                  Total CPU time used (sec):        8.455
                            User time (sec):        7.979
                          System time (sec):        0.476
                         Elapsed time (sec):        8.524
  
                   Maximum memory used (kb):       58060.
                   Average memory used (kb):          N/A
  
                          Minor page faults:        72502
                          Major page faults:          401
                 Voluntary context switches:          863
