   1   1   1   0
  0.1658294E+02  0.2862368E-09  0.2862368E-09  0.2862368E-09  0.5000000E-15
   1.0000000000000000E-004
  CAR 
 unknown system                          
    116.26508173     -8.83975429  301      7.96647566      1.00000000
     -8.840  0.0000E+00  0.0000E+00  0.0000E+00  0.0000E+00
     -8.423  0.0000E+00  0.0000E+00  0.0000E+00  0.0000E+00
     -8.006  0.0000E+00  0.0000E+00  0.0000E+00  0.0000E+00
     -7.589  0.0000E+00  0.0000E+00  0.0000E+00  0.0000E+00
     -7.172  0.0000E+00  0.0000E+00  0.0000E+00  0.0000E+00
     -6.755  0.0000E+00  0.0000E+00  0.0000E+00  0.0000E+00
     -6.338  0.0000E+00  0.0000E+00  0.0000E+00  0.0000E+00
     -5.921  0.0000E+00  0.0000E+00  0.0000E+00  0.0000E+00
     -5.504  0.0000E+00  0.0000E+00  0.0000E+00  0.0000E+00
     -5.087  0.0000E+00  0.0000E+00  0.0000E+00  0.0000E+00
     -4.670  0.0000E+00  0.0000E+00  0.0000E+00  0.0000E+00
     -4.253  0.0000E+00  0.0000E+00  0.0000E+00  0.0000E+00
     -3.836  0.0000E+00  0.0000E+00  0.0000E+00  0.0000E+00
     -3.419  0.0000E+00  0.0000E+00  0.0000E+00  0.0000E+00
     -3.002  0.2236E-01  0.2287E-01  0.1118E-02  0.1156E-02
     -2.585  0.4643E-01  0.4644E-01  0.1435E-01  0.1442E-01
     -2.167  0.5753E-01  0.5761E-01  0.3479E-01  0.3489E-01
     -1.750  0.6728E-01  0.6733E-01  0.6078E-01  0.6089E-01
     -1.333  0.7886E-01  0.7888E-01  0.9138E-01  0.9152E-01
     -0.916  0.8670E-01  0.8674E-01  0.1258E+00  0.1259E+00
     -0.499  0.9620E-01  0.9624E-01  0.1639E+00  0.1640E+00
     -0.082  0.1029E+00  0.1029E+00  0.2054E+00  0.2056E+00
      0.335  0.1104E+00  0.1105E+00  0.2499E+00  0.2501E+00
      0.752  0.1182E+00  0.1182E+00  0.2976E+00  0.2978E+00
      1.169  0.1241E+00  0.1241E+00  0.3481E+00  0.3483E+00
      1.586  0.1307E+00  0.1307E+00  0.4012E+00  0.4014E+00
      2.003  0.1377E+00  0.1377E+00  0.4571E+00  0.4573E+00
      2.420  0.1449E+00  0.1450E+00  0.5159E+00  0.5162E+00
      2.837  0.1594E+00  0.1594E+00  0.5793E+00  0.5796E+00
      3.254  0.1663E+00  0.1660E+00  0.6519E+00  0.6522E+00
      3.671  0.1486E+00  0.1487E+00  0.7166E+00  0.7168E+00
      4.088  0.1852E+00  0.1877E+00  0.7809E+00  0.7812E+00
      4.505  0.1655E+00  0.1656E+00  0.8492E+00  0.8494E+00
      4.922  0.1931E+00  0.1931E+00  0.9284E+00  0.9287E+00
      5.339  0.2120E+00  0.2118E+00  0.1010E+01  0.1010E+01
      5.756  0.1733E+00  0.1728E+00  0.1087E+01  0.1087E+01
      6.173  0.1709E+00  0.1707E+00  0.1156E+01  0.1157E+01
      6.590  0.1690E+00  0.1691E+00  0.1222E+01  0.1222E+01
      7.007  0.2210E+00  0.2214E+00  0.1300E+01  0.1301E+01
      7.424  0.2290E+00  0.2292E+00  0.1396E+01  0.1396E+01
      7.841  0.1701E+00  0.1701E+00  0.1479E+01  0.1479E+01
      8.258  0.2010E+00  0.2008E+00  0.1554E+01  0.1554E+01
      8.675  0.2042E+00  0.2043E+00  0.1638E+01  0.1638E+01
      9.092  0.2253E+00  0.2256E+00  0.1727E+01  0.1727E+01
      9.509  0.2216E+00  0.2217E+00  0.1821E+01  0.1821E+01
      9.926  0.2277E+00  0.2276E+00  0.1914E+01  0.1915E+01
     10.343  0.2154E+00  0.2155E+00  0.2005E+01  0.2006E+01
     10.760  0.2330E+00  0.2332E+00  0.2099E+01  0.2099E+01
     11.177  0.2434E+00  0.2434E+00  0.2198E+01  0.2199E+01
     11.594  0.2365E+00  0.2365E+00  0.2298E+01  0.2299E+01
     12.011  0.2468E+00  0.2469E+00  0.2399E+01  0.2399E+01
     12.428  0.2724E+00  0.2723E+00  0.2506E+01  0.2507E+01
     12.845  0.2660E+00  0.2661E+00  0.2617E+01  0.2618E+01
     13.262  0.2837E+00  0.2838E+00  0.2732E+01  0.2733E+01
     13.679  0.3053E+00  0.3054E+00  0.2856E+01  0.2857E+01
     14.096  0.2851E+00  0.2851E+00  0.2979E+01  0.2980E+01
     14.513  0.2736E+00  0.2735E+00  0.3097E+01  0.3098E+01
     14.930  0.2649E+00  0.2649E+00  0.3209E+01  0.3209E+01
     15.347  0.2691E+00  0.2691E+00  0.3320E+01  0.3321E+01
     15.764  0.2611E+00  0.2611E+00  0.3431E+01  0.3431E+01
     16.181  0.2609E+00  0.2610E+00  0.3539E+01  0.3540E+01
     16.598  0.2661E+00  0.2661E+00  0.3649E+01  0.3650E+01
     17.015  0.2609E+00  0.2609E+00  0.3759E+01  0.3760E+01
     17.432  0.2628E+00  0.2629E+00  0.3868E+01  0.3869E+01
     17.849  0.2741E+00  0.2742E+00  0.3980E+01  0.3980E+01
     18.266  0.2907E+00  0.2908E+00  0.4098E+01  0.4099E+01
     18.683  0.3038E+00  0.3041E+00  0.4220E+01  0.4221E+01
     19.100  0.3087E+00  0.3088E+00  0.4349E+01  0.4350E+01
     19.517  0.3610E+00  0.3616E+00  0.4486E+01  0.4487E+01
     19.934  0.3988E+00  0.3989E+00  0.4646E+01  0.4647E+01
     20.351  0.3574E+00  0.3561E+00  0.4813E+01  0.4814E+01
     20.768  0.3005E+00  0.3005E+00  0.4942E+01  0.4943E+01
     21.185  0.3028E+00  0.3027E+00  0.5068E+01  0.5068E+01
     21.602  0.2389E+00  0.2385E+00  0.5182E+01  0.5183E+01
     22.019  0.2474E+00  0.2483E+00  0.5279E+01  0.5280E+01
     22.436  0.3534E+00  0.3531E+00  0.5412E+01  0.5413E+01
     22.853  0.4125E+00  0.4130E+00  0.5570E+01  0.5571E+01
     23.270  0.3798E+00  0.3790E+00  0.5733E+01  0.5734E+01
     23.688  0.3238E+00  0.3232E+00  0.5880E+01  0.5881E+01
     24.105  0.2747E+00  0.2734E+00  0.6005E+01  0.6006E+01
     24.522  0.2995E+00  0.3001E+00  0.6114E+01  0.6115E+01
     24.939  0.4140E+00  0.4137E+00  0.6265E+01  0.6267E+01
     25.356  0.3828E+00  0.3828E+00  0.6430E+01  0.6431E+01
     25.773  0.3795E+00  0.3882E+00  0.6591E+01  0.6592E+01
     26.190  0.4459E+00  0.4455E+00  0.6763E+01  0.6765E+01
     26.607  0.3524E+00  0.3523E+00  0.6924E+01  0.6926E+01
     27.024  0.3658E+00  0.3681E+00  0.7070E+01  0.7071E+01
     27.441  0.3269E+00  0.3262E+00  0.7218E+01  0.7219E+01
     27.858  0.3167E+00  0.3169E+00  0.7347E+01  0.7348E+01
     28.275  0.3792E+00  0.3798E+00  0.7493E+01  0.7494E+01
     28.692  0.4131E+00  0.4134E+00  0.7660E+01  0.7661E+01
     29.109  0.4192E+00  0.4178E+00  0.7839E+01  0.7840E+01
     29.526  0.3653E+00  0.3656E+00  0.7994E+01  0.7995E+01
     29.943  0.4682E+00  0.4685E+00  0.8170E+01  0.8171E+01
     30.360  0.4018E+00  0.4015E+00  0.8354E+01  0.8355E+01
     30.777  0.3783E+00  0.3781E+00  0.8517E+01  0.8518E+01
     31.194  0.4157E+00  0.4161E+00  0.8678E+01  0.8680E+01
     31.611  0.4265E+00  0.4267E+00  0.8854E+01  0.8856E+01
     32.028  0.4403E+00  0.4427E+00  0.9034E+01  0.9036E+01
     32.445  0.4067E+00  0.4058E+00  0.9223E+01  0.9224E+01
     32.862  0.3677E+00  0.3675E+00  0.9379E+01  0.9381E+01
     33.279  0.3660E+00  0.3663E+00  0.9530E+01  0.9532E+01
     33.696  0.3105E+00  0.3098E+00  0.9675E+01  0.9676E+01
     34.113  0.2641E+00  0.2633E+00  0.9795E+01  0.9796E+01
     34.530  0.2647E+00  0.2646E+00  0.9902E+01  0.9903E+01
     34.947  0.1672E+00  0.1673E+00  0.9980E+01  0.9981E+01
     35.364  0.1705E+00  0.1706E+00  0.1005E+02  0.1005E+02
     35.781  0.1839E+00  0.1840E+00  0.1012E+02  0.1012E+02
     36.198  0.2093E+00  0.2095E+00  0.1020E+02  0.1021E+02
     36.615  0.2518E+00  0.2519E+00  0.1030E+02  0.1030E+02
     37.032  0.2642E+00  0.2643E+00  0.1041E+02  0.1041E+02
     37.449  0.2738E+00  0.2738E+00  0.1052E+02  0.1052E+02
     37.866  0.2875E+00  0.2875E+00  0.1064E+02  0.1064E+02
     38.283  0.3785E+00  0.3786E+00  0.1078E+02  0.1078E+02
     38.700  0.3276E+00  0.3282E+00  0.1093E+02  0.1093E+02
     39.117  0.3085E+00  0.3089E+00  0.1106E+02  0.1106E+02
     39.534  0.4225E+00  0.4230E+00  0.1122E+02  0.1122E+02
     39.951  0.5720E+00  0.5722E+00  0.1144E+02  0.1144E+02
     40.368  0.4811E+00  0.4807E+00  0.1166E+02  0.1166E+02
     40.785  0.4136E+00  0.4141E+00  0.1184E+02  0.1184E+02
     41.202  0.4609E+00  0.4607E+00  0.1202E+02  0.1202E+02
     41.619  0.5319E+00  0.5328E+00  0.1221E+02  0.1221E+02
     42.036  0.5540E+00  0.5536E+00  0.1243E+02  0.1243E+02
     42.453  0.4866E+00  0.4859E+00  0.1265E+02  0.1265E+02
     42.870  0.6331E+00  0.6333E+00  0.1287E+02  0.1287E+02
     43.287  0.4740E+00  0.4743E+00  0.1308E+02  0.1308E+02
     43.704  0.4469E+00  0.4470E+00  0.1327E+02  0.1327E+02
     44.121  0.4460E+00  0.4460E+00  0.1345E+02  0.1346E+02
     44.538  0.3640E+00  0.3600E+00  0.1362E+02  0.1363E+02
     44.955  0.3784E+00  0.3785E+00  0.1378E+02  0.1378E+02
     45.372  0.4593E+00  0.4597E+00  0.1396E+02  0.1396E+02
     45.789  0.6010E+00  0.6016E+00  0.1417E+02  0.1417E+02
     46.206  0.5362E+00  0.5360E+00  0.1441E+02  0.1441E+02
     46.623  0.4811E+00  0.4810E+00  0.1462E+02  0.1463E+02
     47.040  0.4493E+00  0.4492E+00  0.1481E+02  0.1481E+02
     47.457  0.4303E+00  0.4303E+00  0.1499E+02  0.1499E+02
     47.874  0.4290E+00  0.4292E+00  0.1517E+02  0.1517E+02
     48.291  0.4509E+00  0.4513E+00  0.1535E+02  0.1536E+02
     48.708  0.5136E+00  0.5134E+00  0.1556E+02  0.1556E+02
     49.125  0.5081E+00  0.5066E+00  0.1578E+02  0.1578E+02
     49.543  0.4189E+00  0.4184E+00  0.1597E+02  0.1597E+02
     49.960  0.4139E+00  0.4144E+00  0.1613E+02  0.1614E+02
     50.377  0.4038E+00  0.4033E+00  0.1631E+02  0.1631E+02
     50.794  0.4487E+00  0.4496E+00  0.1647E+02  0.1647E+02
     51.211  0.5826E+00  0.5828E+00  0.1669E+02  0.1669E+02
     51.628  0.5788E+00  0.5782E+00  0.1694E+02  0.1694E+02
     52.045  0.4136E+00  0.4139E+00  0.1714E+02  0.1715E+02
     52.462  0.4738E+00  0.4738E+00  0.1733E+02  0.1733E+02
     52.879  0.6048E+00  0.6050E+00  0.1755E+02  0.1755E+02
     53.296  0.6206E+00  0.6207E+00  0.1782E+02  0.1782E+02
     53.713  0.8150E+00  0.8151E+00  0.1810E+02  0.1811E+02
     54.130  0.8872E+00  0.8863E+00  0.1846E+02  0.1846E+02
     54.547  0.8816E+00  0.8817E+00  0.1886E+02  0.1887E+02
     54.964  0.1031E+01  0.1032E+01  0.1926E+02  0.1926E+02
     55.381  0.1164E+01  0.1190E+01  0.1976E+02  0.1976E+02
     55.798  0.1197E+01  0.1199E+01  0.2020E+02  0.2020E+02
     56.215  0.1564E+01  0.1595E+01  0.2085E+02  0.2086E+02
     56.632  0.1143E+01  0.1154E+01  0.2129E+02  0.2129E+02
     57.049  0.1049E+01  0.1043E+01  0.2182E+02  0.2182E+02
     57.466  0.7975E+00  0.7985E+00  0.2214E+02  0.2214E+02
     57.883  0.6821E+00  0.6810E+00  0.2246E+02  0.2247E+02
     58.300  0.5061E+00  0.5072E+00  0.2269E+02  0.2269E+02
     58.717  0.6426E+00  0.6434E+00  0.2293E+02  0.2293E+02
     59.134  0.1051E+01  0.1055E+01  0.2326E+02  0.2326E+02
     59.551  0.9068E+00  0.9045E+00  0.2370E+02  0.2370E+02
     59.968  0.5167E+00  0.5161E+00  0.2397E+02  0.2397E+02
     60.385  0.5271E+00  0.5263E+00  0.2418E+02  0.2418E+02
     60.802  0.5518E+00  0.5515E+00  0.2441E+02  0.2441E+02
     61.219  0.6048E+00  0.6053E+00  0.2464E+02  0.2464E+02
     61.636  0.8347E+00  0.8366E+00  0.2492E+02  0.2492E+02
     62.053  0.5397E+00  0.5396E+00  0.2521E+02  0.2521E+02
     62.470  0.5246E+00  0.5249E+00  0.2542E+02  0.2543E+02
     62.887  0.5402E+00  0.5407E+00  0.2564E+02  0.2564E+02
     63.304  0.5029E+00  0.5029E+00  0.2586E+02  0.2586E+02
     63.721  0.5199E+00  0.5191E+00  0.2609E+02  0.2609E+02
     64.138  0.4081E+00  0.4081E+00  0.2628E+02  0.2628E+02
     64.555  0.5045E+00  0.5046E+00  0.2646E+02  0.2646E+02
     64.972  0.5996E+00  0.5984E+00  0.2670E+02  0.2670E+02
     65.389  0.4473E+00  0.4474E+00  0.2690E+02  0.2690E+02
     65.806  0.5200E+00  0.5203E+00  0.2710E+02  0.2710E+02
     66.223  0.5724E+00  0.5724E+00  0.2733E+02  0.2734E+02
     66.640  0.4524E+00  0.4520E+00  0.2755E+02  0.2755E+02
     67.057  0.4126E+00  0.4125E+00  0.2773E+02  0.2773E+02
     67.474  0.4234E+00  0.4235E+00  0.2790E+02  0.2790E+02
     67.891  0.4704E+00  0.4702E+00  0.2809E+02  0.2809E+02
     68.308  0.4639E+00  0.4639E+00  0.2829E+02  0.2829E+02
     68.725  0.4091E+00  0.4089E+00  0.2847E+02  0.2847E+02
     69.142  0.4056E+00  0.4058E+00  0.2864E+02  0.2864E+02
     69.559  0.4425E+00  0.4426E+00  0.2882E+02  0.2882E+02
     69.976  0.5083E+00  0.5090E+00  0.2901E+02  0.2901E+02
     70.393  0.5057E+00  0.5056E+00  0.2922E+02  0.2923E+02
     70.810  0.4744E+00  0.4735E+00  0.2943E+02  0.2943E+02
     71.227  0.5631E+00  0.5631E+00  0.2965E+02  0.2965E+02
     71.644  0.5348E+00  0.5350E+00  0.2987E+02  0.2987E+02
     72.061  0.5859E+00  0.5851E+00  0.3011E+02  0.3011E+02
     72.478  0.5130E+00  0.5134E+00  0.3032E+02  0.3032E+02
     72.895  0.4788E+00  0.4782E+00  0.3055E+02  0.3055E+02
     73.312  0.3822E+00  0.3821E+00  0.3072E+02  0.3072E+02
     73.729  0.3784E+00  0.3785E+00  0.3088E+02  0.3088E+02
     74.146  0.4276E+00  0.4282E+00  0.3104E+02  0.3104E+02
     74.563  0.4682E+00  0.4681E+00  0.3123E+02  0.3123E+02
     74.980  0.4216E+00  0.4215E+00  0.3142E+02  0.3142E+02
     75.398  0.4127E+00  0.4128E+00  0.3159E+02  0.3159E+02
     75.815  0.5065E+00  0.5068E+00  0.3179E+02  0.3179E+02
     76.232  0.5263E+00  0.5267E+00  0.3200E+02  0.3200E+02
     76.649  0.5512E+00  0.5511E+00  0.3223E+02  0.3223E+02
     77.066  0.5494E+00  0.5493E+00  0.3246E+02  0.3246E+02
     77.483  0.4528E+00  0.4530E+00  0.3266E+02  0.3266E+02
     77.900  0.6444E+00  0.6405E+00  0.3289E+02  0.3290E+02
     78.317  0.5869E+00  0.5869E+00  0.3314E+02  0.3314E+02
     78.734  0.6511E+00  0.6509E+00  0.3340E+02  0.3340E+02
     79.151  0.4855E+00  0.4702E+00  0.3363E+02  0.3363E+02
     79.568  0.4445E+00  0.4449E+00  0.3380E+02  0.3380E+02
     79.985  0.5433E+00  0.5458E+00  0.3400E+02  0.3400E+02
     80.402  0.6468E+00  0.6488E+00  0.3424E+02  0.3424E+02
     80.819  0.6927E+00  0.6925E+00  0.3455E+02  0.3455E+02
     81.236  0.6225E+00  0.6225E+00  0.3481E+02  0.3481E+02
     81.653  0.5311E+00  0.5311E+00  0.3505E+02  0.3505E+02
     82.070  0.6021E+00  0.6029E+00  0.3529E+02  0.3529E+02
     82.487  0.5548E+00  0.5544E+00  0.3553E+02  0.3553E+02
     82.904  0.4968E+00  0.4970E+00  0.3574E+02  0.3575E+02
     83.321  0.5179E+00  0.5182E+00  0.3596E+02  0.3596E+02
     83.738  0.5437E+00  0.5437E+00  0.3618E+02  0.3618E+02
     84.155  0.5168E+00  0.5171E+00  0.3640E+02  0.3640E+02
     84.572  0.4394E+00  0.4408E+00  0.3660E+02  0.3660E+02
     84.989  0.4474E+00  0.4474E+00  0.3678E+02  0.3678E+02
     85.406  0.4957E+00  0.4957E+00  0.3698E+02  0.3698E+02
     85.823  0.4855E+00  0.4852E+00  0.3718E+02  0.3718E+02
     86.240  0.5418E+00  0.5429E+00  0.3738E+02  0.3738E+02
     86.657  0.5608E+00  0.5608E+00  0.3762E+02  0.3762E+02
     87.074  0.6690E+00  0.6700E+00  0.3787E+02  0.3787E+02
     87.491  0.7396E+00  0.7391E+00  0.3818E+02  0.3818E+02
     87.908  0.6130E+00  0.6131E+00  0.3845E+02  0.3845E+02
     88.325  0.5203E+00  0.5205E+00  0.3868E+02  0.3868E+02
     88.742  0.6118E+00  0.6107E+00  0.3893E+02  0.3893E+02
     89.159  0.6726E+00  0.6717E+00  0.3919E+02  0.3919E+02
     89.576  0.6270E+00  0.6256E+00  0.3944E+02  0.3944E+02
     89.993  0.4077E+00  0.4074E+00  0.3964E+02  0.3964E+02
     90.410  0.4073E+00  0.4069E+00  0.3981E+02  0.3981E+02
     90.827  0.4424E+00  0.4427E+00  0.3998E+02  0.3998E+02
     91.244  0.5004E+00  0.5003E+00  0.4018E+02  0.4018E+02
     91.661  0.5302E+00  0.5306E+00  0.4039E+02  0.4039E+02
     92.078  0.6693E+00  0.6697E+00  0.4063E+02  0.4064E+02
     92.495  0.6307E+00  0.6303E+00  0.4092E+02  0.4092E+02
     92.912  0.5305E+00  0.5301E+00  0.4116E+02  0.4116E+02
     93.329  0.5400E+00  0.5403E+00  0.4138E+02  0.4138E+02
     93.746  0.6474E+00  0.6479E+00  0.4163E+02  0.4163E+02
     94.163  0.8132E+00  0.8108E+00  0.4193E+02  0.4193E+02
     94.580  0.5144E+00  0.5143E+00  0.4216E+02  0.4216E+02
     94.997  0.5348E+00  0.5350E+00  0.4238E+02  0.4238E+02
     95.414  0.5770E+00  0.5772E+00  0.4261E+02  0.4261E+02
     95.831  0.6548E+00  0.6552E+00  0.4287E+02  0.4287E+02
     96.248  0.6673E+00  0.6663E+00  0.4314E+02  0.4314E+02
     96.665  0.5472E+00  0.5472E+00  0.4338E+02  0.4338E+02
     97.082  0.5543E+00  0.5545E+00  0.4361E+02  0.4361E+02
     97.499  0.5527E+00  0.5523E+00  0.4384E+02  0.4385E+02
     97.916  0.5470E+00  0.5467E+00  0.4407E+02  0.4407E+02
     98.333  0.5088E+00  0.5087E+00  0.4429E+02  0.4429E+02
     98.750  0.5033E+00  0.5034E+00  0.4449E+02  0.4449E+02
     99.167  0.5216E+00  0.5219E+00  0.4470E+02  0.4470E+02
     99.584  0.5685E+00  0.5686E+00  0.4493E+02  0.4493E+02
    100.001  0.7041E+00  0.7045E+00  0.4519E+02  0.4519E+02
    100.418  0.6694E+00  0.6692E+00  0.4549E+02  0.4549E+02
    100.835  0.6116E+00  0.6102E+00  0.4577E+02  0.4577E+02
    101.253  0.6123E+00  0.6115E+00  0.4600E+02  0.4600E+02
    101.670  0.5129E+00  0.5128E+00  0.4623E+02  0.4623E+02
    102.087  0.5973E+00  0.5973E+00  0.4646E+02  0.4646E+02
    102.504  0.5497E+00  0.5494E+00  0.4670E+02  0.4670E+02
    102.921  0.4354E+00  0.4353E+00  0.4690E+02  0.4690E+02
    103.338  0.4646E+00  0.4650E+00  0.4708E+02  0.4708E+02
    103.755  0.4268E+00  0.4269E+00  0.4726E+02  0.4726E+02
    104.172  0.3297E+00  0.3296E+00  0.4742E+02  0.4742E+02
    104.589  0.2478E+00  0.2477E+00  0.4754E+02  0.4754E+02
    105.006  0.2268E+00  0.2268E+00  0.4764E+02  0.4764E+02
    105.423  0.2716E+00  0.2717E+00  0.4775E+02  0.4775E+02
    105.840  0.2197E+00  0.2194E+00  0.4785E+02  0.4785E+02
    106.257  0.1475E+00  0.1470E+00  0.4793E+02  0.4793E+02
    106.674  0.2840E-01  0.2828E-01  0.4796E+02  0.4796E+02
    107.091  0.2186E-01  0.2185E-01  0.4797E+02  0.4797E+02
    107.508  0.2488E-01  0.2494E-01  0.4798E+02  0.4798E+02
    107.925  0.1378E-01  0.1372E-01  0.4799E+02  0.4799E+02
    108.342  0.6229E-02  0.6209E-02  0.4799E+02  0.4799E+02
    108.759  0.4467E-02  0.4457E-02  0.4800E+02  0.4800E+02
    109.176  0.3012E-02  0.3002E-02  0.4800E+02  0.4800E+02
    109.593  0.1813E-02  0.1804E-02  0.4800E+02  0.4800E+02
    110.010  0.8709E-03  0.8639E-03  0.4800E+02  0.4800E+02
    110.427  0.1856E-03  0.1805E-03  0.4800E+02  0.4800E+02
    110.844  0.0000E+00  0.0000E+00  0.4800E+02  0.4800E+02
    111.261  0.0000E+00  0.0000E+00  0.4800E+02  0.4800E+02
    111.678  0.0000E+00  0.0000E+00  0.4800E+02  0.4800E+02
    112.095  0.0000E+00  0.0000E+00  0.4800E+02  0.4800E+02
    112.512  0.0000E+00  0.0000E+00  0.4800E+02  0.4800E+02
    112.929  0.0000E+00  0.0000E+00  0.4800E+02  0.4800E+02
    113.346  0.0000E+00  0.0000E+00  0.4800E+02  0.4800E+02
    113.763  0.0000E+00  0.0000E+00  0.4800E+02  0.4800E+02
    114.180  0.0000E+00  0.0000E+00  0.4800E+02  0.4800E+02
    114.597  0.0000E+00  0.0000E+00  0.4800E+02  0.4800E+02
    115.014  0.0000E+00  0.0000E+00  0.4800E+02  0.4800E+02
    115.431  0.0000E+00  0.0000E+00  0.4800E+02  0.4800E+02
    115.848  0.0000E+00  0.0000E+00  0.4800E+02  0.4800E+02
    116.265  0.0000E+00  0.0000E+00  0.4800E+02  0.4800E+02
    116.26508173     -8.83975429  301      7.96647566      1.00000000
     -8.840  0.0000E+00  0.0000E+00  0.0000E+00  0.0000E+00  0.0000E+00  0.0000E+00  0.0000E+00  0.0000E+00  0.0000E+00  0.0000E+00  0.0000E+00  0.0000E+00  0.0000E+00  0.0000E+00  0.0000E+00  0.0000E+00  0.0000E+00  0.0000E+00
     -8.423  0.0000E+00  0.0000E+00  0.0000E+00  0.0000E+00  0.0000E+00  0.0000E+00  0.0000E+00  0.0000E+00  0.0000E+00  0.0000E+00  0.0000E+00  0.0000E+00  0.0000E+00  0.0000E+00  0.0000E+00  0.0000E+00  0.0000E+00  0.0000E+00
     -8.006  0.0000E+00  0.0000E+00  0.0000E+00  0.0000E+00  0.0000E+00  0.0000E+00  0.0000E+00  0.0000E+00  0.0000E+00  0.0000E+00  0.0000E+00  0.0000E+00  0.0000E+00  0.0000E+00  0.0000E+00  0.0000E+00  0.0000E+00  0.0000E+00
     -7.589  0.0000E+00  0.0000E+00  0.0000E+00  0.0000E+00  0.0000E+00  0.0000E+00  0.0000E+00  0.0000E+00  0.0000E+00  0.0000E+00  0.0000E+00  0.0000E+00  0.0000E+00  0.0000E+00  0.0000E+00  0.0000E+00  0.0000E+00  0.0000E+00
     -7.172  0.0000E+00  0.0000E+00  0.0000E+00  0.0000E+00  0.0000E+00  0.0000E+00  0.0000E+00  0.0000E+00  0.0000E+00  0.0000E+00  0.0000E+00  0.0000E+00  0.0000E+00  0.0000E+00  0.0000E+00  0.0000E+00  0.0000E+00  0.0000E+00
     -6.755  0.0000E+00  0.0000E+00  0.0000E+00  0.0000E+00  0.0000E+00  0.0000E+00  0.0000E+00  0.0000E+00  0.0000E+00  0.0000E+00  0.0000E+00  0.0000E+00  0.0000E+00  0.0000E+00  0.0000E+00  0.0000E+00  0.0000E+00  0.0000E+00
     -6.338  0.0000E+00  0.0000E+00  0.0000E+00  0.0000E+00  0.0000E+00  0.0000E+00  0.0000E+00  0.0000E+00  0.0000E+00  0.0000E+00  0.0000E+00  0.0000E+00  0.0000E+00  0.0000E+00  0.0000E+00  0.0000E+00  0.0000E+00  0.0000E+00
     -5.921  0.0000E+00  0.0000E+00  0.0000E+00  0.0000E+00  0.0000E+00  0.0000E+00  0.0000E+00  0.0000E+00  0.0000E+00  0.0000E+00  0.0000E+00  0.0000E+00  0.0000E+00  0.0000E+00  0.0000E+00  0.0000E+00  0.0000E+00  0.0000E+00
     -5.504  0.0000E+00  0.0000E+00  0.0000E+00  0.0000E+00  0.0000E+00  0.0000E+00  0.0000E+00  0.0000E+00  0.0000E+00  0.0000E+00  0.0000E+00  0.0000E+00  0.0000E+00  0.0000E+00  0.0000E+00  0.0000E+00  0.0000E+00  0.0000E+00
     -5.087  0.0000E+00  0.0000E+00  0.0000E+00  0.0000E+00  0.0000E+00  0.0000E+00  0.0000E+00  0.0000E+00  0.0000E+00  0.0000E+00  0.0000E+00  0.0000E+00  0.0000E+00  0.0000E+00  0.0000E+00  0.0000E+00  0.0000E+00  0.0000E+00
     -4.670  0.0000E+00  0.0000E+00  0.0000E+00  0.0000E+00  0.0000E+00  0.0000E+00  0.0000E+00  0.0000E+00  0.0000E+00  0.0000E+00  0.0000E+00  0.0000E+00  0.0000E+00  0.0000E+00  0.0000E+00  0.0000E+00  0.0000E+00  0.0000E+00
     -4.253  0.0000E+00  0.0000E+00  0.0000E+00  0.0000E+00  0.0000E+00  0.0000E+00  0.0000E+00  0.0000E+00  0.0000E+00  0.0000E+00  0.0000E+00  0.0000E+00  0.0000E+00  0.0000E+00  0.0000E+00  0.0000E+00  0.0000E+00  0.0000E+00
     -3.836  0.0000E+00  0.0000E+00  0.0000E+00  0.0000E+00  0.0000E+00  0.0000E+00  0.0000E+00  0.0000E+00  0.0000E+00  0.0000E+00  0.0000E+00  0.0000E+00  0.0000E+00  0.0000E+00  0.0000E+00  0.0000E+00  0.0000E+00  0.0000E+00
     -3.419  0.0000E+00  0.0000E+00  0.0000E+00  0.0000E+00  0.0000E+00  0.0000E+00  0.0000E+00  0.0000E+00  0.0000E+00  0.0000E+00  0.0000E+00  0.0000E+00  0.0000E+00  0.0000E+00  0.0000E+00  0.0000E+00  0.0000E+00  0.0000E+00
     -3.002  0.5962E-02  0.6101E-02  0.2018E-04  0.2065E-04  0.2018E-04  0.2065E-04  0.2018E-04  0.2065E-04  0.0000E+00  0.0000E+00  0.0000E+00  0.0000E+00  0.0000E+00  0.0000E+00  0.0000E+00  0.0000E+00  0.0000E+00  0.0000E+00
     -2.585  0.1199E-01  0.1200E-01  0.1734E-03  0.1743E-03  0.1734E-03  0.1743E-03  0.1734E-03  0.1743E-03  0.0000E+00  0.0000E+00  0.0000E+00  0.0000E+00  0.0000E+00  0.0000E+00  0.0000E+00  0.0000E+00  0.0000E+00  0.0000E+00
     -2.167  0.1439E-01  0.1442E-01  0.3689E-03  0.3699E-03  0.3689E-03  0.3699E-03  0.3689E-03  0.3699E-03  0.0000E+00  0.0000E+00  0.0000E+00  0.0000E+00  0.0000E+00  0.0000E+00  0.0000E+00  0.0000E+00  0.0000E+00  0.0000E+00
     -1.750  0.1619E-01  0.1621E-01  0.6413E-03  0.6426E-03  0.6413E-03  0.6426E-03  0.6413E-03  0.6426E-03  0.0000E+00  0.0000E+00  0.0000E+00  0.0000E+00  0.0000E+00  0.0000E+00  0.0000E+00  0.0000E+00  0.0000E+00  0.0000E+00
     -1.333  0.1843E-01  0.1845E-01  0.9280E-03  0.9298E-03  0.9280E-03  0.9298E-03  0.9280E-03  0.9298E-03  0.0000E+00  0.0000E+00  0.0000E+00  0.0000E+00  0.0000E+00  0.0000E+00  0.0000E+00  0.0000E+00  0.0000E+00  0.0000E+00
     -0.916  0.1947E-01  0.1949E-01  0.1273E-02  0.1275E-02  0.1273E-02  0.1275E-02  0.1273E-02  0.1275E-02  0.0000E+00  0.0000E+00  0.0000E+00  0.0000E+00  0.0000E+00  0.0000E+00  0.0000E+00  0.0000E+00  0.0000E+00  0.0000E+00
     -0.499  0.2096E-01  0.2098E-01  0.1618E-02  0.1620E-02  0.1618E-02  0.1620E-02  0.1618E-02  0.1620E-02  0.0000E+00  0.0000E+00  0.0000E+00  0.0000E+00  0.0000E+00  0.0000E+00  0.0000E+00  0.0000E+00  0.0000E+00  0.0000E+00
     -0.082  0.2145E-01  0.2147E-01  0.2028E-02  0.2030E-02  0.2028E-02  0.2030E-02  0.2028E-02  0.2030E-02  0.0000E+00  0.0000E+00  0.0000E+00  0.0000E+00  0.0000E+00  0.0000E+00  0.0000E+00  0.0000E+00  0.0000E+00  0.0000E+00
      0.335  0.2216E-01  0.2218E-01  0.2437E-02  0.2440E-02  0.2437E-02  0.2440E-02  0.2437E-02  0.2440E-02  0.0000E+00  0.0000E+00  0.0000E+00  0.0000E+00  0.0000E+00  0.0000E+00  0.0000E+00  0.0000E+00  0.0000E+00  0.0000E+00
      0.752  0.2287E-01  0.2289E-01  0.2861E-02  0.2864E-02  0.2861E-02  0.2864E-02  0.2861E-02  0.2864E-02  0.0000E+00  0.0000E+00  0.0000E+00  0.0000E+00  0.0000E+00  0.0000E+00  0.0000E+00  0.0000E+00  0.0000E+00  0.0000E+00
      1.169  0.2283E-01  0.2284E-01  0.3349E-02  0.3352E-02  0.3349E-02  0.3352E-02  0.3349E-02  0.3352E-02  0.0000E+00  0.0000E+00  0.0000E+00  0.0000E+00  0.0000E+00  0.0000E+00  0.0000E+00  0.0000E+00  0.0000E+00  0.0000E+00
      1.586  0.2294E-01  0.2296E-01  0.3839E-02  0.3842E-02  0.3839E-02  0.3842E-02  0.3839E-02  0.3842E-02  0.0000E+00  0.0000E+00  0.0000E+00  0.0000E+00  0.0000E+00  0.0000E+00  0.0000E+00  0.0000E+00  0.0000E+00  0.0000E+00
      2.003  0.2308E-01  0.2310E-01  0.4353E-02  0.4356E-02  0.4353E-02  0.4356E-02  0.4353E-02  0.4356E-02  0.0000E+00  0.0000E+00  0.0000E+00  0.0000E+00  0.0000E+00  0.0000E+00  0.0000E+00  0.0000E+00  0.0000E+00  0.0000E+00
      2.420  0.2265E-01  0.2267E-01  0.5022E-02  0.5026E-02  0.5022E-02  0.5026E-02  0.5022E-02  0.5026E-02  0.0000E+00  0.0000E+00  0.0000E+00  0.0000E+00  0.0000E+00  0.0000E+00  0.0000E+00  0.0000E+00  0.0000E+00  0.0000E+00
      2.837  0.2302E-01  0.2304E-01  0.6004E-02  0.6007E-02  0.6004E-02  0.6007E-02  0.6004E-02  0.6007E-02  0.0000E+00  0.0000E+00  0.0000E+00  0.0000E+00  0.0000E+00  0.0000E+00  0.0000E+00  0.0000E+00  0.0000E+00  0.0000E+00
      3.254  0.2227E-01  0.2224E-01  0.6713E-02  0.6700E-02  0.6713E-02  0.6700E-02  0.6713E-02  0.6700E-02  0.0000E+00  0.0000E+00  0.0000E+00  0.0000E+00  0.0000E+00  0.0000E+00  0.0000E+00  0.0000E+00  0.0000E+00  0.0000E+00
      3.671  0.1847E-01  0.1849E-01  0.6374E-02  0.6378E-02  0.6374E-02  0.6378E-02  0.6374E-02  0.6378E-02  0.0000E+00  0.0000E+00  0.0000E+00  0.0000E+00  0.0000E+00  0.0000E+00  0.0000E+00  0.0000E+00  0.0000E+00  0.0000E+00
      4.088  0.2075E-01  0.2104E-01  0.8498E-02  0.8616E-02  0.8498E-02  0.8616E-02  0.8498E-02  0.8616E-02  0.0000E+00  0.0000E+00  0.0000E+00  0.0000E+00  0.0000E+00  0.0000E+00  0.0000E+00  0.0000E+00  0.0000E+00  0.0000E+00
      4.505  0.1820E-01  0.1822E-01  0.7788E-02  0.7797E-02  0.7788E-02  0.7797E-02  0.7788E-02  0.7797E-02  0.0000E+00  0.0000E+00  0.0000E+00  0.0000E+00  0.0000E+00  0.0000E+00  0.0000E+00  0.0000E+00  0.0000E+00  0.0000E+00
      4.922  0.2001E-01  0.2002E-01  0.9490E-02  0.9496E-02  0.9490E-02  0.9496E-02  0.9490E-02  0.9496E-02  0.0000E+00  0.0000E+00  0.0000E+00  0.0000E+00  0.0000E+00  0.0000E+00  0.0000E+00  0.0000E+00  0.0000E+00  0.0000E+00
      5.339  0.1956E-01  0.1956E-01  0.1101E-01  0.1101E-01  0.1101E-01  0.1101E-01  0.1101E-01  0.1101E-01  0.0000E+00  0.0000E+00  0.0000E+00  0.0000E+00  0.0000E+00  0.0000E+00  0.0000E+00  0.0000E+00  0.0000E+00  0.0000E+00
      5.756  0.1858E-01  0.1853E-01  0.8357E-02  0.8343E-02  0.8357E-02  0.8343E-02  0.8357E-02  0.8343E-02  0.0000E+00  0.0000E+00  0.0000E+00  0.0000E+00  0.0000E+00  0.0000E+00  0.0000E+00  0.0000E+00  0.0000E+00  0.0000E+00
      6.173  0.1683E-01  0.1683E-01  0.8584E-02  0.8577E-02  0.8584E-02  0.8577E-02  0.8584E-02  0.8577E-02  0.0000E+00  0.0000E+00  0.0000E+00  0.0000E+00  0.0000E+00  0.0000E+00  0.0000E+00  0.0000E+00  0.0000E+00  0.0000E+00
      6.590  0.1537E-01  0.1538E-01  0.8631E-02  0.8641E-02  0.8631E-02  0.8641E-02  0.8631E-02  0.8641E-02  0.0000E+00  0.0000E+00  0.0000E+00  0.0000E+00  0.0000E+00  0.0000E+00  0.0000E+00  0.0000E+00  0.0000E+00  0.0000E+00
      7.007  0.1994E-01  0.1999E-01  0.1084E-01  0.1086E-01  0.1084E-01  0.1086E-01  0.1084E-01  0.1086E-01  0.0000E+00  0.0000E+00  0.0000E+00  0.0000E+00  0.0000E+00  0.0000E+00  0.0000E+00  0.0000E+00  0.0000E+00  0.0000E+00
      7.424  0.1806E-01  0.1806E-01  0.1157E-01  0.1159E-01  0.1157E-01  0.1159E-01  0.1157E-01  0.1159E-01  0.0000E+00  0.0000E+00  0.0000E+00  0.0000E+00  0.0000E+00  0.0000E+00  0.0000E+00  0.0000E+00  0.0000E+00  0.0000E+00
      7.841  0.1464E-01  0.1467E-01  0.8395E-02  0.8394E-02  0.8395E-02  0.8394E-02  0.8395E-02  0.8394E-02  0.0000E+00  0.0000E+00  0.0000E+00  0.0000E+00  0.0000E+00  0.0000E+00  0.0000E+00  0.0000E+00  0.0000E+00  0.0000E+00
      8.258  0.2137E-01  0.2131E-01  0.9139E-02  0.9145E-02  0.9139E-02  0.9145E-02  0.9139E-02  0.9145E-02  0.0000E+00  0.0000E+00  0.0000E+00  0.0000E+00  0.0000E+00  0.0000E+00  0.0000E+00  0.0000E+00  0.0000E+00  0.0000E+00
      8.675  0.2127E-01  0.2129E-01  0.9274E-02  0.9285E-02  0.9274E-02  0.9285E-02  0.9274E-02  0.9285E-02  0.0000E+00  0.0000E+00  0.0000E+00  0.0000E+00  0.0000E+00  0.0000E+00  0.0000E+00  0.0000E+00  0.0000E+00  0.0000E+00
      9.092  0.2188E-01  0.2190E-01  0.1054E-01  0.1056E-01  0.1054E-01  0.1056E-01  0.1054E-01  0.1056E-01  0.0000E+00  0.0000E+00  0.0000E+00  0.0000E+00  0.0000E+00  0.0000E+00  0.0000E+00  0.0000E+00  0.0000E+00  0.0000E+00
      9.509  0.2096E-01  0.2098E-01  0.1064E-01  0.1065E-01  0.1064E-01  0.1065E-01  0.1064E-01  0.1065E-01  0.0000E+00  0.0000E+00  0.0000E+00  0.0000E+00  0.0000E+00  0.0000E+00  0.0000E+00  0.0000E+00  0.0000E+00  0.0000E+00
      9.926  0.2180E-01  0.2181E-01  0.1100E-01  0.1101E-01  0.1100E-01  0.1101E-01  0.1100E-01  0.1101E-01  0.0000E+00  0.0000E+00  0.0000E+00  0.0000E+00  0.0000E+00  0.0000E+00  0.0000E+00  0.0000E+00  0.0000E+00  0.0000E+00
     10.343  0.2206E-01  0.2209E-01  0.1038E-01  0.1039E-01  0.1038E-01  0.1039E-01  0.1038E-01  0.1039E-01  0.0000E+00  0.0000E+00  0.0000E+00  0.0000E+00  0.0000E+00  0.0000E+00  0.0000E+00  0.0000E+00  0.0000E+00  0.0000E+00
     10.760  0.2400E-01  0.2405E-01  0.1148E-01  0.1150E-01  0.1148E-01  0.1150E-01  0.1148E-01  0.1150E-01  0.0000E+00  0.0000E+00  0.0000E+00  0.0000E+00  0.0000E+00  0.0000E+00  0.0000E+00  0.0000E+00  0.0000E+00  0.0000E+00
     11.177  0.2331E-01  0.2331E-01  0.1245E-01  0.1247E-01  0.1245E-01  0.1247E-01  0.1245E-01  0.1247E-01  0.0000E+00  0.0000E+00  0.0000E+00  0.0000E+00  0.0000E+00  0.0000E+00  0.0000E+00  0.0000E+00  0.0000E+00  0.0000E+00
     11.594  0.2222E-01  0.2223E-01  0.1228E-01  0.1230E-01  0.1228E-01  0.1230E-01  0.1228E-01  0.1230E-01  0.0000E+00  0.0000E+00  0.0000E+00  0.0000E+00  0.0000E+00  0.0000E+00  0.0000E+00  0.0000E+00  0.0000E+00  0.0000E+00
     12.011  0.2267E-01  0.2268E-01  0.1324E-01  0.1326E-01  0.1324E-01  0.1326E-01  0.1324E-01  0.1326E-01  0.0000E+00  0.0000E+00  0.0000E+00  0.0000E+00  0.0000E+00  0.0000E+00  0.0000E+00  0.0000E+00  0.0000E+00  0.0000E+00