    1    1    1    2
  0.1658294E+02  0.2862368E-09  0.2862368E-09  0.2862368E-09  0.5000000E-15
   1.0000000000000000E-004
  CAR 
 unknown system                          
      3     84     48

  0.1262379E-14  0.1262379E-14  0.1262379E-14  0.4551661E-03
    1       -3.151474     -3.153171   1.000000   1.000000
    2       20.540094     20.538811   0.000000   0.000000
    3       20.540094     20.538811   0.000000   0.000000
    4       20.540094     20.538811   0.000000   0.000000
    5       21.994417     21.989612   0.000000   0.000000
    6       21.994417     21.989612   0.000000   0.000000
    7       21.994417     21.989613   0.000000   0.000000
    8       24.377666     24.377169   0.000000   0.000000
    9       27.314527     27.311198   0.000000   0.000000
   10       27.314527     27.311198   0.000000   0.000000
   11       30.160860     30.158003   0.000000   0.000000
   12       32.511008     32.510002   0.000000   0.000000
   13       32.511008     32.510002   0.000000   0.000000
   14       32.511008     32.510003   0.000000   0.000000
   15       41.062056     41.059233   0.000000   0.000000
   16       56.015309     56.014163   0.000000   0.000000
   17       56.015310     56.014163   0.000000   0.000000
   18       56.015310     56.014163   0.000000   0.000000
   19       56.050951     56.050881   0.000000   0.000000
   20       59.213217     59.210437   0.000000   0.000000
   21       59.213217     59.210438   0.000000   0.000000
   22       59.213217     59.210437   0.000000   0.000000
   23       62.833557     62.833222   0.000000   0.000000
   24       62.833557     62.833222   0.000000   0.000000
   25       65.077066     65.073530   0.000000   0.000000
   26       65.077066     65.073530   0.000000   0.000000
   27       65.077066     65.073530   0.000000   0.000000
   28       73.177807     73.176456   0.000000   0.000000
   29       73.177807     73.176456   0.000000   0.000000
   30       73.177808     73.176457   0.000000   0.000000
   31       80.819140     80.817830   0.000000   0.000000
   32       83.077327     83.075714   0.000000   0.000000
   33       83.077327     83.075714   0.000000   0.000000
   34       87.205929     87.205646   0.000000   0.000000
   35       87.205929     87.205646   0.000000   0.000000
   36       87.205930     87.205648   0.000000   0.000000
   37       90.088688     90.083042   0.000000   0.000000
   38       90.088688     90.083043   0.000000   0.000000
   39       90.088689     90.083043   0.000000   0.000000
   40       90.897028     90.889839   0.000000   0.000000
   41       93.460169     93.460022   0.000000   0.000000
   42       93.460169     93.460022   0.000000   0.000000
   43       93.460169     93.460022   0.000000   0.000000
   44       93.935089     93.931902   0.000000   0.000000
   45       93.935089     93.931903   0.000000   0.000000
   46       93.935089     93.931903   0.000000   0.000000
   47       96.374395     96.374581   0.000000   0.000000
   48       96.374395     96.374582   0.000000   0.000000

  0.7692308E-01  0.1265533E-14  0.1265533E-14  0.3641329E-02
    1       -2.991169     -2.992866   1.000000   1.000000
    2       18.180469     18.178514   0.000000   0.000000
    3       20.024837     20.022812   0.000000   0.000000
    4       20.024837     20.022812   0.000000   0.000000
    5       22.660042     22.656566   0.000000   0.000000
    6       22.755580     22.751413   0.000000   0.000000
    7       22.755580     22.751413   0.000000   0.000000
    8       25.960014     25.958919   0.000000   0.000000
    9       26.462115     26.459255   0.000000   0.000000
   10       26.462115     26.459255   0.000000   0.000000
   11       29.598318     29.595707   0.000000   0.000000
   12       33.310193     33.308766   0.000000   0.000000
   13       33.687958     33.686554   0.000000   0.000000
   14       33.687958     33.686554   0.000000   0.000000
   15       41.698258     41.695541   0.000000   0.000000
   16       55.446474     55.445794   0.000000   0.000000
   17       55.782208     55.780927   0.000000   0.000000
   18       55.782208     55.780927   0.000000   0.000000
   19       56.322689     56.322017   0.000000   0.000000
   20       57.610839     57.608266   0.000000   0.000000
   21       57.610839     57.608266   0.000000   0.000000
   22       59.215685     59.213039   0.000000   0.000000
   23       61.653506     61.652342   0.000000   0.000000
   24       61.653506     61.652343   0.000000   0.000000
   25       65.220680     65.217114   0.000000   0.000000
   26       68.205269     68.202561   0.000000   0.000000
   27       68.205269     68.202562   0.000000   0.000000
   28       71.920691     71.919467   0.000000   0.000000
   29       73.031399     73.029913   0.000000   0.000000
   30       73.031399     73.029914   0.000000   0.000000
   31       82.169619     82.168255   0.000000   0.000000
   32       82.197577     82.195605   0.000000   0.000000
   33       82.197577     82.195605   0.000000   0.000000
   34       84.418105     84.414874   0.000000   0.000000
   35       86.111157     86.110622   0.000000   0.000000
   36       86.111158     86.110623   0.000000   0.000000
   37       88.469481     88.466849   0.000000   0.000000
   38       88.469481     88.466849   0.000000   0.000000
   39       89.694179     89.692700   0.000000   0.000000
   40       90.184135     90.178129   0.000000   0.000000
   41       91.615037     91.613275   0.000000   0.000000
   42       91.615038     91.613276   0.000000   0.000000
   43       92.670346     92.668683   0.000000   0.000000
   44       95.396395     95.396808   0.000000   0.000000
   45       95.396395     95.396808   0.000000   0.000000
   46       96.014618     96.014473   0.000000   0.000000
   47       96.548123     96.544955   0.000000   0.000000
   48       96.548123     96.544955   0.000000   0.000000

  0.1538462E+00  0.1259861E-14  0.1259861E-14  0.3641329E-02
    1       -2.511379     -2.513076   1.000000   1.000000
    2       15.080732     15.078823   0.000000   0.000000
    3       19.355530     19.353174   0.000000   0.000000
    4       19.355530     19.353174   0.000000   0.000000
    5       22.528248     22.525297   0.000000   0.000000
    6       23.895566     23.891236   0.000000   0.000000
    7       23.895566     23.891236   0.000000   0.000000
    8       25.192648     25.190585   0.000000   0.000000
    9       25.192648     25.190585   0.000000   0.000000
   10       28.392628     28.390144   0.000000   0.000000
   11       28.904734     28.903175   0.000000   0.000000
   12       35.401669     35.399704   0.000000   0.000000
   13       36.183142     36.181316   0.000000   0.000000
   14       36.183142     36.181317   0.000000   0.000000
   15       43.364611     43.362152   0.000000   0.000000
   16       53.107046     53.104891   0.000000   0.000000
   17       53.107046     53.104892   0.000000   0.000000
   18       54.376933     54.376114   0.000000   0.000000
   19       56.452947     56.451514   0.000000   0.000000
   20       56.452947     56.451515   0.000000   0.000000
   21       56.489842     56.489046   0.000000   0.000000
   22       59.031490     59.029189   0.000000   0.000000
   23       61.611040     61.609622   0.000000   0.000000
   24       61.611040     61.609623   0.000000   0.000000
   25       65.646696     65.643035   0.000000   0.000000
   26       69.693913     69.692665   0.000000   0.000000
   27       71.261168     71.258906   0.000000   0.000000
   28       71.261169     71.258907   0.000000   0.000000
   29       73.207395     73.205359   0.000000   0.000000
   30       73.207395     73.205360   0.000000   0.000000
   31       79.738471     79.736215   0.000000   0.000000
   32       79.738472     79.736215   0.000000   0.000000
   33       80.000382     79.996743   0.000000   0.000000
   34       83.862158     83.862482   0.000000   0.000000
   35       83.862158     83.862482   0.000000   0.000000
   36       85.981951     85.980057   0.000000   0.000000
   37       86.053871     86.052517   0.000000   0.000000
   38       86.652296     86.650701   0.000000   0.000000
   39       86.652296     86.650701   0.000000   0.000000
   40       88.471086     88.470433   0.000000   0.000000
   41       89.628585     89.623536   0.000000   0.000000
   42       90.295720     90.293573   0.000000   0.000000
   43       90.295720     90.293574   0.000000   0.000000
   44       94.024685     94.025256   0.000000   0.000000
   45       97.008341     97.008363   0.000000   0.000000
   46       97.008341     97.008364   0.000000   0.000000
   47       98.857948     98.855528   0.000000   0.000000
   48       98.857948     98.855528   0.000000   0.000000

  0.2307692E+00  0.1262210E-14  0.1262210E-14  0.3641329E-02
    1       -1.715303     -1.717000   1.000000   1.000000
    2       12.093463     12.091615   0.000000   0.000000
    3       18.895882     18.893407   0.000000   0.000000
    4       18.895882     18.893407   0.000000   0.000000
    5       22.296763     22.294030   0.000000   0.000000
    6       23.004225     23.001103   0.000000   0.000000
    7       23.004225     23.001103   0.000000   0.000000
    8       26.303465     26.300391   0.000000   0.000000
    9       26.303465     26.300391   0.000000   0.000000
   10       26.999443     26.996957   0.000000   0.000000
   11       31.803303     31.801511   0.000000   0.000000
   12       38.515391     38.512927   0.000000   0.000000
   13       39.174551     39.172392   0.000000   0.000000
   14       39.174551     39.172392   0.000000   0.000000
   15       45.655499     45.653389   0.000000   0.000000
   16       49.284125     49.282135   0.000000   0.000000
   17       49.284125     49.282135   0.000000   0.000000
   18       52.861132     52.860252   0.000000   0.000000
   19       56.369930     56.368629   0.000000   0.000000
   20       56.369930     56.368629   0.000000   0.000000
   21       56.666582     56.665630   0.000000   0.000000
   22       58.435880     58.434093   0.000000   0.000000
   23       61.966541     61.964958   0.000000   0.000000
   24       61.966541     61.964959   0.000000   0.000000
   25       66.335299     66.331453   0.000000   0.000000
   26       67.524214     67.522365   0.000000   0.000000
   27       69.650956     69.648443   0.000000   0.000000
   28       69.650956     69.648444   0.000000   0.000000
   29       74.594806     74.593558   0.000000   0.000000
   30       74.594807     74.593560   0.000000   0.000000
   31       77.137385     77.133344   0.000000   0.000000
   32       78.807869     78.805907   0.000000   0.000000
   33       78.807869     78.805907   0.000000   0.000000
   34       81.043932     81.043821   0.000000   0.000000
   35       81.043932     81.043822   0.000000   0.000000
   36       81.497019     81.497088   0.000000   0.000000
   37       82.789617     82.788476   0.000000   0.000000
   38       87.076058     87.074712   0.000000   0.000000
   39       87.076058     87.074713   0.000000   0.000000
   40       88.807901     88.805021   0.000000   0.000000
   41       89.682418     89.680248   0.000000   0.000000
   42       89.682418     89.680249   0.000000   0.000000
   43       89.865949     89.862483   0.000000   0.000000
   44       93.393260     93.393460   0.000000   0.000000
   45       97.357064     97.356005   0.000000   0.000000
   46       97.357065     97.356005   0.000000   0.000000
   47      101.039594    101.038944   0.000000   0.000000
   48      101.039601    101.038948   0.000000   0.000000

  0.3076923E+00  0.1235638E-14  0.1235638E-14  0.3641329E-02
    1       -0.608133     -0.609830   1.000000   1.000000
    2        9.315146      9.313340  -0.059656  -0.059525
    3       18.690693     18.688155   0.000000   0.000000
    4       18.690693     18.688155   0.000000   0.000000
    5       21.670261     21.667474   0.000000   0.000000
    6       21.670261     21.667474   0.000000   0.000000
    7       22.212018     22.209419   0.000000   0.000000
    8       25.646184     25.643664   0.000000   0.000000
    9       28.307634     28.304190   0.000000   0.000000
   10       28.307634     28.304190   0.000000   0.000000
   11       34.543230     34.541156   0.000000   0.000000
   12       42.031114     42.028430   0.000000   0.000000
   13       42.031114     42.028430   0.000000   0.000000
   14       42.267762     42.264792   0.000000   0.000000
   15       46.122125     46.120707   0.000000   0.000000
   16       46.122125     46.120708   0.000000   0.000000
   17       48.076240     48.074443   0.000000   0.000000
   18       51.231614     51.231025   0.000000   0.000000
   19       56.339475     56.338205   0.000000   0.000000
   20       56.339476     56.338206   0.000000   0.000000
   21       56.878878     56.877732   0.000000   0.000000
   22       57.407426     57.406119   0.000000   0.000000
   23       62.223371     62.221350   0.000000   0.000000
   24       62.223371     62.221351   0.000000   0.000000
   25       65.318201     65.315350   0.000000   0.000000
   26       66.203393     66.201269   0.000000   0.000000
   27       66.203393     66.201269   0.000000   0.000000
   28       67.238947     67.234777   0.000000   0.000000
   29       73.810638     73.808313   0.000000   0.000000
   30       74.137020     74.136174   0.000000   0.000000
   31       74.137021     74.136175   0.000000   0.000000
   32       77.000295     76.999254   0.000000   0.000000
   33       78.358132     78.358215   0.000000   0.000000
   34       78.358133     78.358215   0.000000   0.000000
   35       79.950769     79.949976   0.000000   0.000000
   36       80.129613     80.127872   0.000000   0.000000
   37       80.129613     80.127874   0.000000   0.000000
   38       88.639866     88.636049   0.000000   0.000000
   39       89.314952     89.312870   0.000000   0.000000
   40       89.314959     89.312870   0.000000   0.000000
   41       89.530852     89.529118   0.000000   0.000000
   42       89.530852     89.529109   0.000000   0.000000
   43       91.260916     91.260321   0.000000   0.000000
   44       93.411422     93.410288   0.000000   0.000000
   45       97.864580     97.863129   0.000000   0.000000
   46       97.864593     97.863137   0.000000   0.000000
   47      101.622169    101.620279   0.000000   0.000000
   48      103.405611    103.405166   0.000000   0.000000

  0.3846154E+00  0.1224276E-14  0.1224276E-14  0.3641329E-02
    1        0.803094      0.801399   1.000000   1.000000
    2        6.781276      6.779494   1.029799   1.030271
    3       18.750350     18.747753   0.000000   0.000000
    4       18.750350     18.747754   0.000000   0.000000
    5       20.546476     20.543844   0.000000   0.000000
    6       20.546476     20.543844   0.000000   0.000000
    7       22.363100     22.360614   0.000000   0.000000
    8       24.454783     24.452202   0.000000   0.000000
    9       30.482469     30.478595   0.000000   0.000000
   10       30.482469     30.478595   0.000000   0.000000
   11       37.122529     37.120006   0.000000   0.000000
   12       41.276771     41.274645   0.000000   0.000000
   13       41.276771     41.274646   0.000000   0.000000
   14       45.922239     45.919139   0.000000   0.000000
   15       47.233676     47.231941   0.000000   0.000000
   16       47.233676     47.231941   0.000000   0.000000
   17       48.045457     48.044017   0.000000   0.000000
   18       52.504483     52.504135   0.000000   0.000000
   19       55.956601     55.955394   0.000000   0.000000
   20       56.224010     56.222758   0.000000   0.000000
   21       56.224010     56.222759   0.000000   0.000000
   22       57.143348     57.141966   0.000000   0.000000
   23       60.550219     60.547368   0.000000   0.000000
   24       60.550220     60.547368   0.000000   0.000000
   25       63.221782     63.218352   0.000000   0.000000
   26       64.214596     64.213500   0.000000   0.000000
   27       64.214596     64.213500   0.000000   0.000000
   28       68.116051     68.115155   0.000000   0.000000
   29       68.235847     68.231152   0.000000   0.000000
   30       73.752768     73.751953   0.000000   0.000000
   31       73.752771     73.751956   0.000000   0.000000
   32       76.530827     76.530582   0.000000   0.000000
   33       76.530827     76.530582   0.000000   0.000000
   34       76.589182     76.587188   0.000000   0.000000
   35       77.664132     77.663880   0.000000   0.000000
   36       80.491187     80.490177   0.000000   0.000000
   37       80.491187     80.490179   0.000000   0.000000
   38       88.529952     88.526137   0.000000   0.000000
   39       89.052061     89.050066   0.000000   0.000000
   40       89.052069     89.050063   0.000000   0.000000
   41       90.133183     90.133062   0.000000   0.000000
   42       92.916539     92.914654   0.000000   0.000000
   43       92.916539     92.914657   0.000000   0.000000
   44       94.330685     94.329927   0.000000   0.000000
   45       99.542821     99.541095   0.000000   0.000000
   46       99.542928     99.541137   0.000000   0.000000
   47      102.902448    102.899726   0.000000   0.000000
   48      104.131076    104.130152   0.000000   0.000000

  0.4615385E+00  0.1225459E-14  0.1225459E-14  0.3641329E-02
    1        2.507945      2.506280   1.000000   1.000000
    2        4.513165      4.511365   1.000000   1.000000
    3       19.077341     19.074595   0.000000   0.000000
    4       19.077341     19.074596   0.000000   0.000000
    5       19.681623     19.679177   0.000000   0.000000
    6       19.681623     19.679178   0.000000   0.000000
    7       22.782648     22.780403   0.000000   0.000000
    8       23.494001     23.491200   0.000000   0.000000
    9       32.334831     32.330217   0.000000   0.000000
   10       32.334831     32.330218   0.000000   0.000000
   11       39.081742     39.080561   0.000000   0.000000
   12       39.081742     39.080562   0.000000   0.000000
   13       39.136440     39.133196   0.000000   0.000000
   14       45.705025     45.704603   0.000000   0.000000
   15       49.856733     49.853098   0.000000   0.000000
   16       50.605838     50.603677   0.000000   0.000000
   17       50.605839     50.603677   0.000000   0.000000
   18       54.036588     54.035145   0.000000   0.000000
   19       55.301283     55.299809   0.000000   0.000000
   20       55.301283     55.299809   0.000000   0.000000
   21       55.675163     55.674896   0.000000   0.000000
   22       57.763984     57.762392   0.000000   0.000000
   23       57.805155     57.802817   0.000000   0.000000
   24       57.805155     57.802818   0.000000   0.000000
   25       61.487467     61.485372   0.000000   0.000000
   26       63.327748     63.326090   0.000000   0.000000
   27       64.241886     64.240754   0.000000   0.000000
   28       64.241887     64.240754   0.000000   0.000000
   29       69.002432     68.997107   0.000000   0.000000
   30       73.595238     73.594461   0.000000   0.000000
   31       73.595239     73.594461   0.000000   0.000000
   32       75.474821     75.474398   0.000000   0.000000
   33       75.474821     75.474398   0.000000   0.000000
   34       76.252382     76.252767   0.000000   0.000000
   35       76.887301     76.885193   0.000000   0.000000
   36       80.540688     80.539969   0.000000   0.000000
   37       80.540688     80.539971   0.000000   0.000000
   38       88.608103     88.603968   0.000000   0.000000
   39       88.870139     88.868189   0.000000   0.000000
   40       88.870139     88.868190   0.000000   0.000000
   41       89.143359     89.143606   0.000000   0.000000
   42       94.183705     94.183246   0.000000   0.000000
   43       95.223262     95.221458   0.000000   0.000000
   44       95.223277     95.221458   0.000000   0.000000
   45      101.251573    101.250775   0.000000   0.000000
   46      101.251574    101.250775   0.000000   0.000000
   47      105.411105    105.408577   0.000000   0.000000
   48      105.411106    105.408577   0.000000   0.000000

  0.7692308E-01  0.7692308E-01  0.1262379E-14  0.2730997E-02
    1       -2.937778     -2.939474   1.000000   1.000000
    2       18.974919     18.972632   0.000000   0.000000
    3       18.974919     18.972632   0.000000   0.000000
    4       19.277493     19.276405   0.000000   0.000000
    5       21.501049     21.496326   0.000000   0.000000
    6       23.870976     23.867049   0.000000   0.000000
    7       23.870976     23.867049   0.000000   0.000000
    8       24.978354     24.975834   0.000000   0.000000
    9       26.067277     26.066576   0.000000   0.000000
   10       27.512331     27.508972   0.000000   0.000000
   11       30.395791     30.392758   0.000000   0.000000
   12       32.756990     32.756089   0.000000   0.000000
   13       32.756990     32.756090   0.000000   0.000000
   14       34.976191     34.974286   0.000000   0.000000
   15       41.987186     41.984526   0.000000   0.000000
   16       55.502608     55.501119   0.000000   0.000000
   17       55.502608     55.501119   0.000000   0.000000
   18       55.531726     55.531344   0.000000   0.000000
   19       56.466023     56.465196   0.000000   0.000000
   20       57.740346     57.737788   0.000000   0.000000
   21       57.740346     57.737789   0.000000   0.000000
   22       58.727661     58.726191   0.000000   0.000000
   23       59.353367     59.350576   0.000000   0.000000
   24       62.791961     62.791584   0.000000   0.000000
   25       66.953542     66.950177   0.000000   0.000000
   26       66.953543     66.950177   0.000000   0.000000
   27       69.462741     69.460438   0.000000   0.000000
   28       71.020313     71.018723   0.000000   0.000000
   29       73.369466     73.368254   0.000000   0.000000
   30       73.369466     73.368254   0.000000   0.000000
   31       81.018962     81.017012   0.000000   0.000000
   32       82.694133     82.692449   0.000000   0.000000
   33       83.518721     83.517324   0.000000   0.000000
   34       83.725325     83.723054   0.000000   0.000000
   35       83.725325     83.723054   0.000000   0.000000
   36       84.309562     84.306256   0.000000   0.000000
   37       89.600795     89.602581   0.000000   0.000000
   38       89.959091     89.957162   0.000000   0.000000
   39       89.959091     89.957162   0.000000   0.000000
   40       90.541251     90.539179   0.000000   0.000000
   41       90.541251     90.539180   0.000000   0.000000
   42       92.420750     92.415744   0.000000   0.000000
   43       92.500424     92.498384   0.000000   0.000000
   44       93.918865     93.914437   0.000000   0.000000
   45       94.434255     94.434115   0.000000   0.000000
   46       97.366057     97.364003   0.000000   0.000000
   47       97.366058     97.364005   0.000000   0.000000
   48       98.528766     98.527570   0.000000   0.000000

  0.1538462E+00  0.7692308E-01  0.1264701E-14  0.1092399E-01
    1       -2.564591     -2.566287   1.000000   1.000000
    2       16.181569     16.179688   0.000000   0.000000
    3       18.143715     18.141349   0.000000   0.000000
    4       19.365405     19.363531   0.000000   0.000000
    5       21.821881     21.817246   0.000000   0.000000
    6       23.160772     23.158810   0.000000   0.000000
    7       24.254616     24.251361   0.000000   0.000000
    8       25.162207     25.158017   0.000000   0.000000
    9       26.969526     26.966756   0.000000   0.000000
   10       28.490647     28.489136   0.000000   0.000000
   11       29.909019     29.906500   0.000000   0.000000
   12       34.156068     34.154825   0.000000   0.000000
   13       34.282506     34.281024   0.000000   0.000000
   14       36.929198     36.926887   0.000000   0.000000
   15       43.479670     43.477239   0.000000   0.000000
   16       53.114611     53.112507   0.000000   0.000000
   17       53.810648     53.808850   0.000000   0.000000
   18       55.551307     55.550447   0.000000   0.000000
   19       55.943082     55.941966   0.000000   0.000000
   20       56.425379     56.424050   0.000000   0.000000
   21       56.954771     56.953230   0.000000   0.000000
   22       58.473703     58.471633   0.000000   0.000000
   23       59.362837     59.360235   0.000000   0.000000
   24       62.309537     62.308730   0.000000   0.000000
   25       67.757619     67.754366   0.000000   0.000000
   26       68.290604     68.288497   0.000000   0.000000
   27       70.791885     70.789379   0.000000   0.000000
   28       72.158839     72.157001   0.000000   0.000000
   29       72.715033     72.713564   0.000000   0.000000
   30       73.974400     73.972991   0.000000   0.000000
   31       78.760607     78.758305   0.000000   0.000000
   32       79.887503     79.884668   0.000000   0.000000
   33       81.299158     81.296181   0.000000   0.000000
   34       82.708399     82.706395   0.000000   0.000000
   35       82.869066     82.867758   0.000000   0.000000
   36       84.835964     84.834844   0.000000   0.000000
   37       86.160931     86.160220   0.000000   0.000000
   38       87.037602     87.035851   0.000000   0.000000
   39       89.248162     89.247109   0.000000   0.000000
   40       89.303741     89.301621   0.000000   0.000000
   41       90.901866     90.900864   0.000000   0.000000
   42       91.851274     91.851198   0.000000   0.000000
   43       93.779203     93.775520   0.000000   0.000000
   44       93.805388     93.803608   0.000000   0.000000
   45       94.475363     94.473294   0.000000   0.000000
   46       96.082729     96.080522   0.000000   0.000000
   47       97.320547     97.319670   0.000000   0.000000
   48       97.358796     97.358618   0.000000   0.000000

  0.2307692E+00  0.7692308E-01  0.1260194E-14  0.1092399E-01
    1       -1.874150     -1.875847   1.000000   1.000000
    2       13.177229     13.175384   0.000000   0.000000
    3       17.570703     17.568304   0.000000   0.000000
    4       19.036726     19.034471   0.000000   0.000000
    5       21.243451     21.240433   0.000000   0.000000
    6       23.420819     23.417380   0.000000   0.000000
    7       24.147139     24.144534   0.000000   0.000000
    8       25.049585     25.045980   0.000000   0.000000
    9       27.388024     27.384933   0.000000   0.000000
   10       28.582734     28.580280   0.000000   0.000000
   11       31.468227     31.466461   0.000000   0.000000
   12       36.822794     36.821110   0.000000   0.000000
   13       37.275356     37.273359   0.000000   0.000000
   14       39.438913     39.436303   0.000000   0.000000
   15       45.722219     45.720074   0.000000   0.000000
   16       49.187452     49.185500   0.000000   0.000000
   17       50.805296     50.803243   0.000000   0.000000
   18       54.252355     54.251248   0.000000   0.000000
   19       55.655294     55.654562   0.000000   0.000000
   20       56.285917     56.284678   0.000000   0.000000
   21       57.025817     57.024389   0.000000   0.000000
   22       58.923357     58.921191   0.000000   0.000000
   23       58.933447     58.931320   0.000000   0.000000
   24       62.330980     62.329878   0.000000   0.000000
   25       66.501377     66.499254   0.000000   0.000000
   26       68.256341     68.253018   0.000000   0.000000
   27       70.327498     70.325128   0.000000   0.000000
   28       71.897253     71.895827   0.000000   0.000000
   29       73.180646     73.179227   0.000000   0.000000
   30       75.262876     75.260672   0.000000   0.000000
   31       76.390707     76.387755   0.000000   0.000000
   32       77.183848     77.182265   0.000000   0.000000
   33       80.057517     80.054881   0.000000   0.000000
   34       81.350806     81.350093   0.000000   0.000000
   35       81.532778     81.531410   0.000000   0.000000
   36       82.784761     82.783062   0.000000   0.000000
   37       84.429421     84.429547   0.000000   0.000000
   38       86.065509     86.063582   0.000000   0.000000
   39       86.813279     86.810860   0.000000   0.000000
   40       87.306372     87.305785   0.000000   0.000000
   41       90.085837     90.084004   0.000000   0.000000
   42       92.297941     92.297723   0.000000   0.000000
   43       92.472846     92.470853   0.000000   0.000000
   44       93.553451     93.550366   0.000000   0.000000
   45       94.777510     94.775988   0.000000   0.000000
   46       97.107822     97.106856   0.000000   0.000000
   47       98.976261     98.975458   0.000000   0.000000
   48       99.708441     99.708072   0.000000   0.000000

  0.3076923E+00  0.7692308E-01  0.1262044E-14  0.1092399E-01
    1       -0.870988     -0.872685   1.000000   1.000000
    2       10.338073     10.336265  -0.004905  -0.004977
    3       17.264817     17.262397   0.000000   0.000000
    4       18.794413     18.792103   0.000000   0.000000
    5       19.763332     19.760592   0.000000   0.000000
    6       23.769049     23.765956   0.000000   0.000000
    7       23.866581     23.863318   0.000000   0.000000
    8       25.404303     25.401425   0.000000   0.000000
    9       27.323365     27.320953   0.000000   0.000000
   10       29.220840     29.217231   0.000000   0.000000
   11       34.273947     34.271868   0.000000   0.000000
   12       39.827112     39.824998   0.000000   0.000000
   13       41.018632     41.016104   0.000000   0.000000
   14       42.190074     42.187184   0.000000   0.000000
   15       45.620890     45.619358   0.000000   0.000000
   16       47.539541     47.537822   0.000000   0.000000
   17       48.295595     48.293691   0.000000   0.000000
   18       52.502951     52.502075   0.000000   0.000000
   19       55.738057     55.737248   0.000000   0.000000
   20       56.298468     56.297243   0.000000   0.000000
   21       57.116233     57.114606   0.000000   0.000000
   22       57.991909     57.990456   0.000000   0.000000