       N       E                     dE             d eps       ncg     rms          rms(c)
DAV:   1    -0.363157429123E+01   -0.36316E+01   -0.86213E+02 23088   0.337E+01
DAV:   2    -0.368288787460E+01   -0.51314E-01   -0.51647E-01 20976   0.109E+00
DAV:   3    -0.368289019538E+01   -0.23208E-05   -0.23608E-05 23904   0.678E-03
DAV:   4    -0.368289019479E+01    0.59167E-09   -0.11821E-10 23616   0.101E-05
DAV:   5    -0.368289019552E+01   -0.73287E-09    0.39079E-13 23328   0.421E-09    0.175E+00
RMM:   6    -0.375309128610E+01   -0.70201E-01   -0.23795E-03 16134   0.763E-02    0.829E-01
RMM:   7    -0.374465273389E+01    0.84386E-02   -0.88430E-04 16747   0.442E-02    0.666E-01
RMM:   8    -0.374442288874E+01    0.22985E-03   -0.19195E-04 16702   0.233E-02    0.214E-01
RMM:   9    -0.374442004961E+01    0.28391E-05   -0.24971E-05 17483   0.770E-03
   1 F= -.37444200E+01 E0= -.37444200E+01  d E =0.000000E+00  mag=     0.0016
