 vasp.6.2.1 16May21 (build Aug 15 2022 14:47:30) complex                         
 executed on             LinuxGNU date 2025.12.11  13:46:17
 running on   48 total cores
 distrk:  each k-point on   48 cores,    1 groups
 distr:  one band on NCORE=   1 cores,   48 groups


--------------------------------------------------------------------------------------------------------


 INCAR:
   ALGO = Fast
   EDIFF = 5e-05
   ENCUT = 520.0
   ISMEAR = -5
   ISPIN = 2
   LASPH = True
   LCHARG = True
   LORBIT = 11
   LREAL = False
   LWAVE = False
   MAGMOM = 1*0.6
   NELM = 100
   NSW = 0
   PREC = Accurate
   SIGMA = 0.05

 POTCAR:    PAW_PBE Al 04Jan2001                  
 -----------------------------------------------------------------------------
|                                                                             |
|           W    W    AA    RRRRR   N    N  II  N    N   GGGG   !!!           |
|           W    W   A  A   R    R  NN   N  II  NN   N  G    G  !!!           |
|           W    W  A    A  R    R  N N  N  II  N N  N  G       !!!           |
|           W WW W  AAAAAA  RRRRR   N  N N  II  N  N N  G  GGG   !            |
|           WW  WW  A    A  R   R   N   NN  II  N   NN  G    G                |
|           W    W  A    A  R    R  N    N  II  N    N   GGGG   !!!           |
|                                                                             |
|     For optimal performance we recommend to set                             |
|       NCORE = 2 up to number-of-cores-per-socket                            |
|     NCORE specifies how many cores store one orbital (NPAR=cpu/NCORE).      |
|     This setting can greatly improve the performance of VASP for DFT.       |
|     The default, NCORE=1 might be grossly inefficient on modern             |
|     multi-core architectures or massively parallel machines. Do your        |
|     own testing! More info at https://www.vasp.at/wiki/index.php/NCORE      |
|     Unfortunately you need to use the default for GW and RPA                |
|     calculations (for HF NCORE is supported but not extensively tested      |
|     yet).                                                                   |
|                                                                             |
 -----------------------------------------------------------------------------

 POTCAR:    PAW_PBE Al 04Jan2001                  
   VRHFIN =Al: s2p1                                                                                 
   LEXCH  = PE                                                                                      
   EATOM  =    53.5387 eV,    3.9350 Ry                                                             
                                                                                                    
   TITEL  = PAW_PBE Al 04Jan2001                                                                    
   LULTRA =        F    use ultrasoft PP ?                                                          
   IUNSCR =        1    unscreen: 0-lin 1-nonlin 2-no                                               
   RPACOR =    1.500    partial core radius                                                         
   POMASS =   26.981; ZVAL   =    3.000    mass and valenz                                          
   RCORE  =    1.900    outmost cutoff radius                                                       
   RWIGS  =    2.650; RWIGS  =    1.402    wigner-seitz radius (au A)                               
   ENMAX  =  240.300; ENMIN  =  180.225 eV                                                          
   ICORE  =        2    local potential                                                             
   LCOR   =        T    correct aug charges                                                         
   LPAW   =        T    paw PP                                                                      
   EAUG   =  291.052                                                                                
   DEXC   =    0.000                                                                                
   RMAX   =    1.939    core radius for proj-oper                                                   
   RAUG   =    1.300    factor for augmentation sphere                                              
   RDEP   =    1.966    radius for radial grids                                                     
   RDEPT  =    1.856    core radius for aug-charge                                                  
                                                                                                    
   Atomic configuration                                                                             
    6 entries                                                                                       
     n  l   j            E        occ.                                                              
     1  0  0.50     -1511.1048   2.0000                                                             
     2  0  0.50      -108.1629   2.0000                                                             
     2  1  1.50       -69.6402   6.0000                                                             
     3  0  0.50        -7.7528   2.0000                                                             
     3  1  1.50        -2.7121   1.0000                                                             
     3  2  2.50        -2.7212   0.0000                                                             
   Description                                                                                      
     l       E           TYP  RCUT    TYP  RCUT                                                     
     0     -7.7528455     23  1.900                                                                 
     0     -3.3096929     23  1.900                                                                 
     1     -2.7120682     23  1.900                                                                 
     1     13.6058260     23  1.900                                                                 
     2     -2.7211652      7  1.900                                                                 
  local pseudopotential read in
  partial core-charges read in
  partial kinetic energy density read in
  atomic valenz-charges read in
  non local Contribution for L=           0  read in
    real space projection operators read in
  non local Contribution for L=           0  read in
    real space projection operators read in
  non local Contribution for L=           1  read in
    real space projection operators read in
  non local Contribution for L=           1  read in
    real space projection operators read in
    PAW grid and wavefunctions read in

   number of l-projection  operators is LMAX  =           4
   number of lm-projection operators is LMMAX =           8

  PAW_PBE Al 04Jan2001                  :
 energy of atom  1       EATOM=  -53.5387
 kinetic energy error for atom=    0.0002 (will be added to EATOM!!)


 POSCAR: # Generated by Masgent for k-point conve
  positions in direct lattice
  No initial velocities read in
 exchange correlation table for  LEXCH =        8
   RHO(1)=    0.500       N(1)  =     2000
   RHO(2)=  100.500       N(2)  =     4000

 VTST: version 4.2, (08/11/21)

 CHAIN: initializing optimizer
 
 OPT: Using VASP Dynamics algorithm
 CHAIN: Read ICHAIN            0

 POSCAR: # Generated by Masgent for k-point conve
  positions in direct lattice
  No initial velocities read in



--------------------------------------------------------------------------------------------------------


 ion  position               nearest neighbor table
   1  0.000  0.000  0.000-

  LATTYP: Found a face centered cubic cell.
 ALAT       =     4.0480000000
  
  Lattice vectors:
  
 A1 = (   0.0000000000,   2.0240000000,   2.0240000000)
 A2 = (   2.0240000000,   0.0000000000,   2.0240000000)
 A3 = (   2.0240000000,   2.0240000000,   0.0000000000)


Analysis of symmetry for initial positions (statically):
=====================================================================
 Subroutine PRICEL returns:
 Original cell was already a primitive cell.
 

 Routine SETGRP: Setting up the symmetry group for a 
 face centered cubic supercell.


 Subroutine GETGRP returns: Found 48 space group operations
 (whereof 48 operations were pure point group operations)
 out of a pool of 48 trial point group operations.


The static configuration has the point symmetry O_h .


Analysis of symmetry for dynamics (positions and initial velocities):
=====================================================================
 Subroutine PRICEL returns:
 Original cell was already a primitive cell.
 

 Routine SETGRP: Setting up the symmetry group for a 
 face centered cubic supercell.


 Subroutine GETGRP returns: Found 48 space group operations
 (whereof 48 operations were pure point group operations)
 out of a pool of 48 trial point group operations.


The dynamic configuration has the point symmetry O_h .


Analysis of structural, dynamic, and magnetic symmetry:
=====================================================================
 Subroutine PRICEL returns:
 Original cell was already a primitive cell.
 

 Routine SETGRP: Setting up the symmetry group for a 
 face centered cubic supercell.


 Subroutine GETGRP returns: Found 48 space group operations
 (whereof 48 operations were pure point group operations)
 out of a pool of 48 trial point group operations.


The overall configuration has the point symmetry O_h .


 Subroutine INISYM returns: Found 48 space group operations
 (whereof 48 operations are pure point group operations),
 and found     1 'primitive' translations


----------------------------------------------------------------------------------------

                                     Primitive cell                                     

  volume of cell :      16.5829

  direct lattice vectors                    reciprocal lattice vectors
     0.000000000  2.024000000  2.024000000    -0.247035573  0.247035573  0.247035573
     2.024000000  0.000000000  2.024000000     0.247035573 -0.247035573  0.247035573
     2.024000000  2.024000000  0.000000000     0.247035573  0.247035573 -0.247035573

  length of vectors
     2.862368250  2.862368250  2.862368250     0.427878164  0.427878164  0.427878164

  position of ions in fractional coordinates (direct lattice)
     0.000000000  0.000000000  0.000000000

  ion indices of the primitive-cell ions
   primitive index   ion index
                 1           1

----------------------------------------------------------------------------------------



 KPOINTS: # Generated by Masgent for k-point conve

Automatic generation of k-mesh.
 Grid dimensions read from file:
 generate k-points for:   13   13   13

 Generating k-lattice:

  Cartesian coordinates                     Fractional coordinates (reciprocal lattice)
    -0.019002736  0.019002736  0.019002736     0.076923077  0.000000000  0.000000000
     0.019002736 -0.019002736  0.019002736     0.000000000  0.076923077  0.000000000
     0.019002736  0.019002736 -0.019002736     0.000000000  0.000000000  0.076923077

  Length of vectors
     0.032913705  0.032913705  0.032913705

  Shift w.r.t. Gamma in fractional coordinates (k-lattice)
     0.000000000  0.000000000  0.000000000

 TETIRR: Found    322 inequivalent tetrahedra from    13182
 
 Subroutine IBZKPT returns following result:
 ===========================================
 
 Found     84 irreducible k-points:
 
 Following reciprocal coordinates:
            Coordinates               Weight
  0.000000  0.000000  0.000000      1.000000
  0.076923  0.000000  0.000000      8.000000
  0.153846  0.000000  0.000000      8.000000
  0.230769  0.000000  0.000000      8.000000
  0.307692  0.000000  0.000000      8.000000
  0.384615  0.000000  0.000000      8.000000
  0.461538  0.000000  0.000000      8.000000
  0.076923  0.076923  0.000000      6.000000
  0.153846  0.076923  0.000000     24.000000
  0.230769  0.076923  0.000000     24.000000
  0.307692  0.076923  0.000000     24.000000
  0.384615  0.076923  0.000000     24.000000
  0.461538  0.076923  0.000000     24.000000
 -0.461538  0.076923  0.000000     24.000000
 -0.384615  0.076923  0.000000     24.000000
 -0.307692  0.076923  0.000000     24.000000
 -0.230769  0.076923  0.000000     24.000000
 -0.153846  0.076923  0.000000     24.000000
 -0.076923  0.076923  0.000000     12.000000
  0.153846  0.153846  0.000000      6.000000
  0.230769  0.153846  0.000000     24.000000
  0.307692  0.153846  0.000000     24.000000
  0.384615  0.153846  0.000000     24.000000
  0.461538  0.153846  0.000000     24.000000
 -0.461538  0.153846  0.000000     24.000000
 -0.384615  0.153846  0.000000     24.000000
 -0.307692  0.153846  0.000000     24.000000
 -0.230769  0.153846  0.000000     24.000000
 -0.153846  0.153846  0.000000     12.000000
  0.230769  0.230769  0.000000      6.000000
  0.307692  0.230769  0.000000     24.000000
  0.384615  0.230769  0.000000     24.000000
  0.461538  0.230769  0.000000     24.000000
 -0.461538  0.230769  0.000000     24.000000
 -0.384615  0.230769  0.000000     24.000000
 -0.307692  0.230769  0.000000     24.000000
 -0.230769  0.230769  0.000000     12.000000
  0.307692  0.307692  0.000000      6.000000
  0.384615  0.307692  0.000000     24.000000
  0.461538  0.307692  0.000000     24.000000
 -0.461538  0.307692  0.000000     24.000000
 -0.384615  0.307692  0.000000     24.000000
 -0.307692  0.307692  0.000000     12.000000
  0.384615  0.384615  0.000000      6.000000
  0.461538  0.384615  0.000000     24.000000
 -0.461538  0.384615  0.000000     24.000000
 -0.384615  0.384615  0.000000     12.000000
  0.461538  0.461538  0.000000      6.000000
 -0.461538  0.461538  0.000000     12.000000
  0.230769  0.153846  0.076923     24.000000
  0.307692  0.153846  0.076923     48.000000
  0.384615  0.153846  0.076923     48.000000
  0.461538  0.153846  0.076923     48.000000
 -0.461538  0.153846  0.076923     48.000000
  0.307692  0.230769  0.076923     24.000000
  0.384615  0.230769  0.076923     48.000000
  0.461538  0.230769  0.076923     48.000000
 -0.461538  0.230769  0.076923     48.000000
 -0.384615  0.230769  0.076923     48.000000
 -0.307692  0.230769  0.076923     48.000000
 -0.230769  0.230769  0.076923     48.000000
 -0.153846  0.230769  0.076923     24.000000
  0.384615  0.307692  0.076923     24.000000
  0.461538  0.307692  0.076923     48.000000
 -0.461538  0.307692  0.076923     48.000000
 -0.384615  0.307692  0.076923     48.000000
 -0.307692  0.307692  0.076923     48.000000
 -0.230769  0.307692  0.076923     24.000000
  0.461538  0.384615  0.076923     24.000000
 -0.461538  0.384615  0.076923     48.000000
 -0.384615  0.384615  0.076923     48.000000
 -0.307692  0.384615  0.076923     24.000000
 -0.461538  0.461538  0.076923     24.000000
 -0.384615  0.461538  0.076923     24.000000
  0.461538  0.307692  0.153846     24.000000
 -0.461538  0.307692  0.153846     48.000000
 -0.384615  0.307692  0.153846     48.000000
 -0.461538  0.384615  0.153846     24.000000
 -0.384615  0.384615  0.153846     48.000000
 -0.307692  0.384615  0.153846     48.000000
 -0.230769  0.384615  0.153846     24.000000
 -0.384615  0.461538  0.153846     24.000000
 -0.307692  0.461538  0.153846     24.000000
 -0.307692  0.461538  0.230769     24.000000
 
 Following cartesian coordinates:
            Coordinates               Weight
  0.000000  0.000000  0.000000      1.000000
 -0.019003  0.019003  0.019003      8.000000
 -0.038005  0.038005  0.038005      8.000000
 -0.057008  0.057008  0.057008      8.000000
 -0.076011  0.076011  0.076011      8.000000
 -0.095014  0.095014  0.095014      8.000000
 -0.114016  0.114016  0.114016      8.000000
  0.000000  0.000000  0.038005      6.000000
 -0.019003  0.019003  0.057008     24.000000
 -0.038005  0.038005  0.076011     24.000000
 -0.057008  0.057008  0.095014     24.000000
 -0.076011  0.076011  0.114016     24.000000
 -0.095014  0.095014  0.133019     24.000000
  0.133019 -0.133019 -0.095014     24.000000
  0.114016 -0.114016 -0.076011     24.000000
  0.095014 -0.095014 -0.057008     24.000000
  0.076011 -0.076011 -0.038005     24.000000
  0.057008 -0.057008 -0.019003     24.000000
  0.038005 -0.038005  0.000000     12.000000
  0.000000  0.000000  0.076011      6.000000
 -0.019003  0.019003  0.095014     24.000000
 -0.038005  0.038005  0.114016     24.000000
 -0.057008  0.057008  0.133019     24.000000
 -0.076011  0.076011  0.152022     24.000000
  0.152022 -0.152022 -0.076011     24.000000
  0.133019 -0.133019 -0.057008     24.000000
  0.114016 -0.114016 -0.038005     24.000000
  0.095014 -0.095014 -0.019003     24.000000
  0.076011 -0.076011  0.000000     12.000000
  0.000000  0.000000  0.114016      6.000000
 -0.019003  0.019003  0.133019     24.000000
 -0.038005  0.038005  0.152022     24.000000
 -0.057008  0.057008  0.171025     24.000000
  0.171025 -0.171025 -0.057008     24.000000
  0.152022 -0.152022 -0.038005     24.000000
  0.133019 -0.133019 -0.019003     24.000000
  0.114016 -0.114016  0.000000     12.000000
  0.000000  0.000000  0.152022      6.000000
 -0.019003  0.019003  0.171025     24.000000
 -0.038005  0.038005  0.190027     24.000000
  0.190027 -0.190027 -0.038005     24.000000
  0.171025 -0.171025 -0.019003     24.000000
  0.152022 -0.152022  0.000000     12.000000
  0.000000  0.000000  0.190027      6.000000
 -0.019003  0.019003  0.209030     24.000000
  0.209030 -0.209030 -0.019003     24.000000
  0.190027 -0.190027  0.000000     12.000000
  0.000000  0.000000  0.228033      6.000000
  0.228033 -0.228033  0.000000     12.000000
  0.000000  0.038005  0.076011     24.000000
 -0.019003  0.057008  0.095014     48.000000
 -0.038005  0.076011  0.114016     48.000000
 -0.057008  0.095014  0.133019     48.000000
  0.171025 -0.133019 -0.095014     48.000000
  0.000000  0.038005  0.114016     24.000000
 -0.019003  0.057008  0.133019     48.000000
 -0.038005  0.076011  0.152022     48.000000
  0.190027 -0.152022 -0.076011     48.000000
  0.171025 -0.133019 -0.057008     48.000000
  0.152022 -0.114016 -0.038005     48.000000
  0.133019 -0.095014 -0.019003     48.000000
  0.114016 -0.076011  0.000000     24.000000
  0.000000  0.038005  0.152022     24.000000
 -0.019003  0.057008  0.171025     48.000000
  0.209030 -0.171025 -0.057008     48.000000
  0.190027 -0.152022 -0.038005     48.000000
  0.171025 -0.133019 -0.019003     48.000000
  0.152022 -0.114016 -0.000000     24.000000
  0.000000  0.038005  0.190027     24.000000
  0.228033 -0.190027 -0.038005     48.000000
  0.209030 -0.171025 -0.019003     48.000000
  0.190027 -0.152022  0.000000     24.000000
  0.247036 -0.209030 -0.019003     24.000000
  0.228033 -0.190027 -0.000000     24.000000
  0.000000  0.076011  0.152022     24.000000
  0.228033 -0.152022 -0.076011     48.000000
  0.209030 -0.133019 -0.057008     48.000000
  0.247036 -0.171025 -0.057008     24.000000
  0.228033 -0.152022 -0.038005     48.000000
  0.209030 -0.133019 -0.019003     48.000000
  0.190027 -0.114016  0.000000     24.000000
  0.247036 -0.171025 -0.019003     24.000000
  0.228033 -0.152022  0.000000     24.000000
  0.247036 -0.133019 -0.019003     24.000000
 


--------------------------------------------------------------------------------------------------------




 Dimension of arrays:
   k-points           NKPTS =     84   k-points in BZ     NKDIM =     84   number of bands    NBANDS=     48
   number of dos      NEDOS =    301   number of ions     NIONS =      1
   non local maximal  LDIM  =      4   non local SUM 2l+1 LMDIM =      8
   total plane-waves  NPLWV =  13824
   max r-space proj   IRMAX =      1   max aug-charges    IRDMAX=  32640
   dimension x,y,z NGX =    24 NGY =   24 NGZ =   24
   dimension x,y,z NGXF=    48 NGYF=   48 NGZF=   48
   support grid    NGXF=    48 NGYF=   48 NGZF=   48
   ions per type =               1
   NGX,Y,Z   is equivalent  to a cutoff of  13.94, 13.94, 13.94 a.u.
   NGXF,Y,Z  is equivalent  to a cutoff of  27.88, 27.88, 27.88 a.u.

 SYSTEM =  unknown system                          
 POSCAR =  # Generated by Masgent for k-point conve

 Startparameter for this run:
   NWRITE =      2    write-flag & timer
   PREC   = accura    normal or accurate (medium, high low for compatibility)
   ISTART =      0    job   : 0-new  1-cont  2-samecut
   ICHARG =      2    charge: 1-file 2-atom 10-const
   ISPIN  =      2    spin polarized calculation?
   LNONCOLLINEAR =      F non collinear calculations
   LSORBIT =      F    spin-orbit coupling
   INIWAV =      1    electr: 0-lowe 1-rand  2-diag
   LASPH  =      T    aspherical Exc in radial PAW
 Electronic Relaxation 1
   ENCUT  =  520.0 eV  38.22 Ry    6.18 a.u.   5.32  5.32  5.32*2*pi/ulx,y,z
   ENINI  =  520.0     initial cutoff
   ENAUG  =  291.1 eV  augmentation charge cutoff
   NELM   =    100;   NELMIN=  2; NELMDL= -5     # of ELM steps 
   EDIFF  = 0.5E-04   stopping-criterion for ELM
   LREAL  =      F    real-space projection
   NLSPLINE    = F    spline interpolate recip. space projectors
   LCOMPAT=      F    compatible to vasp.4.4
   GGA_COMPAT  = T    GGA compatible to vasp.4.4-vasp.4.6
   LMAXPAW     = -100 max onsite density
   LMAXMIX     =    2 max onsite mixed and CHGCAR
   VOSKOWN=      0    Vosko Wilk Nusair interpolation
   ROPT   =    0.00000
 Ionic relaxation
   EDIFFG = 0.5E-03   stopping-criterion for IOM
   NSW    =      0    number of steps for IOM
   NBLOCK =      1;   KBLOCK =      1    inner block; outer block 
   IBRION =     -1    ionic relax: 0-MD 1-quasi-New 2-CG
   NFREE  =      0    steps in history (QN), initial steepest desc. (CG)
   ISIF   =      2    stress and relaxation
   IWAVPR =     10    prediction:  0-non 1-charg 2-wave 3-comb
   ISYM   =      2    0-nonsym 1-usesym 2-fastsym
   LCORR  =      T    Harris-Foulkes like correction to forces

   POTIM  = 0.5000    time-step for ionic-motion
   TEIN   =    0.0    initial temperature
   TEBEG  =    0.0;   TEEND  =   0.0 temperature during run
   SMASS  =  -3.00    Nose mass-parameter (am)
   estimated Nose-frequenzy (Omega)   =  0.10E-29 period in steps = 0.13E+47 mass=  -0.187E-27a.u.
   SCALEE = 1.0000    scale energy and forces
   NPACO  =    256;   APACO  = 16.0  distance and # of slots for P.C.
   PSTRESS=    0.0 pullay stress

  Mass of Ions in am
   POMASS =  26.98
  Ionic Valenz
   ZVAL   =   3.00
  Atomic Wigner-Seitz radii
   RWIGS  =  -1.00
  virtual crystal weights 
   VCA    =   1.00
   NELECT =       3.0000    total number of electrons
   NUPDOWN=      -1.0000    fix difference up-down

 DOS related values:
   EMIN   =  10.00;   EMAX   =-10.00  energy-range for DOS
   EFERMI =   0.00
   ISMEAR =    -5;   SIGMA  =   0.05  broadening in eV -4-tet -1-fermi 0-gaus

 Electronic relaxation 2 (details)
   IALGO  =     68    algorithm
   LDIAG  =      T    sub-space diagonalisation (order eigenvalues)
   LSUBROT=      F    optimize rotation matrix (better conditioning)
   TURBO    =      0    0=normal 1=particle mesh
   IRESTART =      0    0=no restart 2=restart with 2 vectors
   NREBOOT  =      0    no. of reboots
   NMIN     =      0    reboot dimension
   EREF     =   0.00    reference energy to select bands
   IMIX   =      4    mixing-type and parameters
     AMIX     =   0.40;   BMIX     =  1.00
     AMIX_MAG =   1.60;   BMIX_MAG =  1.00
     AMIN     =   0.10
     WC   =   100.;   INIMIX=   1;  MIXPRE=   1;  MAXMIX= -45

 Intra band minimization:
   WEIMIN = 0.0000     energy-eigenvalue tresh-hold
   EBREAK =  0.26E-06  absolut break condition
   DEPER  =   0.30     relativ break condition  

   TIME   =   0.40     timestep for ELM

  volume/ion in A,a.u.               =      16.58       111.91
  Fermi-wavevector in a.u.,A,eV,Ry     =   0.925894  1.749687 11.664006  0.857280
  Thomas-Fermi vector in A             =   2.051798

 Write flags
   LWAVE        =      F    write WAVECAR
   LDOWNSAMPLE  =      F    k-point downsampling of WAVECAR
   LCHARG       =      T    write CHGCAR
   LVTOT        =      F    write LOCPOT, total local potential
   LVHAR        =      F    write LOCPOT, Hartree potential only
   LELF         =      F    write electronic localiz. function (ELF)
   LORBIT       =     11    0 simple, 1 ext, 2 COOP (PROOUT), +10 PAW based schemes


 Dipole corrections
   LMONO  =      F    monopole corrections only (constant potential shift)
   LDIPOL =      F    correct potential (dipole corrections)
   IDIPOL =      0    1-x, 2-y, 3-z, 4-all directions 
   EPSILON=  1.0000000 bulk dielectric constant

 Exchange correlation treatment:
   GGA     =    --    GGA type
   LEXCH   =     8    internal setting for exchange type
   VOSKOWN=      0    Vosko Wilk Nusair interpolation
   LHFCALC =     F    Hartree Fock is set to
   LHFONE  =     F    Hartree Fock one center treatment
   AEXX    =    0.0000 exact exchange contribution

 Linear response parameters
   LEPSILON=     F    determine dielectric tensor
   LRPA    =     F    only Hartree local field effects (RPA)
   LNABLA  =     F    use nabla operator in PAW spheres
   LVEL    =     F    velocity operator in full k-point grid
   LINTERFAST=   F  fast interpolation
   KINTER  =     0    interpolate to denser k-point grid
   CSHIFT  =0.1000    complex shift for real part using Kramers Kronig
   OMEGAMAX=  -1.0    maximum frequency
   DEG_THRESHOLD= 0.2000000E-02 threshold for treating states as degnerate
   RTIME   =   -0.100 relaxation time in fs
  (WPLASMAI=    0.000 imaginary part of plasma frequency in eV, 0.658/RTIME)
   DFIELD  = 0.0000000 0.0000000 0.0000000 field for delta impulse in time

 Orbital magnetization related:
   ORBITALMAG=     F  switch on orbital magnetization
   LCHIMAG   =     F  perturbation theory with respect to B field
   DQ        =  0.001000  dq finite difference perturbation B field
   LLRAUG    =     F  two centre corrections for induced B field



--------------------------------------------------------------------------------------------------------


 Static calculation
 charge density and potential will be updated during run
 spin polarized calculation
 RMM-DIIS sequential band-by-band and
  variant of blocked Davidson during initial phase
 perform sub-space diagonalisation
    before iterative eigenvector-optimisation
 modified Broyden-mixing scheme, WC =      100.0
 initial mixing is a Kerker type mixing with AMIX =  0.4000 and BMIX =      1.0000
 Hartree-type preconditioning will be used
 using additional bands           46
 reciprocal scheme for non local part
 use partial core corrections
 calculate Harris-corrections to forces   (improved forces if not selfconsistent)
 use gradient corrections 
 use of overlap-Matrix (Vanderbilt PP)
 Fermi weights with tetrahedron method with Bloechl corrections


--------------------------------------------------------------------------------------------------------


  energy-cutoff  :      520.00
  volume of cell :       16.58
      direct lattice vectors                 reciprocal lattice vectors
     0.000000000  2.024000000  2.024000000    -0.247035573  0.247035573  0.247035573
     2.024000000  0.000000000  2.024000000     0.247035573 -0.247035573  0.247035573
     2.024000000  2.024000000  0.000000000     0.247035573  0.247035573 -0.247035573

  length of vectors
     2.862368250  2.862368250  2.862368250     0.427878164  0.427878164  0.427878164



 k-points in units of 2pi/SCALE and weight: # Generated by Masgent for k-point conve
   0.00000000  0.00000000  0.00000000       0.000
  -0.01900274  0.01900274  0.01900274       0.004
  -0.03800547  0.03800547  0.03800547       0.004
  -0.05700821  0.05700821  0.05700821       0.004
  -0.07601095  0.07601095  0.07601095       0.004
  -0.09501368  0.09501368  0.09501368       0.004
  -0.11401642  0.11401642  0.11401642       0.004
   0.00000000  0.00000000  0.03800547       0.003
  -0.01900274  0.01900274  0.05700821       0.011
  -0.03800547  0.03800547  0.07601095       0.011
  -0.05700821  0.05700821  0.09501368       0.011
  -0.07601095  0.07601095  0.11401642       0.011
  -0.09501368  0.09501368  0.13301915       0.011
   0.13301915 -0.13301915 -0.09501368       0.011
   0.11401642 -0.11401642 -0.07601095       0.011
   0.09501368 -0.09501368 -0.05700821       0.011
   0.07601095 -0.07601095 -0.03800547       0.011
   0.05700821 -0.05700821 -0.01900274       0.011
   0.03800547 -0.03800547  0.00000000       0.005
   0.00000000  0.00000000  0.07601095       0.003
  -0.01900274  0.01900274  0.09501368       0.011
  -0.03800547  0.03800547  0.11401642       0.011
  -0.05700821  0.05700821  0.13301915       0.011
  -0.07601095  0.07601095  0.15202189       0.011
   0.15202189 -0.15202189 -0.07601095       0.011
   0.13301915 -0.13301915 -0.05700821       0.011
   0.11401642 -0.11401642 -0.03800547       0.011
   0.09501368 -0.09501368 -0.01900274       0.011
   0.07601095 -0.07601095  0.00000000       0.005
   0.00000000  0.00000000  0.11401642       0.003
  -0.01900274  0.01900274  0.13301915       0.011
  -0.03800547  0.03800547  0.15202189       0.011
  -0.05700821  0.05700821  0.17102463       0.011
   0.17102463 -0.17102463 -0.05700821       0.011
   0.15202189 -0.15202189 -0.03800547       0.011
   0.13301915 -0.13301915 -0.01900274       0.011
   0.11401642 -0.11401642  0.00000000       0.005
   0.00000000  0.00000000  0.15202189       0.003
  -0.01900274  0.01900274  0.17102463       0.011
  -0.03800547  0.03800547  0.19002736       0.011
   0.19002736 -0.19002736 -0.03800547       0.011
   0.17102463 -0.17102463 -0.01900274       0.011
   0.15202189 -0.15202189  0.00000000       0.005
   0.00000000  0.00000000  0.19002736       0.003
  -0.01900274  0.01900274  0.20903010       0.011
   0.20903010 -0.20903010 -0.01900274       0.011
   0.19002736 -0.19002736  0.00000000       0.005
   0.00000000  0.00000000  0.22803284       0.003
   0.22803284 -0.22803284  0.00000000       0.005
   0.00000000  0.03800547  0.07601095       0.011
  -0.01900274  0.05700821  0.09501368       0.022
  -0.03800547  0.07601095  0.11401642       0.022
  -0.05700821  0.09501368  0.13301915       0.022
   0.17102463 -0.13301915 -0.09501368       0.022
   0.00000000  0.03800547  0.11401642       0.011
  -0.01900274  0.05700821  0.13301915       0.022
  -0.03800547  0.07601095  0.15202189       0.022
   0.19002736 -0.15202189 -0.07601095       0.022
   0.17102463 -0.13301915 -0.05700821       0.022
   0.15202189 -0.11401642 -0.03800547       0.022
   0.13301915 -0.09501368 -0.01900274       0.022
   0.11401642 -0.07601095  0.00000000       0.011
   0.00000000  0.03800547  0.15202189       0.011
  -0.01900274  0.05700821  0.17102463       0.022
   0.20903010 -0.17102463 -0.05700821       0.022
   0.19002736 -0.15202189 -0.03800547       0.022
   0.17102463 -0.13301915 -0.01900274       0.022
   0.15202189 -0.11401642 -0.00000000       0.011
   0.00000000  0.03800547  0.19002736       0.011
   0.22803284 -0.19002736 -0.03800547       0.022
   0.20903010 -0.17102463 -0.01900274       0.022
   0.19002736 -0.15202189  0.00000000       0.011
   0.24703557 -0.20903010 -0.01900274       0.011
   0.22803284 -0.19002736 -0.00000000       0.011
   0.00000000  0.07601095  0.15202189       0.011
   0.22803284 -0.15202189 -0.07601095       0.022
   0.20903010 -0.13301915 -0.05700821       0.022
   0.24703557 -0.17102463 -0.05700821       0.011
   0.22803284 -0.15202189 -0.03800547       0.022
   0.20903010 -0.13301915 -0.01900274       0.022
   0.19002736 -0.11401642  0.00000000       0.011
   0.24703557 -0.17102463 -0.01900274       0.011
   0.22803284 -0.15202189  0.00000000       0.011
   0.24703557 -0.13301915 -0.01900274       0.011

 k-points in reciprocal lattice and weights: # Generated by Masgent for k-point conve
   0.00000000  0.00000000  0.00000000       0.000
   0.07692308  0.00000000  0.00000000       0.004
   0.15384615  0.00000000  0.00000000       0.004
   0.23076923  0.00000000  0.00000000       0.004
   0.30769231  0.00000000  0.00000000       0.004
   0.38461538  0.00000000  0.00000000       0.004
   0.46153846  0.00000000  0.00000000       0.004
   0.07692308  0.07692308  0.00000000       0.003
   0.15384615  0.07692308  0.00000000       0.011
   0.23076923  0.07692308  0.00000000       0.011
   0.30769231  0.07692308  0.00000000       0.011
   0.38461538  0.07692308  0.00000000       0.011
   0.46153846  0.07692308  0.00000000       0.011
  -0.46153846  0.07692308  0.00000000       0.011
  -0.38461538  0.07692308  0.00000000       0.011
  -0.30769231  0.07692308  0.00000000       0.011
  -0.23076923  0.07692308  0.00000000       0.011
  -0.15384615  0.07692308  0.00000000       0.011
  -0.07692308  0.07692308  0.00000000       0.005
   0.15384615  0.15384615  0.00000000       0.003
   0.23076923  0.15384615  0.00000000       0.011
   0.30769231  0.15384615  0.00000000       0.011
   0.38461538  0.15384615  0.00000000       0.011
   0.46153846  0.15384615  0.00000000       0.011
  -0.46153846  0.15384615  0.00000000       0.011
  -0.38461538  0.15384615  0.00000000       0.011
  -0.30769231  0.15384615  0.00000000       0.011
  -0.23076923  0.15384615  0.00000000       0.011
  -0.15384615  0.15384615  0.00000000       0.005
   0.23076923  0.23076923  0.00000000       0.003
   0.30769231  0.23076923  0.00000000       0.011
   0.38461538  0.23076923  0.00000000       0.011
   0.46153846  0.23076923  0.00000000       0.011
  -0.46153846  0.23076923  0.00000000       0.011
  -0.38461538  0.23076923  0.00000000       0.011
  -0.30769231  0.23076923  0.00000000       0.011
  -0.23076923  0.23076923  0.00000000       0.005
   0.30769231  0.30769231  0.00000000       0.003
   0.38461538  0.30769231  0.00000000       0.011
   0.46153846  0.30769231  0.00000000       0.011
  -0.46153846  0.30769231  0.00000000       0.011
  -0.38461538  0.30769231  0.00000000       0.011
  -0.30769231  0.30769231  0.00000000       0.005
   0.38461538  0.38461538  0.00000000       0.003
   0.46153846  0.38461538  0.00000000       0.011
  -0.46153846  0.38461538  0.00000000       0.011
  -0.38461538  0.38461538  0.00000000       0.005
   0.46153846  0.46153846  0.00000000       0.003
  -0.46153846  0.46153846  0.00000000       0.005
   0.23076923  0.15384615  0.07692308       0.011
   0.30769231  0.15384615  0.07692308       0.022
   0.38461538  0.15384615  0.07692308       0.022
   0.46153846  0.15384615  0.07692308       0.022
  -0.46153846  0.15384615  0.07692308       0.022
   0.30769231  0.23076923  0.07692308       0.011
   0.38461538  0.23076923  0.07692308       0.022
   0.46153846  0.23076923  0.07692308       0.022
  -0.46153846  0.23076923  0.07692308       0.022
  -0.38461538  0.23076923  0.07692308       0.022
  -0.30769231  0.23076923  0.07692308       0.022
  -0.23076923  0.23076923  0.07692308       0.022
  -0.15384615  0.23076923  0.07692308       0.011
   0.38461538  0.30769231  0.07692308       0.011
   0.46153846  0.30769231  0.07692308       0.022
  -0.46153846  0.30769231  0.07692308       0.022
  -0.38461538  0.30769231  0.07692308       0.022
  -0.30769231  0.30769231  0.07692308       0.022
  -0.23076923  0.30769231  0.07692308       0.011
   0.46153846  0.38461538  0.07692308       0.011
  -0.46153846  0.38461538  0.07692308       0.022
  -0.38461538  0.38461538  0.07692308       0.022
  -0.30769231  0.38461538  0.07692308       0.011
  -0.46153846  0.46153846  0.07692308       0.011
  -0.38461538  0.46153846  0.07692308       0.011
   0.46153846  0.30769231  0.15384615       0.011
  -0.46153846  0.30769231  0.15384615       0.022
  -0.38461538  0.30769231  0.15384615       0.022
  -0.46153846  0.38461538  0.15384615       0.011
  -0.38461538  0.38461538  0.15384615       0.022
  -0.30769231  0.38461538  0.15384615       0.022
  -0.23076923  0.38461538  0.15384615       0.011
  -0.38461538  0.46153846  0.15384615       0.011
  -0.30769231  0.46153846  0.15384615       0.011
  -0.30769231  0.46153846  0.23076923       0.011

 position of ions in fractional coordinates (direct lattice) 
   0.00000000  0.00000000  0.00000000

 position of ions in cartesian coordinates  (Angst):
   0.00000000  0.00000000  0.00000000



--------------------------------------------------------------------------------------------------------


 k-point   1 :   0.0000 0.0000 0.0000  plane waves:     459
 k-point   2 :   0.0769 0.0000 0.0000  plane waves:     447
 k-point   3 :   0.1538 0.0000 0.0000  plane waves:     456
 k-point   4 :   0.2308 0.0000 0.0000  plane waves:     453
 k-point   5 :   0.3077 0.0000 0.0000  plane waves:     450
 k-point   6 :   0.3846 0.0000 0.0000  plane waves:     443
 k-point   7 :   0.4615 0.0000 0.0000  plane waves:     449
 k-point   8 :   0.0769 0.0769 0.0000  plane waves:     443
 k-point   9 :   0.1538 0.0769 0.0000  plane waves:     450
 k-point  10 :   0.2308 0.0769 0.0000  plane waves:     454
 k-point  11 :   0.3077 0.0769 0.0000  plane waves:     449
 k-point  12 :   0.3846 0.0769 0.0000  plane waves:     446
 k-point  13 :   0.4615 0.0769 0.0000  plane waves:     445
 k-point  14 :  -0.4615 0.0769 0.0000  plane waves:     449
 k-point  15 :  -0.3846 0.0769 0.0000  plane waves:     445
 k-point  16 :  -0.3077 0.0769 0.0000  plane waves:     445
 k-point  17 :  -0.2308 0.0769 0.0000  plane waves:     455
 k-point  18 :  -0.1538 0.0769 0.0000  plane waves:     453
 k-point  19 :  -0.0769 0.0769 0.0000  plane waves:     449
 k-point  20 :   0.1538 0.1538 0.0000  plane waves:     451
 k-point  21 :   0.2308 0.1538 0.0000  plane waves:     455
 k-point  22 :   0.3077 0.1538 0.0000  plane waves:     446
 k-point  23 :   0.3846 0.1538 0.0000  plane waves:     446
 k-point  24 :   0.4615 0.1538 0.0000  plane waves:     447
 k-point  25 :  -0.4615 0.1538 0.0000  plane waves:     449
 k-point  26 :  -0.3846 0.1538 0.0000  plane waves:     445
 k-point  27 :  -0.3077 0.1538 0.0000  plane waves:     442
 k-point  28 :  -0.2308 0.1538 0.0000  plane waves:     447
 k-point  29 :  -0.1538 0.1538 0.0000  plane waves:     449
 k-point  30 :   0.2308 0.2308 0.0000  plane waves:     455
 k-point  31 :   0.3077 0.2308 0.0000  plane waves:     445
 k-point  32 :   0.3846 0.2308 0.0000  plane waves:     447
 k-point  33 :   0.4615 0.2308 0.0000  plane waves:     447
 k-point  34 :  -0.4615 0.2308 0.0000  plane waves:     445
 k-point  35 :  -0.3846 0.2308 0.0000  plane waves:     447
 k-point  36 :  -0.3077 0.2308 0.0000  plane waves:     442
 k-point  37 :  -0.2308 0.2308 0.0000  plane waves:     441
 k-point  38 :   0.3077 0.3077 0.0000  plane waves:     444
 k-point  39 :   0.3846 0.3077 0.0000  plane waves:     445
 k-point  40 :   0.4615 0.3077 0.0000  plane waves:     445
 k-point  41 :  -0.4615 0.3077 0.0000  plane waves:     444
 k-point  42 :  -0.3846 0.3077 0.0000  plane waves:     448
 k-point  43 :  -0.3077 0.3077 0.0000  plane waves:     443
 k-point  44 :   0.3846 0.3846 0.0000  plane waves:     448
 k-point  45 :   0.4615 0.3846 0.0000  plane waves:     452
 k-point  46 :  -0.4615 0.3846 0.0000  plane waves:     448
 k-point  47 :  -0.3846 0.3846 0.0000  plane waves:     440
 k-point  48 :   0.4615 0.4615 0.0000  plane waves:     452
 k-point  49 :  -0.4615 0.4615 0.0000  plane waves:     450
 k-point  50 :   0.2308 0.1538 0.0769  plane waves:     454
 k-point  51 :   0.3077 0.1538 0.0769  plane waves:     452
 k-point  52 :   0.3846 0.1538 0.0769  plane waves:     444
 k-point  53 :   0.4615 0.1538 0.0769  plane waves:     446
 k-point  54 :  -0.4615 0.1538 0.0769  plane waves:     447
 k-point  55 :   0.3077 0.2308 0.0769  plane waves:     451
 k-point  56 :   0.3846 0.2308 0.0769  plane waves:     447
 k-point  57 :   0.4615 0.2308 0.0769  plane waves:     441
 k-point  58 :  -0.4615 0.2308 0.0769  plane waves:     440
 k-point  59 :  -0.3846 0.2308 0.0769  plane waves:     443
 k-point  60 :  -0.3077 0.2308 0.0769  plane waves:     444
 k-point  61 :  -0.2308 0.2308 0.0769  plane waves:     445
 k-point  62 :  -0.1538 0.2308 0.0769  plane waves:     453
 k-point  63 :   0.3846 0.3077 0.0769  plane waves:     445
 k-point  64 :   0.4615 0.3077 0.0769  plane waves:     448
 k-point  65 :  -0.4615 0.3077 0.0769  plane waves:     446
 k-point  66 :  -0.3846 0.3077 0.0769  plane waves:     445
 k-point  67 :  -0.3077 0.3077 0.0769  plane waves:     444
 k-point  68 :  -0.2308 0.3077 0.0769  plane waves:     438
 k-point  69 :   0.4615 0.3846 0.0769  plane waves:     449
 k-point  70 :  -0.4615 0.3846 0.0769  plane waves:     447
 k-point  71 :  -0.3846 0.3846 0.0769  plane waves:     444
 k-point  72 :  -0.3077 0.3846 0.0769  plane waves:     447
 k-point  73 :  -0.4615 0.4615 0.0769  plane waves:     454
 k-point  74 :  -0.3846 0.4615 0.0769  plane waves:     449
 k-point  75 :   0.4615 0.3077 0.1538  plane waves:     449
 k-point  76 :  -0.4615 0.3077 0.1538  plane waves:     445
 k-point  77 :  -0.3846 0.3077 0.1538  plane waves:     444
 k-point  78 :  -0.4615 0.3846 0.1538  plane waves:     448
 k-point  79 :  -0.3846 0.3846 0.1538  plane waves:     446
 k-point  80 :  -0.3077 0.3846 0.1538  plane waves:     445
 k-point  81 :  -0.2308 0.3846 0.1538  plane waves:     444
 k-point  82 :  -0.3846 0.4615 0.1538  plane waves:     443
 k-point  83 :  -0.3077 0.4615 0.1538  plane waves:     445
 k-point  84 :  -0.3077 0.4615 0.2308  plane waves:     446

 maximum and minimum number of plane-waves per node :       459      438

 maximum number of plane-waves:       459
 maximum index in each direction: 
   IXMAX=    5   IYMAX=    5   IZMAX=    5
   IXMIN=   -5   IYMIN=   -5   IZMIN=   -5


 serial   3D FFT for wavefunctions
 parallel 3D FFT for charge:
    minimum data exchange during FFTs selected (reduces bandwidth)


 total amount of memory used by VASP MPI-rank0    35458. kBytes
=======================================================================

   base      :      30000. kBytes
   nonl-proj :       2588. kBytes
   fftplans  :        150. kBytes
   grid      :       1295. kBytes
   one-center:          6. kBytes
   wavefun   :       1419. kBytes

     INWAV:  cpu time    0.0000: real time    0.0002
 Broyden mixing: mesh for mixing (old mesh)
   NGX = 11   NGY = 11   NGZ = 11
  (NGX  = 48   NGY  = 48   NGZ  = 48)
  gives a total of   1331 points

 initial charge density was supplied:
 charge density of overlapping atoms calculated
 number of electron       3.0000000 magnetization       0.6000000
 keeping initial charge density in first step


--------------------------------------------------------------------------------------------------------


 Maximum index for augmentation-charges         1111 (set IRDMAX)


--------------------------------------------------------------------------------------------------------


 First call to EWALD:  gamma=   0.695
 Maximum number of real-space cells 3x 3x 3
 Maximum number of reciprocal cells 3x 3x 3

    FEWALD:  cpu time    0.0006: real time    0.0007


--------------------------------------- Iteration      1(   1)  ---------------------------------------


    POTLOK:  cpu time    0.0153: real time    0.0155
    SETDIJ:  cpu time    0.1584: real time    0.1586
     EDDAV:  cpu time   12.8204: real time   12.8212
 BZINTS: Fermi energy:    8.036171;    3.000000 electrons
         Band energy: 0.107705E+02;  BLOECHL correction:   -0.090457
       DOS:  cpu time    0.0703: real time    0.0707
    --------------------------------------------
      LOOP:  cpu time   13.0643: real time   13.0660

 eigenvalue-minimisations  : 23088
 total energy-change (2. order) :-0.3631574E+01  (-0.8621306E+02)
 number of electron       3.0000000 magnetization       0.6000000
 augmentation part        3.0000000 magnetization       0.6000000

 Free energy of the ion-electron system (eV)
  ---------------------------------------------------
  alpha Z        PSCENC =        -0.20254611
  Ewald energy   TEWEN  =       -73.39295237
  -Hartree energ DENC   =        -0.10329695
  -exchange      EXHF   =         0.00000000
  -V(xc)+E(xc)   XCENC  =       -26.19545267
  PAW double counting   =        66.16230985      -34.20858819
  entropy T*S    EENTRO =         0.00000000
  eigenvalues    EBANDS =        10.77049509
  atomic energy  EATOM  =        53.53845706
  Solvation  Ediel_sol  =         0.00000000
  ---------------------------------------------------
  free energy    TOTEN  =        -3.63157429 eV

  energy without entropy =       -3.63157429  energy(sigma->0) =       -3.63157429


--------------------------------------------------------------------------------------------------------




--------------------------------------- Iteration      1(   2)  ---------------------------------------


     EDDAV:  cpu time   11.3131: real time   11.3138
 BZINTS: Fermi energy:    8.008330;    3.000000 electrons
         Band energy: 0.107192E+02;  BLOECHL correction:   -0.089765
       DOS:  cpu time    0.0751: real time    0.0752
    --------------------------------------------
      LOOP:  cpu time   11.3881: real time   11.3890

 eigenvalue-minimisations  : 20976
 total energy-change (2. order) :-0.5131358E-01  (-0.5164745E-01)
 number of electron       3.0000000 magnetization       0.6000000
 augmentation part        3.0000000 magnetization       0.6000000

 Free energy of the ion-electron system (eV)
  ---------------------------------------------------
  alpha Z        PSCENC =        -0.20254611
  Ewald energy   TEWEN  =       -73.39295237
  -Hartree energ DENC   =        -0.10329695
  -exchange      EXHF   =         0.00000000
  -V(xc)+E(xc)   XCENC  =       -26.19545267
  PAW double counting   =        66.16230985      -34.20858819
  entropy T*S    EENTRO =         0.00000000
  eigenvalues    EBANDS =        10.71918151
  atomic energy  EATOM  =        53.53845706
  Solvation  Ediel_sol  =         0.00000000
  ---------------------------------------------------
  free energy    TOTEN  =        -3.68288787 eV

  energy without entropy =       -3.68288787  energy(sigma->0) =       -3.68288787


--------------------------------------------------------------------------------------------------------




--------------------------------------- Iteration      1(   3)  ---------------------------------------


     EDDAV:  cpu time   17.5013: real time   17.5022
 BZINTS: Fermi energy:    8.008328;    3.000000 electrons
         Band energy: 0.107192E+02;  BLOECHL correction:   -0.089765
       DOS:  cpu time    0.0729: real time    0.0730
    --------------------------------------------
      LOOP:  cpu time   17.5742: real time   17.5753

 eigenvalue-minimisations  : 23904
 total energy-change (2. order) :-0.2320784E-05  (-0.2360847E-05)
 number of electron       3.0000000 magnetization       0.6000000
 augmentation part        3.0000000 magnetization       0.6000000

 Free energy of the ion-electron system (eV)
  ---------------------------------------------------
  alpha Z        PSCENC =        -0.20254611
  Ewald energy   TEWEN  =       -73.39295237
  -Hartree energ DENC   =        -0.10329695
  -exchange      EXHF   =         0.00000000
  -V(xc)+E(xc)   XCENC  =       -26.19545267
  PAW double counting   =        66.16230985      -34.20858819
  entropy T*S    EENTRO =         0.00000000
  eigenvalues    EBANDS =        10.71917919
  atomic energy  EATOM  =        53.53845706
  Solvation  Ediel_sol  =         0.00000000
  ---------------------------------------------------
  free energy    TOTEN  =        -3.68289020 eV

  energy without entropy =       -3.68289020  energy(sigma->0) =       -3.68289020


--------------------------------------------------------------------------------------------------------




--------------------------------------- Iteration      1(   4)  ---------------------------------------


     EDDAV:  cpu time   16.3221: real time   16.3230
 BZINTS: Fermi energy:    8.008328;    3.000000 electrons
         Band energy: 0.107192E+02;  BLOECHL correction:   -0.089765
       DOS:  cpu time    0.0691: real time    0.0692
    --------------------------------------------
      LOOP:  cpu time   16.3912: real time   16.3922

 eigenvalue-minimisations  : 23616
 total energy-change (2. order) : 0.5916689E-09  (-0.1182101E-10)
 number of electron       3.0000000 magnetization       0.6000000
 augmentation part        3.0000000 magnetization       0.6000000

 Free energy of the ion-electron system (eV)
  ---------------------------------------------------
  alpha Z        PSCENC =        -0.20254611
  Ewald energy   TEWEN  =       -73.39295237
  -Hartree energ DENC   =        -0.10329695
  -exchange      EXHF   =         0.00000000
  -V(xc)+E(xc)   XCENC  =       -26.19545267
  PAW double counting   =        66.16230985      -34.20858819
  entropy T*S    EENTRO =         0.00000000
  eigenvalues    EBANDS =        10.71917919
  atomic energy  EATOM  =        53.53845706
  Solvation  Ediel_sol  =         0.00000000
  ---------------------------------------------------
  free energy    TOTEN  =        -3.68289019 eV

  energy without entropy =       -3.68289019  energy(sigma->0) =       -3.68289019


--------------------------------------------------------------------------------------------------------




--------------------------------------- Iteration      1(   5)  ---------------------------------------


     EDDAV:  cpu time   16.4051: real time   16.4063
 BZINTS: Fermi energy:    8.008328;    3.000000 electrons
         Band energy: 0.107192E+02;  BLOECHL correction:   -0.089765
       DOS:  cpu time    0.0681: real time    0.0681
    CHARGE:  cpu time    0.0555: real time    0.0558
    MIXING:  cpu time    0.0007: real time    0.0008
    --------------------------------------------
      LOOP:  cpu time   16.5294: real time   16.5311

 eigenvalue-minimisations  : 23328
 total energy-change (2. order) :-0.7328680E-09  ( 0.3907941E-13)
 number of electron       3.0000000 magnetization      -0.0523709
 augmentation part       -0.0368521 magnetization      -0.1883488

 Broyden mixing:
  rms(total) = 0.17501E+00    rms(broyden)= 0.17501E+00
  rms(prec ) = 0.38256E+00
  weight for this iteration     100.00

 Free energy of the ion-electron system (eV)
  ---------------------------------------------------
  alpha Z        PSCENC =        -0.20254611
  Ewald energy   TEWEN  =       -73.39295237
  -Hartree energ DENC   =        -0.10329695
  -exchange      EXHF   =         0.00000000
  -V(xc)+E(xc)   XCENC  =       -26.19545267
  PAW double counting   =        66.16230985      -34.20858819
  entropy T*S    EENTRO =         0.00000000
  eigenvalues    EBANDS =        10.71917919
  atomic energy  EATOM  =        53.53845706
  Solvation  Ediel_sol  =         0.00000000
  ---------------------------------------------------
  free energy    TOTEN  =        -3.68289020 eV

  energy without entropy =       -3.68289020  energy(sigma->0) =       -3.68289020


--------------------------------------------------------------------------------------------------------




--------------------------------------- Iteration      1(   6)  ---------------------------------------


    POTLOK:  cpu time    0.0067: real time    0.0068
    SETDIJ:  cpu time    0.1633: real time    0.1633
    EDDIAG:  cpu time    0.5168: real time    0.5181
  RMM-DIIS:  cpu time    0.3060: real time    0.3061
    ORTHCH:  cpu time    0.0662: real time    0.0662
 BZINTS: Fermi energy:    7.981745;    3.000000 electrons
         Band energy: 0.106515E+02;  BLOECHL correction:   -0.084547
       DOS:  cpu time    0.0713: real time    0.0714
    CHARGE:  cpu time    0.0518: real time    0.0518
    MIXING:  cpu time    0.0004: real time    0.0004
    --------------------------------------------
      LOOP:  cpu time    1.1825: real time    1.1842

 eigenvalue-minimisations  : 16134
 total energy-change (2. order) :-0.7020109E-01  (-0.2379545E-03)
 number of electron       3.0000000 magnetization       0.0577099
 augmentation part       -0.0370682 magnetization       0.0657743

 Broyden mixing:
  rms(total) = 0.82928E-01    rms(broyden)= 0.82928E-01
  rms(prec ) = 0.23230E+00
  weight for this iteration     100.00

 eigenvalues of (default mixing * dielectric matrix)
  average eigenvalue GAMMA=   0.9015
  0.9015

 Free energy of the ion-electron system (eV)
  ---------------------------------------------------
  alpha Z        PSCENC =        -0.20254611
  Ewald energy   TEWEN  =       -73.39295237
  -Hartree energ DENC   =        -0.08637384
  -exchange      EXHF   =         0.00000000
  -V(xc)+E(xc)   XCENC  =       -26.21287712
  PAW double counting   =        94.50701272      -62.55535300
  entropy T*S    EENTRO =         0.00000000
  eigenvalues    EBANDS =        10.65154137
  atomic energy  EATOM  =        53.53845706
  Solvation  Ediel_sol  =         0.00000000
  ---------------------------------------------------
  free energy    TOTEN  =        -3.75309129 eV

  energy without entropy =       -3.75309129  energy(sigma->0) =       -3.75309129


--------------------------------------------------------------------------------------------------------




--------------------------------------- Iteration      1(   7)  ---------------------------------------


    POTLOK:  cpu time    0.0064: real time    0.0067
    SETDIJ:  cpu time    0.1530: real time    0.1530
    EDDIAG:  cpu time    0.5101: real time    0.5102
  RMM-DIIS:  cpu time    0.3723: real time    0.3723
    ORTHCH:  cpu time    0.0664: real time    0.0664
 BZINTS: Fermi energy:    7.970310;    3.000000 electrons
         Band energy: 0.106219E+02;  BLOECHL correction:   -0.084818
       DOS:  cpu time    0.0722: real time    0.0723
    CHARGE:  cpu time    0.0531: real time    0.0531
    MIXING:  cpu time    0.0002: real time    0.0002
    --------------------------------------------
      LOOP:  cpu time    1.2338: real time    1.2342

 eigenvalue-minimisations  : 16747
 total energy-change (2. order) : 0.8438552E-02  (-0.8842990E-04)
 number of electron       3.0000000 magnetization       0.0121516
 augmentation part       -0.0377582 magnetization       0.0037662

 Broyden mixing:
  rms(total) = 0.66550E-01    rms(broyden)= 0.66550E-01
  rms(prec ) = 0.98814E-01
  weight for this iteration     100.00

 eigenvalues of (default mixing * dielectric matrix)
  average eigenvalue GAMMA=   0.9337
  1.1919  0.6755

 Free energy of the ion-electron system (eV)
  ---------------------------------------------------
  alpha Z        PSCENC =        -0.20254611
  Ewald energy   TEWEN  =       -73.39295237
  -Hartree energ DENC   =        -0.09162419
  -exchange      EXHF   =         0.00000000
  -V(xc)+E(xc)   XCENC  =       -26.16580677
  PAW double counting   =       130.89128484      -98.94336611
  entropy T*S    EENTRO =         0.00000000
  eigenvalues    EBANDS =        10.62190091
  atomic energy  EATOM  =        53.53845706
  Solvation  Ediel_sol  =         0.00000000
  ---------------------------------------------------
  free energy    TOTEN  =        -3.74465273 eV

  energy without entropy =       -3.74465273  energy(sigma->0) =       -3.74465273


--------------------------------------------------------------------------------------------------------




--------------------------------------- Iteration      1(   8)  ---------------------------------------


    POTLOK:  cpu time    0.0065: real time    0.0067
    SETDIJ:  cpu time    0.1568: real time    0.1569
    EDDIAG:  cpu time    0.5153: real time    0.5154
  RMM-DIIS:  cpu time    0.3849: real time    0.3849
    ORTHCH:  cpu time    0.0659: real time    0.0659
 BZINTS: Fermi energy:    7.966948;    3.000000 electrons
         Band energy: 0.106136E+02;  BLOECHL correction:   -0.084910
       DOS:  cpu time    0.0708: real time    0.0709
    CHARGE:  cpu time    0.0539: real time    0.0539
    MIXING:  cpu time    0.0002: real time    0.0002
    --------------------------------------------
      LOOP:  cpu time    1.2544: real time    1.2548

 eigenvalue-minimisations  : 16702
 total energy-change (2. order) : 0.2298451E-03  (-0.1919510E-04)
 number of electron       3.0000000 magnetization      -0.0020474
 augmentation part       -0.0380524 magnetization      -0.0048510

 Broyden mixing:
  rms(total) = 0.21436E-01    rms(broyden)= 0.21436E-01
  rms(prec ) = 0.25518E-01
  weight for this iteration     100.00

 eigenvalues of (default mixing * dielectric matrix)
  average eigenvalue GAMMA=   1.2743
  2.2841  0.9152  0.6235

 Free energy of the ion-electron system (eV)
  ---------------------------------------------------
  alpha Z        PSCENC =        -0.20254611
  Ewald energy   TEWEN  =       -73.39295237
  -Hartree energ DENC   =        -0.10166288
  -exchange      EXHF   =         0.00000000
  -V(xc)+E(xc)   XCENC  =       -26.14525164
  PAW double counting   =       145.23446455     -113.28850127
  entropy T*S    EENTRO =         0.00000000
  eigenvalues    EBANDS =        10.61356977
  atomic energy  EATOM  =        53.53845706
  Solvation  Ediel_sol  =         0.00000000
  ---------------------------------------------------
  free energy    TOTEN  =        -3.74442289 eV

  energy without entropy =       -3.74442289  energy(sigma->0) =       -3.74442289


--------------------------------------------------------------------------------------------------------




--------------------------------------- Iteration      1(   9)  ---------------------------------------


    POTLOK:  cpu time    0.0067: real time    0.0069
    SETDIJ:  cpu time    0.1596: real time    0.1596
    EDDIAG:  cpu time    0.5296: real time    0.5297
  RMM-DIIS:  cpu time    0.4704: real time    0.4704
    ORTHCH:  cpu time    0.0661: real time    0.0661
 BZINTS: Fermi energy:    7.966476;    3.000000 electrons
         Band energy: 0.106126E+02;  BLOECHL correction:   -0.084932
       DOS:  cpu time    0.0755: real time    0.0756
    --------------------------------------------
      LOOP:  cpu time    1.3079: real time    1.3084

 eigenvalue-minimisations  : 17483
 total energy-change (2. order) : 0.2839130E-05  (-0.2497087E-05)
 number of electron       3.0000000 magnetization      -0.0020474
 augmentation part       -0.0380524 magnetization      -0.0048510

 Free energy of the ion-electron system (eV)
  ---------------------------------------------------
  alpha Z        PSCENC =        -0.20254611
  Ewald energy   TEWEN  =       -73.39295237
  -Hartree energ DENC   =        -0.10461776
  -exchange      EXHF   =         0.00000000
  -V(xc)+E(xc)   XCENC  =       -26.14032650
  PAW double counting   =       145.49134779     -113.54635444
  entropy T*S    EENTRO =         0.00000000
  eigenvalues    EBANDS =        10.61257229
  atomic energy  EATOM  =        53.53845706
  Solvation  Ediel_sol  =         0.00000000
  ---------------------------------------------------
  free energy    TOTEN  =        -3.74442005 eV

  energy without entropy =       -3.74442005  energy(sigma->0) =       -3.74442005


--------------------------------------------------------------------------------------------------------




 average (electrostatic) potential at core
  the test charge radii are     1.0406
  (the norm of the test charge is              1.0000)
       1 -72.6943



 E-fermi :   7.9665     XC(G=0): -10.1785     alpha+bet :-14.8020

 Fermi energy:         7.9664756599

 spin component 1

 k-point     1 :       0.0000    0.0000    0.0000
  band No.  band energies     occupation 
      1      -3.1515      1.00000
      2      20.5401      0.00000
      3      20.5401      0.00000
      4      20.5401      0.00000
      5      21.9944      0.00000
      6      21.9944      0.00000
      7      21.9944      0.00000
      8      24.3777      0.00000
      9      27.3145      0.00000
     10      27.3145      0.00000
     11      30.1609      0.00000
     12      32.5110      0.00000
     13      32.5110      0.00000
     14      32.5110      0.00000
     15      41.0621      0.00000
     16      56.0153      0.00000
     17      56.0153      0.00000
     18      56.0153      0.00000
     19      56.0510      0.00000
     20      59.2132      0.00000
     21      59.2132      0.00000
     22      59.2132      0.00000
     23      62.8336      0.00000
     24      62.8336      0.00000
     25      65.0771      0.00000
     26      65.0771      0.00000
     27      65.0771      0.00000
     28      73.1778      0.00000
     29      73.1778      0.00000
     30      73.1778      0.00000
     31      80.8191      0.00000
     32      83.0773      0.00000
     33      83.0773      0.00000
     34      87.2059      0.00000
     35      87.2059      0.00000
     36      87.2059      0.00000
     37      90.0887      0.00000
     38      90.0887      0.00000
     39      90.0887      0.00000
     40      90.8970      0.00000
     41      93.4602      0.00000
     42      93.4602      0.00000
     43      93.4602      0.00000
     44      93.9351      0.00000
     45      93.9351      0.00000
     46      93.9351      0.00000
     47      96.3744      0.00000
     48      96.3744      0.00000

 k-point     2 :       0.0769    0.0000    0.0000
  band No.  band energies     occupation 
      1      -2.9912      1.00000
      2      18.1805      0.00000
      3      20.0248      0.00000
      4      20.0248      0.00000
      5      22.6600      0.00000
      6      22.7556      0.00000
      7      22.7556      0.00000
      8      25.9600      0.00000
      9      26.4621      0.00000
     10      26.4621      0.00000
     11      29.5983      0.00000
     12      33.3102      0.00000
     13      33.6880      0.00000
     14      33.6880      0.00000
     15      41.6983      0.00000
     16      55.4465      0.00000
     17      55.7822      0.00000
     18      55.7822      0.00000
     19      56.3227      0.00000
     20      57.6108      0.00000
     21      57.6108      0.00000
     22      59.2157      0.00000
     23      61.6535      0.00000
     24      61.6535      0.00000
     25      65.2207      0.00000
     26      68.2053      0.00000
     27      68.2053      0.00000
     28      71.9207      0.00000
     29      73.0314      0.00000
     30      73.0314      0.00000
     31      82.1696      0.00000
     32      82.1976      0.00000
     33      82.1976      0.00000
     34      84.4181      0.00000
     35      86.1112      0.00000
     36      86.1112      0.00000
     37      88.4695      0.00000
     38      88.4695      0.00000
     39      89.6942      0.00000
     40      90.1841      0.00000
     41      91.6150      0.00000
     42      91.6150      0.00000
     43      92.6703      0.00000
     44      95.3964      0.00000
     45      95.3964      0.00000
     46      96.0146      0.00000
     47      96.5481      0.00000
     48      96.5481      0.00000

 k-point     3 :       0.1538    0.0000    0.0000
  band No.  band energies     occupation 
      1      -2.5114      1.00000
      2      15.0807      0.00000
      3      19.3555      0.00000
      4      19.3555      0.00000
      5      22.5282      0.00000
      6      23.8956      0.00000
      7      23.8956      0.00000
      8      25.1926      0.00000
      9      25.1926      0.00000
     10      28.3926      0.00000
     11      28.9047      0.00000
     12      35.4017      0.00000
     13      36.1831      0.00000
     14      36.1831      0.00000
     15      43.3646      0.00000
     16      53.1070      0.00000
     17      53.1070      0.00000
     18      54.3769      0.00000
     19      56.4529      0.00000
     20      56.4529      0.00000
     21      56.4898      0.00000
     22      59.0315      0.00000
     23      61.6110      0.00000
     24      61.6110      0.00000
     25      65.6467      0.00000
     26      69.6939      0.00000
     27      71.2612      0.00000
     28      71.2612      0.00000
     29      73.2074      0.00000
     30      73.2074      0.00000
     31      79.7385      0.00000
     32      79.7385      0.00000
     33      80.0004      0.00000
     34      83.8622      0.00000
     35      83.8622      0.00000
     36      85.9820      0.00000
     37      86.0539      0.00000
     38      86.6523      0.00000
     39      86.6523      0.00000
     40      88.4711      0.00000
     41      89.6286      0.00000
     42      90.2957      0.00000
     43      90.2957      0.00000
     44      94.0247      0.00000
     45      97.0083      0.00000
     46      97.0083      0.00000
     47      98.8579      0.00000
     48      98.8579      0.00000

 k-point     4 :       0.2308    0.0000    0.0000
  band No.  band energies     occupation 
      1      -1.7153      1.00000
      2      12.0935      0.00000
      3      18.8959      0.00000
      4      18.8959      0.00000
      5      22.2968      0.00000
      6      23.0042      0.00000
      7      23.0042      0.00000
      8      26.3035      0.00000
      9      26.3035      0.00000
     10      26.9994      0.00000
     11      31.8033      0.00000
     12      38.5154      0.00000
     13      39.1746      0.00000
     14      39.1746      0.00000
     15      45.6555      0.00000
     16      49.2841      0.00000
     17      49.2841      0.00000
     18      52.8611      0.00000
     19      56.3699      0.00000
     20      56.3699      0.00000
     21      56.6666      0.00000
     22      58.4359      0.00000
     23      61.9665      0.00000
     24      61.9665      0.00000
     25      66.3353      0.00000
     26      67.5242      0.00000
     27      69.6510      0.00000
     28      69.6510      0.00000
     29      74.5948      0.00000
     30      74.5948      0.00000
     31      77.1374      0.00000
     32      78.8079      0.00000
     33      78.8079      0.00000
     34      81.0439      0.00000
     35      81.0439      0.00000
     36      81.4970      0.00000
     37      82.7896      0.00000
     38      87.0761      0.00000
     39      87.0761      0.00000
     40      88.8079      0.00000
     41      89.6824      0.00000
     42      89.6824      0.00000
     43      89.8659      0.00000
     44      93.3933      0.00000
     45      97.3571      0.00000
     46      97.3571      0.00000
     47     101.0396      0.00000
     48     101.0396      0.00000

 k-point     5 :       0.3077    0.0000    0.0000
  band No.  band energies     occupation 
      1      -0.6081      1.00000
      2       9.3151     -0.05966
      3      18.6907      0.00000
      4      18.6907      0.00000
      5      21.6703      0.00000
      6      21.6703      0.00000
      7      22.2120      0.00000
      8      25.6462      0.00000
      9      28.3076      0.00000
     10      28.3076      0.00000
     11      34.5432      0.00000
     12      42.0311      0.00000
     13      42.0311      0.00000
     14      42.2678      0.00000
     15      46.1221      0.00000
     16      46.1221      0.00000
     17      48.0762      0.00000
     18      51.2316      0.00000
     19      56.3395      0.00000
     20      56.3395      0.00000
     21      56.8789      0.00000
     22      57.4074      0.00000
     23      62.2234      0.00000
     24      62.2234      0.00000
     25      65.3182      0.00000
     26      66.2034      0.00000
     27      66.2034      0.00000
     28      67.2389      0.00000
     29      73.8106      0.00000
     30      74.1370      0.00000
     31      74.1370      0.00000
     32      77.0003      0.00000
     33      78.3581      0.00000
     34      78.3581      0.00000
     35      79.9508      0.00000
     36      80.1296      0.00000
     37      80.1296      0.00000
     38      88.6399      0.00000
     39      89.3150      0.00000
     40      89.3150      0.00000
     41      89.5309      0.00000
     42      89.5309      0.00000
     43      91.2609      0.00000
     44      93.4114      0.00000
     45      97.8646      0.00000
     46      97.8646      0.00000
     47     101.6222      0.00000
     48     103.4056      0.00000

 k-point     6 :       0.3846    0.0000    0.0000
  band No.  band energies     occupation 
      1       0.8031      1.00000
      2       6.7813      1.02980
      3      18.7503      0.00000
      4      18.7503      0.00000
      5      20.5465      0.00000
      6      20.5465      0.00000
      7      22.3631      0.00000
      8      24.4548      0.00000
      9      30.4825      0.00000
     10      30.4825      0.00000
     11      37.1225      0.00000
     12      41.2768      0.00000
     13      41.2768      0.00000
     14      45.9222      0.00000
     15      47.2337      0.00000
     16      47.2337      0.00000
     17      48.0455      0.00000
     18      52.5045      0.00000
     19      55.9566      0.00000
     20      56.2240      0.00000
     21      56.2240      0.00000
     22      57.1433      0.00000
     23      60.5502      0.00000
     24      60.5502      0.00000
     25      63.2218      0.00000
     26      64.2146      0.00000
     27      64.2146      0.00000
     28      68.1161      0.00000
     29      68.2358      0.00000
     30      73.7528      0.00000
     31      73.7528      0.00000
     32      76.5308      0.00000
     33      76.5308      0.00000
     34      76.5892      0.00000
     35      77.6641      0.00000
     36      80.4912      0.00000
     37      80.4912      0.00000
     38      88.5300      0.00000
     39      89.0521      0.00000
     40      89.0521      0.00000
     41      90.1332      0.00000
     42      92.9165      0.00000
     43      92.9165      0.00000
     44      94.3307      0.00000
     45      99.5428      0.00000
     46      99.5429      0.00000
     47     102.9024      0.00000
     48     104.1311      0.00000

 k-point     7 :       0.4615    0.0000    0.0000
  band No.  band energies     occupation 
      1       2.5079      1.00000
      2       4.5132      1.00000
      3      19.0773      0.00000
      4      19.0773      0.00000
      5      19.6816      0.00000
      6      19.6816      0.00000
      7      22.7826      0.00000
      8      23.4940      0.00000
      9      32.3348      0.00000
     10      32.3348      0.00000
     11      39.0817      0.00000
     12      39.0817      0.00000
     13      39.1364      0.00000
     14      45.7050      0.00000
     15      49.8567      0.00000
     16      50.6058      0.00000
     17      50.6058      0.00000
     18      54.0366      0.00000
     19      55.3013      0.00000
     20      55.3013      0.00000
     21      55.6752      0.00000
     22      57.7640      0.00000
     23      57.8052      0.00000
     24      57.8052      0.00000
     25      61.4875      0.00000
     26      63.3277      0.00000
     27      64.2419      0.00000
     28      64.2419      0.00000
     29      69.0024      0.00000
     30      73.5952      0.00000
     31      73.5952      0.00000
     32      75.4748      0.00000
     33      75.4748      0.00000
     34      76.2524      0.00000
     35      76.8873      0.00000
     36      80.5407      0.00000
     37      80.5407      0.00000
     38      88.6081      0.00000
     39      88.8701      0.00000
     40      88.8701      0.00000
     41      89.1434      0.00000
     42      94.1837      0.00000
     43      95.2233      0.00000
     44      95.2233      0.00000
     45     101.2516      0.00000
     46     101.2516      0.00000
     47     105.4111      0.00000
     48     105.4111      0.00000

 k-point     8 :       0.0769    0.0769    0.0000
  band No.  band energies     occupation 
      1      -2.9378      1.00000
      2      18.9749      0.00000
      3      18.9749      0.00000
      4      19.2775      0.00000
      5      21.5010      0.00000
      6      23.8710      0.00000
      7      23.8710      0.00000
      8      24.9784      0.00000
      9      26.0673      0.00000
     10      27.5123      0.00000
     11      30.3958      0.00000
     12      32.7570      0.00000
     13      32.7570      0.00000
     14      34.9762      0.00000
     15      41.9872      0.00000
     16      55.5026      0.00000
     17      55.5026      0.00000
     18      55.5317      0.00000
     19      56.4660      0.00000
     20      57.7403      0.00000
     21      57.7403      0.00000
     22      58.7277      0.00000
     23      59.3534      0.00000
     24      62.7920      0.00000
     25      66.9535      0.00000
     26      66.9535      0.00000
     27      69.4627      0.00000
     28      71.0203      0.00000
     29      73.3695      0.00000
     30      73.3695      0.00000
     31      81.0190      0.00000
     32      82.6941      0.00000
     33      83.5187      0.00000
     34      83.7253      0.00000
     35      83.7253      0.00000
     36      84.3096      0.00000
     37      89.6008      0.00000
     38      89.9591      0.00000
     39      89.9591      0.00000
     40      90.5413      0.00000
     41      90.5413      0.00000
     42      92.4208      0.00000
     43      92.5004      0.00000
     44      93.9189      0.00000
     45      94.4343      0.00000
     46      97.3661      0.00000
     47      97.3661      0.00000
     48      98.5288      0.00000

 k-point     9 :       0.1538    0.0769    0.0000
  band No.  band energies     occupation 
      1      -2.5646      1.00000
      2      16.1816      0.00000
      3      18.1437      0.00000
      4      19.3654      0.00000
      5      21.8219      0.00000
      6      23.1608      0.00000
      7      24.2546      0.00000
      8      25.1622      0.00000
      9      26.9695      0.00000
     10      28.4906      0.00000
     11      29.9090      0.00000
     12      34.1561      0.00000
     13      34.2825      0.00000
     14      36.9292      0.00000
     15      43.4797      0.00000
     16      53.1146      0.00000
     17      53.8106      0.00000
     18      55.5513      0.00000
     19      55.9431      0.00000
     20      56.4254      0.00000
     21      56.9548      0.00000
     22      58.4737      0.00000
     23      59.3628      0.00000
     24      62.3095      0.00000
     25      67.7576      0.00000
     26      68.2906      0.00000
     27      70.7919      0.00000
     28      72.1588      0.00000
     29      72.7150      0.00000
     30      73.9744      0.00000
     31      78.7606      0.00000
     32      79.8875      0.00000
     33      81.2992      0.00000
     34      82.7084      0.00000
     35      82.8691      0.00000
     36      84.8360      0.00000
     37      86.1609      0.00000
     38      87.0376      0.00000
     39      89.2482      0.00000
     40      89.3037      0.00000
     41      90.9019      0.00000
     42      91.8513      0.00000
     43      93.7792      0.00000
     44      93.8054      0.00000
     45      94.4754      0.00000
     46      96.0827      0.00000
     47      97.3205      0.00000
     48      97.3588      0.00000

 k-point    10 :       0.2308    0.0769    0.0000
  band No.  band energies     occupation 
      1      -1.8742      1.00000
      2      13.1772      0.00000
      3      17.5707      0.00000
      4      19.0367      0.00000
      5      21.2435      0.00000
      6      23.4208      0.00000
      7      24.1471      0.00000
      8      25.0496      0.00000
      9      27.3880      0.00000
     10      28.5827      0.00000
     11      31.4682      0.00000
     12      36.8228      0.00000
     13      37.2754      0.00000
     14      39.4389      0.00000
     15      45.7222      0.00000
     16      49.1875      0.00000
     17      50.8053      0.00000
     18      54.2524      0.00000
     19      55.6553      0.00000
     20      56.2859      0.00000
     21      57.0258      0.00000
     22      58.9234      0.00000
     23      58.9334      0.00000
     24      62.3310      0.00000
     25      66.5014      0.00000
     26      68.2563      0.00000
     27      70.3275      0.00000
     28      71.8973      0.00000
     29      73.1806      0.00000
     30      75.2629      0.00000
     31      76.3907      0.00000
     32      77.1838      0.00000
     33      80.0575      0.00000
     34      81.3508      0.00000
     35      81.5328      0.00000
     36      82.7848      0.00000
     37      84.4294      0.00000
     38      86.0655      0.00000
     39      86.8133      0.00000
     40      87.3064      0.00000
     41      90.0858      0.00000
     42      92.2979      0.00000
     43      92.4728      0.00000
     44      93.5535      0.00000
     45      94.7775      0.00000
     46      97.1078      0.00000
     47      98.9763      0.00000
     48      99.7084      0.00000

 k-point    11 :       0.3077    0.0769    0.0000
  band No.  band energies     occupation 
      1      -0.8710      1.00000
      2      10.3381     -0.00491
      3      17.2648      0.00000
      4      18.7944      0.00000
      5      19.7633      0.00000
      6      23.7690      0.00000
      7      23.8666      0.00000
      8      25.4043      0.00000
      9      27.3234      0.00000
     10      29.2208      0.00000
     11      34.2739      0.00000
     12      39.8271      0.00000
     13      41.0186      0.00000
     14      42.1901      0.00000
     15      45.6209      0.00000
     16      47.5395      0.00000
     17      48.2956      0.00000
     18      52.5030      0.00000
     19      55.7381      0.00000
     20      56.2985      0.00000
     21      57.1162      0.00000
     22      57.9919      0.00000
     23      59.4763      0.00000
     24      62.7077      0.00000
     25      64.1934      0.00000
     26      67.0745      0.00000
     27      68.0352      0.00000
     28      70.4914      0.00000
     29      71.7291      0.00000
     30      72.6540      0.00000
     31      76.3011      0.00000
     32      76.9701      0.00000
     33      77.8701      0.00000
     34      78.8396      0.00000
     35      80.6197      0.00000
     36      81.3721      0.00000
     37      83.0866      0.00000
     38      85.0619      0.00000
     39      87.1286      0.00000
     40      87.9261      0.00000
     41      92.1370      0.00000
     42      92.1641      0.00000
     43      92.3434      0.00000
     44      93.7336      0.00000
     45      95.2289      0.00000
     46      98.3383      0.00000
     47      99.9540      0.00000
     48     102.4365      0.00000

 k-point    12 :       0.3846    0.0769    0.0000
  band No.  band energies     occupation 
      1       0.4384      1.00000
      2       7.7270      0.59951
      3      17.2291      0.00000
      4      18.4971      0.00000
      5      18.8056      0.00000
      6      22.5970      0.00000
      7      23.9539      0.00000
      8      25.7522      0.00000
      9      27.9469      0.00000
     10      31.2255      0.00000
     11      36.9290      0.00000
     12      40.7788      0.00000
     13      42.7983      0.00000
     14      44.9134      0.00000
     15      44.9370      0.00000
     16      46.9470      0.00000
     17      49.2518      0.00000
     18      52.4759      0.00000
     19      55.7455      0.00000
     20      56.3043      0.00000
     21      56.3061      0.00000
     22      57.3978      0.00000
     23      59.8102      0.00000
     24      60.9226      0.00000
     25      63.4755      0.00000
     26      63.9799      0.00000
     27      65.0720      0.00000
     28      70.4163      0.00000
     29      70.5082      0.00000
     30      70.8871      0.00000
     31      71.1921      0.00000
     32      75.7677      0.00000
     33      76.7710      0.00000
     34      78.6193      0.00000
     35      80.4955      0.00000
     36      80.6497      0.00000
     37      83.0692      0.00000
     38      84.1292      0.00000
     39      88.1613      0.00000
     40      88.8399      0.00000
     41      92.3166      0.00000
     42      93.6527      0.00000
     43      93.8418      0.00000
     44      94.8665      0.00000
     45      97.5644      0.00000
[...]
     15      46.8764      0.00000
     16      49.1722      0.00000
     17      50.9928      0.00000
     18      51.6567      0.00000
     19      53.5915      0.00000
     20      54.2149      0.00000
     21      54.5844      0.00000
     22      55.6386      0.00000
     23      58.0484      0.00000
     24      59.3716      0.00000
     25      60.6528      0.00000
     26      61.7959      0.00000
     27      62.9789      0.00000
     28      64.6766      0.00000
     29      65.2842      0.00000
     30      66.3158      0.00000
     31      69.4460      0.00000
     32      70.8605      0.00000
     33      74.2779      0.00000
     34      77.9247      0.00000
     35      81.8920      0.00000
     36      85.3043      0.00000
     37      86.5401      0.00000
     38      87.4792      0.00000
     39      89.9011      0.00000
     40      92.1847      0.00000
     41      93.8762      0.00000
     42      94.2617      0.00000
     43      97.1471      0.00000
     44      97.8128      0.00000
     45      99.9256      0.00000
     46     100.8052      0.00000
     47     103.1852      0.00000
     48     105.2361      0.00000

 k-point    80 :      -0.3077    0.3846    0.1538
  band No.  band energies     occupation 
      1       5.6571      1.00000
      2       6.2858      1.00000
      3       9.2380     -0.00707
      4      11.1820      0.00000
      5      21.2534      0.00000
      6      24.1586      0.00000
      7      25.8768      0.00000
      8      27.3798      0.00000
      9      33.2170      0.00000
     10      36.4109      0.00000
     11      39.7596      0.00000
     12      41.9235      0.00000
     13      42.9598      0.00000
     14      45.1055      0.00000
     15      46.7920      0.00000
     16      49.0574      0.00000
     17      51.4402      0.00000
     18      52.2476      0.00000
     19      54.5003      0.00000
     20      55.2748      0.00000
     21      55.5616      0.00000
     22      56.0481      0.00000
     23      58.1527      0.00000
     24      59.1237      0.00000
     25      59.2658      0.00000
     26      60.0109      0.00000
     27      62.5864      0.00000
     28      64.3546      0.00000
     29      64.5408      0.00000
     30      67.0585      0.00000
     31      67.9722      0.00000
     32      71.2027      0.00000
     33      73.0847      0.00000
     34      77.6800      0.00000
     35      81.6596      0.00000
     36      85.7717      0.00000
     37      87.1211      0.00000
     38      87.6734      0.00000
     39      89.2646      0.00000
     40      92.2979      0.00000
     41      93.9720      0.00000
     42      96.2840      0.00000
     43      97.5525      0.00000
     44      99.8346      0.00000
     45     100.1985      0.00000
     46     101.9137      0.00000
     47     104.0723      0.00000
     48     105.1402      0.00000

 k-point    81 :      -0.2308    0.3846    0.1538
  band No.  band energies     occupation 
      1       3.9271      1.00000
      2       7.8813      0.78511
      3       9.3365      0.00000
      4      11.9803      0.00000
      5      22.0551      0.00000
      6      23.2082      0.00000
      7      24.7029      0.00000
      8      29.1345      0.00000
      9      32.2999      0.00000
     10      35.6005      0.00000
     11      38.6564      0.00000
     12      39.6290      0.00000
     13      44.3629      0.00000
     14      45.6052      0.00000
     15      48.1083      0.00000
     16      50.0784      0.00000
     17      51.1209      0.00000
     18      52.0684      0.00000
     19      53.8035      0.00000
     20      54.4944      0.00000
     21      54.7647      0.00000
     22      56.1599      0.00000
     23      57.5472      0.00000
     24      59.4940      0.00000
     25      59.5903      0.00000
     26      61.9892      0.00000
     27      63.9104      0.00000
     28      64.6355      0.00000
     29      66.0289      0.00000
     30      66.4164      0.00000
     31      68.7201      0.00000
     32      68.9846      0.00000
     33      75.0925      0.00000
     34      79.2212      0.00000
     35      79.6194      0.00000
     36      86.1663      0.00000
     37      86.6368      0.00000
     38      88.2358      0.00000
     39      90.1950      0.00000
     40      91.7519      0.00000
     41      93.1259      0.00000
     42      93.5692      0.00000
     43      96.4100      0.00000
     44      98.8144      0.00000
     45     100.3655      0.00000
     46     101.7826      0.00000
     47     103.7854      0.00000
     48     106.1282      0.00000

 k-point    82 :      -0.3846    0.4615    0.1538
  band No.  band energies     occupation 
      1       5.0604      1.00000
      2       8.0032      0.70331
      3       9.0628     -0.01611
      4      10.6127      0.00000
      5      19.3295      0.00000
      6      21.2245      0.00000
      7      27.9056      0.00000
      8      30.1907      0.00000
      9      34.6741      0.00000
     10      39.1082      0.00000
     11      41.5772      0.00000
     12      41.5815      0.00000
     13      42.7372      0.00000
     14      43.3468      0.00000
     15      45.3769      0.00000
     16      47.6993      0.00000
     17      49.5864      0.00000
     18      52.2083      0.00000
     19      52.4292      0.00000
     20      53.5471      0.00000
     21      55.5249      0.00000
     22      55.6562      0.00000
     23      56.8465      0.00000
     24      57.3256      0.00000
     25      59.3534      0.00000
     26      61.8876      0.00000
     27      62.8630      0.00000
     28      65.7253      0.00000
     29      66.4268      0.00000
     30      67.8038      0.00000
     31      71.5930      0.00000
     32      71.9582      0.00000
     33      76.1379      0.00000
     34      79.1327      0.00000
     35      79.6099      0.00000
     36      82.9146      0.00000
     37      86.8601      0.00000
     38      87.1965      0.00000
     39      87.8049      0.00000
     40      90.6023      0.00000
     41      93.0696      0.00000
     42      95.5774      0.00000
     43      96.0046      0.00000
     44      99.5963      0.00000
     45     100.2864      0.00000
     46     102.5786      0.00000
     47     103.2708      0.00000
     48     104.1979      0.00000

 k-point    83 :      -0.3077    0.4615    0.1538
  band No.  band energies     occupation 
      1       6.3093      1.00000
      2       7.3370      1.00416
      3       7.8138      0.08937
      4      10.5213      0.00000
      5      20.4182      0.00000
      6      23.2937      0.00000
      7      26.6615      0.00000
      8      27.9624      0.00000
      9      34.4818      0.00000
     10      38.6964      0.00000
     11      41.7752      0.00000
     12      42.0993      0.00000
     13      42.8188      0.00000
     14      44.1393      0.00000
     15      45.0030      0.00000
     16      46.3121      0.00000
     17      50.7369      0.00000
     18      53.1712      0.00000
     19      54.0291      0.00000
     20      55.1826      0.00000
     21      55.6339      0.00000
     22      56.9158      0.00000
     23      56.9167      0.00000
     24      57.7803      0.00000
     25      59.3352      0.00000
     26      61.6293      0.00000
     27      62.4155      0.00000
     28      62.5173      0.00000
     29      65.0949      0.00000
     30      66.9991      0.00000
     31      68.9326      0.00000
     32      72.9303      0.00000
     33      74.0977      0.00000
     34      79.1598      0.00000
     35      79.2119      0.00000
     36      83.1615      0.00000
     37      87.3959      0.00000
     38      87.8103      0.00000
     39      90.1342      0.00000
     40      91.8744      0.00000
     41      95.6992      0.00000
     42      96.3294      0.00000
     43      97.7869      0.00000
     44      99.1912      0.00000
     45     100.7872      0.00000
     46     102.3440      0.00000
     47     102.5183      0.00000
     48     103.8328      0.00000

 k-point    84 :      -0.3077    0.4615    0.2308
  band No.  band energies     occupation 
      1       6.0549      1.00000
      2       7.4880      1.00039
      3       8.6374     -0.01056
      4       9.4227      0.00000
      5      22.8422      0.00000
      6      23.6764      0.00000
      7      24.5443      0.00000
      8      27.0912      0.00000
      9      34.6427      0.00000
     10      38.9319      0.00000
     11      41.6365      0.00000
     12      41.7043      0.00000
     13      42.8068      0.00000
     14      43.5371      0.00000
     15      44.9957      0.00000
     16      46.6179      0.00000
     17      51.7208      0.00000
     18      52.8322      0.00000
     19      54.3035      0.00000
     20      54.8279      0.00000
     21      56.1503      0.00000
     22      57.3433      0.00000
     23      57.9679      0.00000
     24      59.5265      0.00000
     25      60.2150      0.00000
     26      61.2079      0.00000
     27      61.9560      0.00000
     28      63.2967      0.00000
     29      64.4466      0.00000
     30      65.0263      0.00000
     31      65.6744      0.00000
     32      72.6071      0.00000
     33      74.3386      0.00000
     34      78.9844      0.00000
     35      79.3818      0.00000
     36      82.7532      0.00000
     37      88.5346      0.00000
     38      89.2314      0.00000
     39      93.3566      0.00000
     40      93.8844      0.00000
     41      94.6582      0.00000
     42      96.1270      0.00000
     43      97.0241      0.00000
     44      97.3894      0.00000
     45      99.6880      0.00000
     46     100.1234      0.00000
     47     102.6597      0.00000
     48     104.0070      0.00000


--------------------------------------------------------------------------------------------------------


 soft charge-density along one line, spin component           1
         0         1         2         3         4         5         6         7         8         9
 total charge-density along one line

 soft charge-density along one line, spin component           2
         0         1         2         3         4         5         6         7         8         9
 total charge-density along one line

 pseudopotential strength for first ion, spin component:           1
  8.445  14.393   0.000  -0.000   0.000   0.000  -0.000   0.000
 14.393  24.530   0.000  -0.000   0.000   0.000  -0.000   0.000
  0.000   0.000   1.987  -0.000  -0.000   5.729  -0.000  -0.000
 -0.000  -0.000  -0.000   1.987  -0.000  -0.000   5.729  -0.000
  0.000   0.000  -0.000  -0.000   1.987  -0.000  -0.000   5.729
  0.000   0.000   5.729  -0.000  -0.000  16.434  -0.000  -0.000
 -0.000  -0.000  -0.000   5.729  -0.000  -0.000  16.434  -0.000
  0.000   0.000  -0.000  -0.000   5.729  -0.000  -0.000  16.434
 pseudopotential strength for first ion, spin component:           2
  8.445  14.393   0.000  -0.000   0.000   0.000  -0.000   0.000
 14.393  24.531   0.000  -0.000   0.000   0.000  -0.000   0.000
  0.000   0.000   1.987  -0.000  -0.000   5.730  -0.000  -0.000
 -0.000  -0.000  -0.000   1.987  -0.000  -0.000   5.730  -0.000
  0.000   0.000  -0.000  -0.000   1.987  -0.000  -0.000   5.730
  0.000   0.000   5.730  -0.000  -0.000  16.434  -0.000  -0.000
 -0.000  -0.000  -0.000   5.730  -0.000  -0.000  16.434  -0.000
  0.000   0.000  -0.000  -0.000   5.730  -0.000  -0.000  16.434
 total augmentation occupancy for first ion, spin component:           1
  3.352  -0.828   0.000   0.000   0.000   0.000   0.000   0.000
 -0.828   0.268   0.000   0.000   0.000   0.000   0.000   0.000
  0.000   0.000   1.105  -0.000  -0.000  -0.070   0.000   0.000
  0.000   0.000   0.000   1.105   0.000   0.000  -0.070  -0.000
  0.000   0.000   0.000   0.000   1.105   0.000  -0.000  -0.070
  0.000   0.000  -0.070   0.000  -0.000   0.005  -0.000   0.000
  0.000   0.000  -0.000  -0.070   0.000   0.000   0.005   0.000
  0.000   0.000  -0.000   0.000  -0.070  -0.000  -0.000   0.005
 total augmentation occupancy for first ion, spin component:           2
  0.017  -0.006   0.000   0.000   0.000   0.000   0.000   0.000
 -0.006   0.002   0.000   0.000   0.000   0.000   0.000   0.000
  0.000   0.000   0.002   0.000   0.000  -0.000   0.000   0.000
  0.000   0.000   0.000   0.002   0.000   0.000  -0.000   0.000
  0.000   0.000   0.000   0.000   0.002   0.000   0.000  -0.000
  0.000   0.000  -0.000   0.000   0.000   0.000   0.000   0.000
  0.000   0.000   0.000  -0.000   0.000   0.000   0.000   0.000
  0.000   0.000   0.000   0.000  -0.000   0.000   0.000   0.000


------------------------ aborting loop because EDIFF is reached ----------------------------------------





 total charge

# of ion       s       p       d       tot
------------------------------------------
    1        0.423   0.340   0.000   0.764



 magnetization (x)

# of ion       s       p       d       tot
------------------------------------------
    1       -0.000  -0.000   0.000  -0.000

    CHARGE:  cpu time    0.0562: real time    0.0562
    FORLOC:  cpu time    0.0001: real time    0.0002
    FORNL :  cpu time    0.0097: real time    0.0098
    STRESS:  cpu time    0.1318: real time    0.1319
    FORCOR:  cpu time    0.0056: real time    0.0057
    FORHAR:  cpu time    0.0008: real time    0.0009
    MIXING:  cpu time    0.0002: real time    0.0002
    OFIELD:  cpu time    0.0000: real time    0.0000

  FORCE on cell =-STRESS in cart. coord.  units (eV):
  Direction    XX          YY          ZZ          XY          YZ          ZX
  --------------------------------------------------------------------------------------
  Alpha Z    -0.20255    -0.20255    -0.20255
  Ewald     -24.46432   -24.46432   -24.46432    -0.00000    -0.00000     0.00000
  Hartree     0.03541     0.03541     0.03541     0.00000     0.00000     0.00000
  E(xc)      -8.54729    -8.54729    -8.54729     0.00000     0.00000     0.00000
  Local       0.35064     0.35064     0.35064    -0.00000    -0.00000    -0.00000
  n-local    18.84838    18.48040    18.96554     0.45177    -0.57885     0.50564
  augment    -1.01663    -1.01663    -1.01663     0.00000     0.00000     0.00000
  Kinetic    12.43933    11.03095    21.45245    -9.61594     8.32545    -6.19432
  Fock        0.00000     0.00000     0.00000     0.00000     0.00000     0.00000
  -------------------------------------------------------------------------------------
  Total      -0.10572    -0.10572    -0.10572    -0.00000     0.00000    -0.00000
  in kB     -10.21434   -10.21434   -10.21434    -0.00000     0.00000    -0.00000
  external pressure =      -10.21 kB  Pullay stress =        0.00 kB


 VOLUME and BASIS-vectors are now :
 -----------------------------------------------------------------------------
  energy-cutoff  :      520.00
  volume of cell :       16.58
      direct lattice vectors                 reciprocal lattice vectors
     0.000000000  2.024000000  2.024000000    -0.247035573  0.247035573  0.247035573
     2.024000000  0.000000000  2.024000000     0.247035573 -0.247035573  0.247035573
     2.024000000  2.024000000  0.000000000     0.247035573  0.247035573 -0.247035573

  length of vectors
     2.862368250  2.862368250  2.862368250     0.427878164  0.427878164  0.427878164


 FORCES acting on ions
    electron-ion (+dipol)            ewald-force                    non-local-force                 convergence-correction
 -----------------------------------------------------------------------------------------------
   0.103E-14 0.659E-15 0.180E-14   0.817E-16 0.470E-16 -.229E-15   -.646E-26 0.000E+00 0.000E+00   0.201E-17 0.259E-17 0.395E-17
 -----------------------------------------------------------------------------------------------
   0.103E-14 0.659E-15 0.180E-14   0.817E-16 0.470E-16 -.229E-15   -.646E-26 0.000E+00 0.000E+00   0.201E-17 0.259E-17 0.395E-17


 POSITION                                       TOTAL-FORCE (eV/Angst)
 -----------------------------------------------------------------------------------
      0.00000      0.00000      0.00000        -0.000000     -0.000000      0.000000
 -----------------------------------------------------------------------------------
    total drift:                                0.000000      0.000000      0.000000


--------------------------------------------------------------------------------------------------------



  FREE ENERGIE OF THE ION-ELECTRON SYSTEM (eV)
  ---------------------------------------------------
  free  energy   TOTEN  =        -3.74442005 eV

  energy  without entropy=       -3.74442005  energy(sigma->0) =       -3.74442005



--------------------------------------------------------------------------------------------------------


    POTLOK:  cpu time    0.1763: real time    0.1763


--------------------------------------------------------------------------------------------------------


 stress matrix after NEB project (eV)
     -0.10572      0.00000     -0.00000
     -0.00000     -0.10572     -0.00000
      0.00000      0.00000     -0.10572
  FORCES: max atom, RMS     0.000000    0.000000
  FORCE total and by dimension    0.000000    0.000000
  Stress total and by dimension    0.183114    0.105721
     LOOP+:  cpu time   80.7037: real time   80.7152
 -----------------------------------------------------------------------------
|                                                                             |
|           W    W    AA    RRRRR   N    N  II  N    N   GGGG   !!!           |
|           W    W   A  A   R    R  NN   N  II  NN   N  G    G  !!!           |
|           W    W  A    A  R    R  N N  N  II  N N  N  G       !!!           |
|           W WW W  AAAAAA  RRRRR   N  N N  II  N  N N  G  GGG   !            |
|           WW  WW  A    A  R   R   N   NN  II  N   NN  G    G                |
|           W    W  A    A  R    R  N    N  II  N    N   GGGG   !!!           |
|                                                                             |
|     Tetrahedron method does not include variations of the Fermi             |
|     occupations, so forces and stress will be inaccurate. We suggest        |
|     using a different smearing scheme ISMEAR = 1 or 2 for metals in         |
|     relaxations.                                                            |
|                                                                             |
 -----------------------------------------------------------------------------

    4ORBIT:  cpu time    0.0000: real time    0.0000



 total charge

# of ion       s       p       d       tot
------------------------------------------
    1        0.423   0.340   0.000   0.764



 magnetization (x)

# of ion       s       p       d       tot
------------------------------------------
    1       -0.000  -0.000   0.000  -0.000

 BZINTS: Fermi energy:    7.966476;    3.000000 electrons
         Band energy: 0.106126E+02;  BLOECHL correction:   -0.084932

 total amount of memory used by VASP MPI-rank0    35458. kBytes
=======================================================================

   base      :      30000. kBytes
   nonl-proj :       2588. kBytes
   fftplans  :        150. kBytes
   grid      :       1295. kBytes
   one-center:          6. kBytes
   wavefun   :       1419. kBytes

  
  
 General timing and accounting informations for this job:
 ========================================================
  
                  Total CPU time used (sec):       83.715
                            User time (sec):       81.951
                          System time (sec):        1.764
                         Elapsed time (sec):       83.763
  
                   Maximum memory used (kb):       53388.
                   Average memory used (kb):          N/A
  
                          Minor page faults:        32236
                          Major page faults:          419
                 Voluntary context switches:         1508
