   4   4   1   0
  0.1144571E+02  0.3577431E-09  0.3577475E-09  0.3577475E-09  0.5000000E-15
   1.0000000000000000E-004
  CAR 
 unknown system                          
     24.55142400    -66.88809109  301      7.28940991      1.00000000
    -66.888  0.0000E+00  0.0000E+00
    -66.583  0.0000E+00  0.0000E+00
    -66.278  0.0000E+00  0.0000E+00
    -65.974  0.0000E+00  0.0000E+00
    -65.669  0.0000E+00  0.0000E+00
    -65.364  0.0000E+00  0.0000E+00
    -65.059  0.0000E+00  0.0000E+00
    -64.755  0.0000E+00  0.0000E+00
    -64.450 -0.7266E-31 -0.2215E-31
    -64.145 -0.1893E-20 -0.5771E-21
    -63.840 -0.4609E-12 -0.1405E-12
    -63.535 -0.1086E-05 -0.3309E-06
    -63.231 -0.2319E-01 -0.7069E-02
    -62.926 -0.2440E+01 -0.7507E+00
    -62.621  0.5435E+02  0.1582E+02
    -62.316  0.2827E+02  0.2443E+02
    -62.011 -0.1420E+01  0.2400E+02
    -61.707 -0.2459E-02  0.2400E+02
    -61.402 -0.2789E-07  0.2400E+02
    -61.097 -0.1466E-14  0.2400E+02
    -60.792  0.0000E+00  0.2400E+02
    -60.487  0.0000E+00  0.2400E+02
    -60.183  0.0000E+00  0.2400E+02
    -59.878  0.0000E+00  0.2400E+02
    -59.573  0.0000E+00  0.2400E+02
    -59.268  0.0000E+00  0.2400E+02
    -58.963  0.0000E+00  0.2400E+02
    -58.659  0.0000E+00  0.2400E+02
    -58.354  0.0000E+00  0.2400E+02
    -58.049  0.0000E+00  0.2400E+02
    -57.744  0.0000E+00  0.2400E+02
    -57.439  0.0000E+00  0.2400E+02
    -57.135  0.0000E+00  0.2400E+02
    -56.830  0.0000E+00  0.2400E+02
    -56.525  0.0000E+00  0.2400E+02
    -56.220  0.0000E+00  0.2400E+02
    -55.915  0.0000E+00  0.2400E+02
    -55.611  0.0000E+00  0.2400E+02
    -55.306  0.0000E+00  0.2400E+02
    -55.001  0.0000E+00  0.2400E+02
    -54.696  0.0000E+00  0.2400E+02
    -54.391  0.0000E+00  0.2400E+02
    -54.087  0.0000E+00  0.2400E+02
    -53.782  0.0000E+00  0.2400E+02
    -53.477  0.0000E+00  0.2400E+02
    -53.172  0.0000E+00  0.2400E+02
    -52.867  0.0000E+00  0.2400E+02
    -52.563  0.0000E+00  0.2400E+02
    -52.258  0.0000E+00  0.2400E+02
    -51.953  0.0000E+00  0.2400E+02
    -51.648  0.0000E+00  0.2400E+02
    -51.343  0.0000E+00  0.2400E+02
    -51.039  0.0000E+00  0.2400E+02
    -50.734  0.0000E+00  0.2400E+02
    -50.429  0.0000E+00  0.2400E+02
    -50.124  0.0000E+00  0.2400E+02
    -49.819  0.0000E+00  0.2400E+02
    -49.515  0.0000E+00  0.2400E+02
    -49.210  0.0000E+00  0.2400E+02
    -48.905  0.0000E+00  0.2400E+02
    -48.600  0.0000E+00  0.2400E+02
    -48.295  0.0000E+00  0.2400E+02
    -47.991  0.0000E+00  0.2400E+02
    -47.686  0.0000E+00  0.2400E+02
    -47.381  0.0000E+00  0.2400E+02
    -47.076  0.0000E+00  0.2400E+02
    -46.771  0.0000E+00  0.2400E+02
    -46.467  0.0000E+00  0.2400E+02
    -46.162  0.0000E+00  0.2400E+02
    -45.857  0.0000E+00  0.2400E+02
    -45.552  0.0000E+00  0.2400E+02
    -45.247  0.0000E+00  0.2400E+02
    -44.943  0.0000E+00  0.2400E+02
    -44.638  0.0000E+00  0.2400E+02
    -44.333  0.0000E+00  0.2400E+02
    -44.028  0.0000E+00  0.2400E+02
    -43.723  0.0000E+00  0.2400E+02
    -43.419  0.0000E+00  0.2400E+02
    -43.114  0.0000E+00  0.2400E+02
    -42.809  0.0000E+00  0.2400E+02
    -42.504  0.0000E+00  0.2400E+02
    -42.199  0.0000E+00  0.2400E+02
    -41.895  0.0000E+00  0.2400E+02
    -41.590  0.0000E+00  0.2400E+02
    -41.285  0.0000E+00  0.2400E+02
    -40.980  0.0000E+00  0.2400E+02
    -40.675  0.0000E+00  0.2400E+02
    -40.371  0.0000E+00  0.2400E+02
    -40.066  0.0000E+00  0.2400E+02
    -39.761  0.0000E+00  0.2400E+02
    -39.456  0.0000E+00  0.2400E+02
    -39.151  0.0000E+00  0.2400E+02
    -38.847  0.0000E+00  0.2400E+02
    -38.542  0.0000E+00  0.2400E+02
    -38.237  0.0000E+00  0.2400E+02
    -37.932  0.0000E+00  0.2400E+02
    -37.627  0.0000E+00  0.2400E+02
    -37.323  0.0000E+00  0.2400E+02
    -37.018  0.0000E+00  0.2400E+02
    -36.713  0.0000E+00  0.2400E+02
    -36.408  0.0000E+00  0.2400E+02
    -36.103  0.0000E+00  0.2400E+02
    -35.799  0.0000E+00  0.2400E+02
    -35.494  0.0000E+00  0.2400E+02
    -35.189  0.0000E+00  0.2400E+02
    -34.884  0.0000E+00  0.2400E+02
    -34.579  0.0000E+00  0.2400E+02
    -34.275  0.0000E+00  0.2400E+02
    -33.970  0.0000E+00  0.2400E+02
    -33.665  0.0000E+00  0.2400E+02
    -33.360  0.0000E+00  0.2400E+02
    -33.055  0.0000E+00  0.2400E+02
    -32.751  0.0000E+00  0.2400E+02
    -32.446  0.0000E+00  0.2400E+02
    -32.141  0.0000E+00  0.2400E+02
    -31.836  0.0000E+00  0.2400E+02
    -31.531  0.0000E+00  0.2400E+02
    -31.227  0.0000E+00  0.2400E+02
    -30.922  0.0000E+00  0.2400E+02
    -30.617  0.0000E+00  0.2400E+02
    -30.312  0.0000E+00  0.2400E+02
    -30.007  0.0000E+00  0.2400E+02
    -29.703  0.0000E+00  0.2400E+02
    -29.398  0.0000E+00  0.2400E+02
    -29.093  0.0000E+00  0.2400E+02
    -28.788  0.0000E+00  0.2400E+02
    -28.483  0.0000E+00  0.2400E+02
    -28.179  0.0000E+00  0.2400E+02
    -27.874  0.0000E+00  0.2400E+02
    -27.569  0.0000E+00  0.2400E+02
    -27.264  0.0000E+00  0.2400E+02
    -26.960  0.0000E+00  0.2400E+02
    -26.655  0.0000E+00  0.2400E+02
    -26.350  0.0000E+00  0.2400E+02
    -26.045  0.0000E+00  0.2400E+02
    -25.740  0.0000E+00  0.2400E+02
    -25.436  0.0000E+00  0.2400E+02
    -25.131  0.0000E+00  0.2400E+02
    -24.826  0.0000E+00  0.2400E+02
    -24.521  0.0000E+00  0.2400E+02
    -24.216  0.0000E+00  0.2400E+02
    -23.912  0.0000E+00  0.2400E+02
    -23.607  0.0000E+00  0.2400E+02
    -23.302  0.0000E+00  0.2400E+02
    -22.997  0.0000E+00  0.2400E+02
    -22.692  0.0000E+00  0.2400E+02
    -22.388  0.0000E+00  0.2400E+02
    -22.083  0.0000E+00  0.2400E+02
    -21.778  0.0000E+00  0.2400E+02
    -21.473  0.0000E+00  0.2400E+02
    -21.168  0.0000E+00  0.2400E+02
    -20.864  0.0000E+00  0.2400E+02
    -20.559  0.0000E+00  0.2400E+02
    -20.254  0.0000E+00  0.2400E+02
    -19.949  0.0000E+00  0.2400E+02
    -19.644  0.0000E+00  0.2400E+02
    -19.340  0.0000E+00  0.2400E+02
    -19.035  0.0000E+00  0.2400E+02
    -18.730  0.0000E+00  0.2400E+02
    -18.425  0.0000E+00  0.2400E+02
    -18.120  0.0000E+00  0.2400E+02
    -17.816  0.0000E+00  0.2400E+02
    -17.511  0.0000E+00  0.2400E+02
    -17.206  0.0000E+00  0.2400E+02
    -16.901  0.0000E+00  0.2400E+02
    -16.596  0.0000E+00  0.2400E+02
    -16.292  0.0000E+00  0.2400E+02
    -15.987  0.0000E+00  0.2400E+02
    -15.682  0.0000E+00  0.2400E+02
    -15.377  0.0000E+00  0.2400E+02
    -15.072  0.0000E+00  0.2400E+02
    -14.768  0.0000E+00  0.2400E+02
    -14.463  0.0000E+00  0.2400E+02
    -14.158  0.0000E+00  0.2400E+02
    -13.853  0.0000E+00  0.2400E+02
    -13.548  0.0000E+00  0.2400E+02
    -13.244  0.0000E+00  0.2400E+02
    -12.939  0.0000E+00  0.2400E+02
    -12.634  0.0000E+00  0.2400E+02
    -12.329  0.0000E+00  0.2400E+02
    -12.024  0.0000E+00  0.2400E+02
    -11.720  0.0000E+00  0.2400E+02
    -11.415  0.0000E+00  0.2400E+02
    -11.110  0.0000E+00  0.2400E+02
    -10.805  0.0000E+00  0.2400E+02
    -10.500  0.0000E+00  0.2400E+02
    -10.196  0.0000E+00  0.2400E+02
     -9.891  0.0000E+00  0.2400E+02
     -9.586  0.0000E+00  0.2400E+02
     -9.281  0.0000E+00  0.2400E+02
     -8.976  0.0000E+00  0.2400E+02
     -8.672  0.0000E+00  0.2400E+02
     -8.367  0.0000E+00  0.2400E+02
     -8.062  0.0000E+00  0.2400E+02
     -7.757  0.0000E+00  0.2400E+02
     -7.452  0.0000E+00  0.2400E+02
     -7.148  0.0000E+00  0.2400E+02
     -6.843  0.0000E+00  0.2400E+02
     -6.538  0.0000E+00  0.2400E+02
     -6.233  0.0000E+00  0.2400E+02
     -5.928  0.0000E+00  0.2400E+02
     -5.624  0.0000E+00  0.2400E+02
     -5.319  0.0000E+00  0.2400E+02
     -5.014  0.0000E+00  0.2400E+02
     -4.709  0.0000E+00  0.2400E+02
     -4.404  0.0000E+00  0.2400E+02
     -4.100 -0.3657E-35  0.2400E+02
     -3.795 -0.1217E-24  0.2400E+02
     -3.490 -0.3688E-16  0.2400E+02
     -3.185 -0.1077E-09  0.2400E+02
     -2.880 -0.3250E-05  0.2400E+02
     -2.576 -0.1070E-02  0.2400E+02
     -2.271  0.1750E-01  0.2401E+02
     -1.966  0.1296E+00  0.2404E+02
     -1.661  0.2058E+00  0.2411E+02
     -1.356  0.2929E+00  0.2420E+02
     -1.052  0.3096E+00  0.2429E+02
     -0.747  0.4108E+00  0.2442E+02
     -0.442  0.3980E+00  0.2454E+02
     -0.137  0.5186E+00  0.2470E+02
      0.168  0.5383E+00  0.2486E+02
      0.472  0.6164E+00  0.2505E+02
      0.777  0.6830E+00  0.2526E+02
      1.082  0.8401E+00  0.2551E+02
      1.387  0.8822E+00  0.2578E+02
      1.692  0.1297E+01  0.2618E+02
      1.996  0.1774E+01  0.2672E+02
      2.301  0.3475E+01  0.2778E+02
      2.606  0.4747E+01  0.2922E+02
      2.911  0.6725E+01  0.3127E+02
      3.216  0.8704E+01  0.3393E+02
      3.520  0.7928E+01  0.3634E+02
      3.825  0.9797E+01  0.3933E+02
      4.130  0.1298E+02  0.4329E+02
      4.435  0.1540E+02  0.4798E+02
      4.740  0.1081E+02  0.5128E+02
      5.044  0.1295E+02  0.5522E+02
      5.349  0.1247E+02  0.5902E+02
      5.654  0.1679E+02  0.6414E+02
      5.959  0.6867E+01  0.6624E+02
      6.264  0.1427E+01  0.6667E+02
      6.568  0.1397E+01  0.6710E+02
      6.873  0.1098E+01  0.6743E+02
      7.178  0.1559E+01  0.6791E+02
      7.483  0.9004E+00  0.6818E+02
      7.788  0.1258E+01  0.6856E+02
      8.092  0.1225E+01  0.6894E+02
      8.397  0.7557E+00  0.6917E+02
      8.702  0.1280E+01  0.6956E+02
      9.007  0.9457E+00  0.6985E+02
      9.312  0.9351E+00  0.7013E+02
      9.616  0.8784E+00  0.7040E+02
      9.921  0.1003E+01  0.7070E+02
     10.226  0.5845E+00  0.7088E+02
     10.531  0.8006E+00  0.7113E+02
     10.835  0.6635E+00  0.7133E+02
     11.140  0.5576E+00  0.7150E+02
     11.445  0.8023E+00  0.7174E+02
     11.750  0.1208E+01  0.7211E+02
     12.055  0.1137E+01  0.7246E+02
     12.359  0.1052E+01  0.7278E+02
     12.664  0.1308E+01  0.7318E+02
     12.969  0.9994E+00  0.7348E+02
     13.274  0.1004E+01  0.7379E+02
     13.579  0.9832E+00  0.7409E+02
     13.883  0.1054E+01  0.7441E+02
     14.188  0.8605E+00  0.7467E+02
     14.493  0.8644E+00  0.7493E+02
     14.798  0.9780E+00  0.7523E+02
     15.103  0.1181E+01  0.7559E+02
     15.407  0.1372E+01  0.7601E+02
     15.712  0.1432E+01  0.7645E+02
     16.017  0.1002E+01  0.7675E+02
     16.322  0.1638E+01  0.7725E+02
     16.627  0.1521E+01  0.7772E+02
     16.931  0.8911E+00  0.7799E+02
     17.236  0.1524E+01  0.7845E+02
     17.541  0.1176E+01  0.7881E+02
     17.846  0.1408E+01  0.7924E+02
     18.151  0.9073E+00  0.7952E+02
     18.455  0.5910E+00  0.7970E+02
     18.760  0.4827E+00  0.7984E+02
     19.065  0.3034E+00  0.7994E+02
     19.370  0.1525E+00  0.7998E+02
     19.675  0.2067E-02  0.7998E+02
     19.979  0.2108E-01  0.7999E+02
     20.284  0.3301E-01  0.8000E+02
     20.589  0.3577E-02  0.8000E+02
     20.894 -0.1487E-03  0.8000E+02
     21.199 -0.4536E-05  0.8000E+02
     21.503 -0.3947E-09  0.8000E+02
     21.808 -0.2639E-15  0.8000E+02
     22.113  0.0000E+00  0.8000E+02
     22.418  0.0000E+00  0.8000E+02
     22.723  0.0000E+00  0.8000E+02
     23.027  0.0000E+00  0.8000E+02
     23.332  0.0000E+00  0.8000E+02
     23.637  0.0000E+00  0.8000E+02
     23.942  0.0000E+00  0.8000E+02
     24.247  0.0000E+00  0.8000E+02
     24.551  0.0000E+00  0.8000E+02
     24.55142400    -66.88809109  301      7.28940991      1.00000000
    -66.888  0.0000E+00  0.0000E+00  0.0000E+00  0.0000E+00  0.0000E+00  0.0000E+00  0.0000E+00  0.0000E+00  0.0000E+00
    -66.583  0.0000E+00  0.0000E+00  0.0000E+00  0.0000E+00  0.0000E+00  0.0000E+00  0.0000E+00  0.0000E+00  0.0000E+00
    -66.278  0.0000E+00  0.0000E+00  0.0000E+00  0.0000E+00  0.0000E+00  0.0000E+00  0.0000E+00  0.0000E+00  0.0000E+00
    -65.974  0.0000E+00  0.0000E+00  0.0000E+00  0.0000E+00  0.0000E+00  0.0000E+00  0.0000E+00  0.0000E+00  0.0000E+00
    -65.669  0.0000E+00  0.0000E+00  0.0000E+00  0.0000E+00  0.0000E+00  0.0000E+00  0.0000E+00  0.0000E+00  0.0000E+00
    -65.364  0.0000E+00  0.0000E+00  0.0000E+00  0.0000E+00  0.0000E+00  0.0000E+00  0.0000E+00  0.0000E+00  0.0000E+00
    -65.059  0.0000E+00  0.0000E+00  0.0000E+00  0.0000E+00  0.0000E+00  0.0000E+00  0.0000E+00  0.0000E+00  0.0000E+00
    -64.755  0.0000E+00  0.0000E+00  0.0000E+00  0.0000E+00  0.0000E+00  0.0000E+00  0.0000E+00  0.0000E+00  0.0000E+00
    -64.450 -0.3084E-37 -0.6076E-32 -0.6076E-32 -0.5928E-32 -0.1062E-37 -0.1089E-37 -0.5225E-38 -0.1062E-37 -0.4181E-38
    -64.145 -0.8810E-27 -0.1581E-21 -0.1581E-21 -0.1550E-21 -0.2963E-27 -0.3038E-27 -0.1440E-27 -0.2963E-27 -0.1153E-27
    -63.840 -0.2323E-18 -0.3843E-13 -0.3843E-13 -0.3785E-13 -0.7760E-19 -0.7943E-19 -0.3736E-19 -0.7760E-19 -0.3011E-19
    -63.535 -0.5746E-12 -0.9038E-07 -0.9038E-07 -0.8950E-07 -0.1970E-12 -0.2013E-12 -0.9476E-13 -0.1970E-12 -0.7758E-13
    -63.231 -0.1195E-07 -0.1928E-02 -0.1928E-02 -0.1919E-02 -0.4470E-08 -0.4549E-08 -0.2207E-08 -0.4470E-08 -0.1865E-08
    -62.926 -0.9595E-06 -0.2026E+00 -0.2026E+00 -0.2027E+00 -0.4707E-06 -0.4757E-06 -0.2566E-06 -0.4707E-06 -0.2321E-06
    -62.621  0.2239E-04  0.4515E+01  0.4515E+01  0.4513E+01  0.1043E-04  0.1056E-04  0.5603E-05  0.1043E-04  0.5018E-05
    -62.316  0.8120E-05  0.2348E+01  0.2348E+01  0.2350E+01  0.4956E-05  0.4990E-05  0.2917E-05  0.4956E-05  0.2747E-05
    -62.011 -0.4075E-06 -0.1180E+00 -0.1180E+00 -0.1181E+00 -0.2484E-06 -0.2501E-06 -0.1462E-06 -0.2484E-06 -0.1377E-06
    -61.707 -0.4647E-09 -0.2043E-03 -0.2043E-03 -0.2045E-03 -0.3720E-09 -0.3730E-09 -0.2340E-09 -0.3720E-09 -0.2303E-09
    -61.402 -0.3876E-14 -0.2318E-08 -0.2318E-08 -0.2320E-08 -0.3744E-14 -0.3744E-14 -0.2409E-14 -0.3744E-14 -0.2447E-14
    -61.097 -0.6803E-22 -0.1217E-15 -0.1217E-15 -0.1223E-15 -0.1164E-21 -0.1127E-21 -0.4636E-22 -0.1164E-21 -0.6004E-22
    -60.792  0.0000E+00  0.0000E+00  0.0000E+00  0.0000E+00  0.0000E+00  0.0000E+00  0.0000E+00  0.0000E+00  0.0000E+00
    -60.487  0.0000E+00  0.0000E+00  0.0000E+00  0.0000E+00  0.0000E+00  0.0000E+00  0.0000E+00  0.0000E+00  0.0000E+00
    -60.183  0.0000E+00  0.0000E+00  0.0000E+00  0.0000E+00  0.0000E+00  0.0000E+00  0.0000E+00  0.0000E+00  0.0000E+00
    -59.878  0.0000E+00  0.0000E+00  0.0000E+00  0.0000E+00  0.0000E+00  0.0000E+00  0.0000E+00  0.0000E+00  0.0000E+00
    -59.573  0.0000E+00  0.0000E+00  0.0000E+00  0.0000E+00  0.0000E+00  0.0000E+00  0.0000E+00  0.0000E+00  0.0000E+00
    -59.268  0.0000E+00  0.0000E+00  0.0000E+00  0.0000E+00  0.0000E+00  0.0000E+00  0.0000E+00  0.0000E+00  0.0000E+00
    -58.963  0.0000E+00  0.0000E+00  0.0000E+00  0.0000E+00  0.0000E+00  0.0000E+00  0.0000E+00  0.0000E+00  0.0000E+00
    -58.659  0.0000E+00  0.0000E+00  0.0000E+00  0.0000E+00  0.0000E+00  0.0000E+00  0.0000E+00  0.0000E+00  0.0000E+00
    -58.354  0.0000E+00  0.0000E+00  0.0000E+00  0.0000E+00  0.0000E+00  0.0000E+00  0.0000E+00  0.0000E+00  0.0000E+00
    -58.049  0.0000E+00  0.0000E+00  0.0000E+00  0.0000E+00  0.0000E+00  0.0000E+00  0.0000E+00  0.0000E+00  0.0000E+00
    -57.744  0.0000E+00  0.0000E+00  0.0000E+00  0.0000E+00  0.0000E+00  0.0000E+00  0.0000E+00  0.0000E+00  0.0000E+00
    -57.439  0.0000E+00  0.0000E+00  0.0000E+00  0.0000E+00  0.0000E+00  0.0000E+00  0.0000E+00  0.0000E+00  0.0000E+00
    -57.135  0.0000E+00  0.0000E+00  0.0000E+00  0.0000E+00  0.0000E+00  0.0000E+00  0.0000E+00  0.0000E+00  0.0000E+00
    -56.830  0.0000E+00  0.0000E+00  0.0000E+00  0.0000E+00  0.0000E+00  0.0000E+00  0.0000E+00  0.0000E+00  0.0000E+00
    -56.525  0.0000E+00  0.0000E+00  0.0000E+00  0.0000E+00  0.0000E+00  0.0000E+00  0.0000E+00  0.0000E+00  0.0000E+00
    -56.220  0.0000E+00  0.0000E+00  0.0000E+00  0.0000E+00  0.0000E+00  0.0000E+00  0.0000E+00  0.0000E+00  0.0000E+00
    -55.915  0.0000E+00  0.0000E+00  0.0000E+00  0.0000E+00  0.0000E+00  0.0000E+00  0.0000E+00  0.0000E+00  0.0000E+00
    -55.611  0.0000E+00  0.0000E+00  0.0000E+00  0.0000E+00  0.0000E+00  0.0000E+00  0.0000E+00  0.0000E+00  0.0000E+00
    -55.306  0.0000E+00  0.0000E+00  0.0000E+00  0.0000E+00  0.0000E+00  0.0000E+00  0.0000E+00  0.0000E+00  0.0000E+00
    -55.001  0.0000E+00  0.0000E+00  0.0000E+00  0.0000E+00  0.0000E+00  0.0000E+00  0.0000E+00  0.0000E+00  0.0000E+00
    -54.696  0.0000E+00  0.0000E+00  0.0000E+00  0.0000E+00  0.0000E+00  0.0000E+00  0.0000E+00  0.0000E+00  0.0000E+00
    -54.391  0.0000E+00  0.0000E+00  0.0000E+00  0.0000E+00  0.0000E+00  0.0000E+00  0.0000E+00  0.0000E+00  0.0000E+00
    -54.087  0.0000E+00  0.0000E+00  0.0000E+00  0.0000E+00  0.0000E+00  0.0000E+00  0.0000E+00  0.0000E+00  0.0000E+00
    -53.782  0.0000E+00  0.0000E+00  0.0000E+00  0.0000E+00  0.0000E+00  0.0000E+00  0.0000E+00  0.0000E+00  0.0000E+00
    -53.477  0.0000E+00  0.0000E+00  0.0000E+00  0.0000E+00  0.0000E+00  0.0000E+00  0.0000E+00  0.0000E+00  0.0000E+00
    -53.172  0.0000E+00  0.0000E+00  0.0000E+00  0.0000E+00  0.0000E+00  0.0000E+00  0.0000E+00  0.0000E+00  0.0000E+00
    -52.867  0.0000E+00  0.0000E+00  0.0000E+00  0.0000E+00  0.0000E+00  0.0000E+00  0.0000E+00  0.0000E+00  0.0000E+00
    -52.563  0.0000E+00  0.0000E+00  0.0000E+00  0.0000E+00  0.0000E+00  0.0000E+00  0.0000E+00  0.0000E+00  0.0000E+00
    -52.258  0.0000E+00  0.0000E+00  0.0000E+00  0.0000E+00  0.0000E+00  0.0000E+00  0.0000E+00  0.0000E+00  0.0000E+00
    -51.953  0.0000E+00  0.0000E+00  0.0000E+00  0.0000E+00  0.0000E+00  0.0000E+00  0.0000E+00  0.0000E+00  0.0000E+00
    -51.648  0.0000E+00  0.0000E+00  0.0000E+00  0.0000E+00  0.0000E+00  0.0000E+00  0.0000E+00  0.0000E+00  0.0000E+00
    -51.343  0.0000E+00  0.0000E+00  0.0000E+00  0.0000E+00  0.0000E+00  0.0000E+00  0.0000E+00  0.0000E+00  0.0000E+00
    -51.039  0.0000E+00  0.0000E+00  0.0000E+00  0.0000E+00  0.0000E+00  0.0000E+00  0.0000E+00  0.0000E+00  0.0000E+00
    -50.734  0.0000E+00  0.0000E+00  0.0000E+00  0.0000E+00  0.0000E+00  0.0000E+00  0.0000E+00  0.0000E+00  0.0000E+00
    -50.429  0.0000E+00  0.0000E+00  0.0000E+00  0.0000E+00  0.0000E+00  0.0000E+00  0.0000E+00  0.0000E+00  0.0000E+00
    -50.124  0.0000E+00  0.0000E+00  0.0000E+00  0.0000E+00  0.0000E+00  0.0000E+00  0.0000E+00  0.0000E+00  0.0000E+00
    -49.819  0.0000E+00  0.0000E+00  0.0000E+00  0.0000E+00  0.0000E+00  0.0000E+00  0.0000E+00  0.0000E+00  0.0000E+00
    -49.515  0.0000E+00  0.0000E+00  0.0000E+00  0.0000E+00  0.0000E+00  0.0000E+00  0.0000E+00  0.0000E+00  0.0000E+00
    -49.210  0.0000E+00  0.0000E+00  0.0000E+00  0.0000E+00  0.0000E+00  0.0000E+00  0.0000E+00  0.0000E+00  0.0000E+00
    -48.905  0.0000E+00  0.0000E+00  0.0000E+00  0.0000E+00  0.0000E+00  0.0000E+00  0.0000E+00  0.0000E+00  0.0000E+00
    -48.600  0.0000E+00  0.0000E+00  0.0000E+00  0.0000E+00  0.0000E+00  0.0000E+00  0.0000E+00  0.0000E+00  0.0000E+00
    -48.295  0.0000E+00  0.0000E+00  0.0000E+00  0.0000E+00  0.0000E+00  0.0000E+00  0.0000E+00  0.0000E+00  0.0000E+00
    -47.991  0.0000E+00  0.0000E+00  0.0000E+00  0.0000E+00  0.0000E+00  0.0000E+00  0.0000E+00  0.0000E+00  0.0000E+00
    -47.686  0.0000E+00  0.0000E+00  0.0000E+00  0.0000E+00  0.0000E+00  0.0000E+00  0.0000E+00  0.0000E+00  0.0000E+00
    -47.381  0.0000E+00  0.0000E+00  0.0000E+00  0.0000E+00  0.0000E+00  0.0000E+00  0.0000E+00  0.0000E+00  0.0000E+00
    -47.076  0.0000E+00  0.0000E+00  0.0000E+00  0.0000E+00  0.0000E+00  0.0000E+00  0.0000E+00  0.0000E+00  0.0000E+00
    -46.771  0.0000E+00  0.0000E+00  0.0000E+00  0.0000E+00  0.0000E+00  0.0000E+00  0.0000E+00  0.0000E+00  0.0000E+00
    -46.467  0.0000E+00  0.0000E+00  0.0000E+00  0.0000E+00  0.0000E+00  0.0000E+00  0.0000E+00  0.0000E+00  0.0000E+00
    -46.162  0.0000E+00  0.0000E+00  0.0000E+00  0.0000E+00  0.0000E+00  0.0000E+00  0.0000E+00  0.0000E+00  0.0000E+00
    -45.857  0.0000E+00  0.0000E+00  0.0000E+00  0.0000E+00  0.0000E+00  0.0000E+00  0.0000E+00  0.0000E+00  0.0000E+00
    -45.552  0.0000E+00  0.0000E+00  0.0000E+00  0.0000E+00  0.0000E+00  0.0000E+00  0.0000E+00  0.0000E+00  0.0000E+00
    -45.247  0.0000E+00  0.0000E+00  0.0000E+00  0.0000E+00  0.0000E+00  0.0000E+00  0.0000E+00  0.0000E+00  0.0000E+00
    -44.943  0.0000E+00  0.0000E+00  0.0000E+00  0.0000E+00  0.0000E+00  0.0000E+00  0.0000E+00  0.0000E+00  0.0000E+00
    -44.638  0.0000E+00  0.0000E+00  0.0000E+00  0.0000E+00  0.0000E+00  0.0000E+00  0.0000E+00  0.0000E+00  0.0000E+00
    -44.333  0.0000E+00  0.0000E+00  0.0000E+00  0.0000E+00  0.0000E+00  0.0000E+00  0.0000E+00  0.0000E+00  0.0000E+00
    -44.028  0.0000E+00  0.0000E+00  0.0000E+00  0.0000E+00  0.0000E+00  0.0000E+00  0.0000E+00  0.0000E+00  0.0000E+00
    -43.723  0.0000E+00  0.0000E+00  0.0000E+00  0.0000E+00  0.0000E+00  0.0000E+00  0.0000E+00  0.0000E+00  0.0000E+00
    -43.419  0.0000E+00  0.0000E+00  0.0000E+00  0.0000E+00  0.0000E+00  0.0000E+00  0.0000E+00  0.0000E+00  0.0000E+00
    -43.114  0.0000E+00  0.0000E+00  0.0000E+00  0.0000E+00  0.0000E+00  0.0000E+00  0.0000E+00  0.0000E+00  0.0000E+00
    -42.809  0.0000E+00  0.0000E+00  0.0000E+00  0.0000E+00  0.0000E+00  0.0000E+00  0.0000E+00  0.0000E+00  0.0000E+00
    -42.504  0.0000E+00  0.0000E+00  0.0000E+00  0.0000E+00  0.0000E+00  0.0000E+00  0.0000E+00  0.0000E+00  0.0000E+00
    -42.199  0.0000E+00  0.0000E+00  0.0000E+00  0.0000E+00  0.0000E+00  0.0000E+00  0.0000E+00  0.0000E+00  0.0000E+00
    -41.895  0.0000E+00  0.0000E+00  0.0000E+00  0.0000E+00  0.0000E+00  0.0000E+00  0.0000E+00  0.0000E+00  0.0000E+00
    -41.590  0.0000E+00  0.0000E+00  0.0000E+00  0.0000E+00  0.0000E+00  0.0000E+00  0.0000E+00  0.0000E+00  0.0000E+00
    -41.285  0.0000E+00  0.0000E+00  0.0000E+00  0.0000E+00  0.0000E+00  0.0000E+00  0.0000E+00  0.0000E+00  0.0000E+00
    -40.980  0.0000E+00  0.0000E+00  0.0000E+00  0.0000E+00  0.0000E+00  0.0000E+00  0.0000E+00  0.0000E+00  0.0000E+00
    -40.675  0.0000E+00  0.0000E+00  0.0000E+00  0.0000E+00  0.0000E+00  0.0000E+00  0.0000E+00  0.0000E+00  0.0000E+00
    -40.371  0.0000E+00  0.0000E+00  0.0000E+00  0.0000E+00  0.0000E+00  0.0000E+00  0.0000E+00  0.0000E+00  0.0000E+00
    -40.066  0.0000E+00  0.0000E+00  0.0000E+00  0.0000E+00  0.0000E+00  0.0000E+00  0.0000E+00  0.0000E+00  0.0000E+00
    -39.761  0.0000E+00  0.0000E+00  0.0000E+00  0.0000E+00  0.0000E+00  0.0000E+00  0.0000E+00  0.0000E+00  0.0000E+00
    -39.456  0.0000E+00  0.0000E+00  0.0000E+00  0.0000E+00  0.0000E+00  0.0000E+00  0.0000E+00  0.0000E+00  0.0000E+00
    -39.151  0.0000E+00  0.0000E+00  0.0000E+00  0.0000E+00  0.0000E+00  0.0000E+00  0.0000E+00  0.0000E+00  0.0000E+00
    -38.847  0.0000E+00  0.0000E+00  0.0000E+00  0.0000E+00  0.0000E+00  0.0000E+00  0.0000E+00  0.0000E+00  0.0000E+00
    -38.542  0.0000E+00  0.0000E+00  0.0000E+00  0.0000E+00  0.0000E+00  0.0000E+00  0.0000E+00  0.0000E+00  0.0000E+00
    -38.237  0.0000E+00  0.0000E+00  0.0000E+00  0.0000E+00  0.0000E+00  0.0000E+00  0.0000E+00  0.0000E+00  0.0000E+00
    -37.932  0.0000E+00  0.0000E+00  0.0000E+00  0.0000E+00  0.0000E+00  0.0000E+00  0.0000E+00  0.0000E+00  0.0000E+00
    -37.627  0.0000E+00  0.0000E+00  0.0000E+00  0.0000E+00  0.0000E+00  0.0000E+00  0.0000E+00  0.0000E+00  0.0000E+00
    -37.323  0.0000E+00  0.0000E+00  0.0000E+00  0.0000E+00  0.0000E+00  0.0000E+00  0.0000E+00  0.0000E+00  0.0000E+00
    -37.018  0.0000E+00  0.0000E+00  0.0000E+00  0.0000E+00  0.0000E+00  0.0000E+00  0.0000E+00  0.0000E+00  0.0000E+00
    -36.713  0.0000E+00  0.0000E+00  0.0000E+00  0.0000E+00  0.0000E+00  0.0000E+00  0.0000E+00  0.0000E+00  0.0000E+00
    -36.408  0.0000E+00  0.0000E+00  0.0000E+00  0.0000E+00  0.0000E+00  0.0000E+00  0.0000E+00  0.0000E+00  0.0000E+00
    -36.103  0.0000E+00  0.0000E+00  0.0000E+00  0.0000E+00  0.0000E+00  0.0000E+00  0.0000E+00  0.0000E+00  0.0000E+00
    -35.799  0.0000E+00  0.0000E+00  0.0000E+00  0.0000E+00  0.0000E+00  0.0000E+00  0.0000E+00  0.0000E+00  0.0000E+00
    -35.494  0.0000E+00  0.0000E+00  0.0000E+00  0.0000E+00  0.0000E+00  0.0000E+00  0.0000E+00  0.0000E+00  0.0000E+00
    -35.189  0.0000E+00  0.0000E+00  0.0000E+00  0.0000E+00  0.0000E+00  0.0000E+00  0.0000E+00  0.0000E+00  0.0000E+00
    -34.884  0.0000E+00  0.0000E+00  0.0000E+00  0.0000E+00  0.0000E+00  0.0000E+00  0.0000E+00  0.0000E+00  0.0000E+00
    -34.579  0.0000E+00  0.0000E+00  0.0000E+00  0.0000E+00  0.0000E+00  0.0000E+00  0.0000E+00  0.0000E+00  0.0000E+00
    -34.275  0.0000E+00  0.0000E+00  0.0000E+00  0.0000E+00  0.0000E+00  0.0000E+00  0.0000E+00  0.0000E+00  0.0000E+00
    -33.970  0.0000E+00  0.0000E+00  0.0000E+00  0.0000E+00  0.0000E+00  0.0000E+00  0.0000E+00  0.0000E+00  0.0000E+00
    -33.665  0.0000E+00  0.0000E+00  0.0000E+00  0.0000E+00  0.0000E+00  0.0000E+00  0.0000E+00  0.0000E+00  0.0000E+00
    -33.360  0.0000E+00  0.0000E+00  0.0000E+00  0.0000E+00  0.0000E+00  0.0000E+00  0.0000E+00  0.0000E+00  0.0000E+00
    -33.055  0.0000E+00  0.0000E+00  0.0000E+00  0.0000E+00  0.0000E+00  0.0000E+00  0.0000E+00  0.0000E+00  0.0000E+00
    -32.751  0.0000E+00  0.0000E+00  0.0000E+00  0.0000E+00  0.0000E+00  0.0000E+00  0.0000E+00  0.0000E+00  0.0000E+00
    -32.446  0.0000E+00  0.0000E+00  0.0000E+00  0.0000E+00  0.0000E+00  0.0000E+00  0.0000E+00  0.0000E+00  0.0000E+00
    -32.141  0.0000E+00  0.0000E+00  0.0000E+00  0.0000E+00  0.0000E+00  0.0000E+00  0.0000E+00  0.0000E+00  0.0000E+00
    -31.836  0.0000E+00  0.0000E+00  0.0000E+00  0.0000E+00  0.0000E+00  0.0000E+00  0.0000E+00  0.0000E+00  0.0000E+00
    -31.531  0.0000E+00  0.0000E+00  0.0000E+00  0.0000E+00  0.0000E+00  0.0000E+00  0.0000E+00  0.0000E+00  0.0000E+00
    -31.227  0.0000E+00  0.0000E+00  0.0000E+00  0.0000E+00  0.0000E+00  0.0000E+00  0.0000E+00  0.0000E+00  0.0000E+00
    -30.922  0.0000E+00  0.0000E+00  0.0000E+00  0.0000E+00  0.0000E+00  0.0000E+00  0.0000E+00  0.0000E+00  0.0000E+00
    -30.617  0.0000E+00  0.0000E+00  0.0000E+00  0.0000E+00  0.0000E+00  0.0000E+00  0.0000E+00  0.0000E+00  0.0000E+00
    -30.312  0.0000E+00  0.0000E+00  0.0000E+00  0.0000E+00  0.0000E+00  0.0000E+00  0.0000E+00  0.0000E+00  0.0000E+00
    -30.007  0.0000E+00  0.0000E+00  0.0000E+00  0.0000E+00  0.0000E+00  0.0000E+00  0.0000E+00  0.0000E+00  0.0000E+00
    -29.703  0.0000E+00  0.0000E+00  0.0000E+00  0.0000E+00  0.0000E+00  0.0000E+00  0.0000E+00  0.0000E+00  0.0000E+00
    -29.398  0.0000E+00  0.0000E+00  0.0000E+00  0.0000E+00  0.0000E+00  0.0000E+00  0.0000E+00  0.0000E+00  0.0000E+00
    -29.093  0.0000E+00  0.0000E+00  0.0000E+00  0.0000E+00  0.0000E+00  0.0000E+00  0.0000E+00  0.0000E+00  0.0000E+00
    -28.788  0.0000E+00  0.0000E+00  0.0000E+00  0.0000E+00  0.0000E+00  0.0000E+00  0.0000E+00  0.0000E+00  0.0000E+00
    -28.483  0.0000E+00  0.0000E+00  0.0000E+00  0.0000E+00  0.0000E+00  0.0000E+00  0.0000E+00  0.0000E+00  0.0000E+00
    -28.179  0.0000E+00  0.0000E+00  0.0000E+00  0.0000E+00  0.0000E+00  0.0000E+00  0.0000E+00  0.0000E+00  0.0000E+00
    -27.874  0.0000E+00  0.0000E+00  0.0000E+00  0.0000E+00  0.0000E+00  0.0000E+00  0.0000E+00  0.0000E+00  0.0000E+00
    -27.569  0.0000E+00  0.0000E+00  0.0000E+00  0.0000E+00  0.0000E+00  0.0000E+00  0.0000E+00  0.0000E+00  0.0000E+00
    -27.264  0.0000E+00  0.0000E+00  0.0000E+00  0.0000E+00  0.0000E+00  0.0000E+00  0.0000E+00  0.0000E+00  0.0000E+00
    -26.960  0.0000E+00  0.0000E+00  0.0000E+00  0.0000E+00  0.0000E+00  0.0000E+00  0.0000E+00  0.0000E+00  0.0000E+00
    -26.655  0.0000E+00  0.0000E+00  0.0000E+00  0.0000E+00  0.0000E+00  0.0000E+00  0.0000E+00  0.0000E+00  0.0000E+00
    -26.350  0.0000E+00  0.0000E+00  0.0000E+00  0.0000E+00  0.0000E+00  0.0000E+00  0.0000E+00  0.0000E+00  0.0000E+00
    -26.045  0.0000E+00  0.0000E+00  0.0000E+00  0.0000E+00  0.0000E+00  0.0000E+00  0.0000E+00  0.0000E+00  0.0000E+00
    -25.740  0.0000E+00  0.0000E+00  0.0000E+00  0.0000E+00  0.0000E+00  0.0000E+00  0.0000E+00  0.0000E+00  0.0000E+00
    -25.436  0.0000E+00  0.0000E+00  0.0000E+00  0.0000E+00  0.0000E+00  0.0000E+00  0.0000E+00  0.0000E+00  0.0000E+00
    -25.131  0.0000E+00  0.0000E+00  0.0000E+00  0.0000E+00  0.0000E+00  0.0000E+00  0.0000E+00  0.0000E+00  0.0000E+00
    -24.826  0.0000E+00  0.0000E+00  0.0000E+00  0.0000E+00  0.0000E+00  0.0000E+00  0.0000E+00  0.0000E+00  0.0000E+00
    -24.521  0.0000E+00  0.0000E+00  0.0000E+00  0.0000E+00  0.0000E+00  0.0000E+00  0.0000E+00  0.0000E+00  0.0000E+00
    -24.216  0.0000E+00  0.0000E+00  0.0000E+00  0.0000E+00  0.0000E+00  0.0000E+00  0.0000E+00  0.0000E+00  0.0000E+00
    -23.912  0.0000E+00  0.0000E+00  0.0000E+00  0.0000E+00  0.0000E+00  0.0000E+00  0.0000E+00  0.0000E+00  0.0000E+00
    -23.607  0.0000E+00  0.0000E+00  0.0000E+00  0.0000E+00  0.0000E+00  0.0000E+00  0.0000E+00  0.0000E+00  0.0000E+00
    -23.302  0.0000E+00  0.0000E+00  0.0000E+00  0.0000E+00  0.0000E+00  0.0000E+00  0.0000E+00  0.0000E+00  0.0000E+00
    -22.997  0.0000E+00  0.0000E+00  0.0000E+00  0.0000E+00  0.0000E+00  0.0000E+00  0.0000E+00  0.0000E+00  0.0000E+00
    -22.692  0.0000E+00  0.0000E+00  0.0000E+00  0.0000E+00  0.0000E+00  0.0000E+00  0.0000E+00  0.0000E+00  0.0000E+00
    -22.388  0.0000E+00  0.0000E+00  0.0000E+00  0.0000E+00  0.0000E+00  0.0000E+00  0.0000E+00  0.0000E+00  0.0000E+00
    -22.083  0.0000E+00  0.0000E+00  0.0000E+00  0.0000E+00  0.0000E+00  0.0000E+00  0.0000E+00  0.0000E+00  0.0000E+00
    -21.778  0.0000E+00  0.0000E+00  0.0000E+00  0.0000E+00  0.0000E+00  0.0000E+00  0.0000E+00  0.0000E+00  0.0000E+00
    -21.473  0.0000E+00  0.0000E+00  0.0000E+00  0.0000E+00  0.0000E+00  0.0000E+00  0.0000E+00  0.0000E+00  0.0000E+00
    -21.168  0.0000E+00  0.0000E+00  0.0000E+00  0.0000E+00  0.0000E+00  0.0000E+00  0.0000E+00  0.0000E+00  0.0000E+00
    -20.864  0.0000E+00  0.0000E+00  0.0000E+00  0.0000E+00  0.0000E+00  0.0000E+00  0.0000E+00  0.0000E+00  0.0000E+00
    -20.559  0.0000E+00  0.0000E+00  0.0000E+00  0.0000E+00  0.0000E+00  0.0000E+00  0.0000E+00  0.0000E+00  0.0000E+00
    -20.254  0.0000E+00  0.0000E+00  0.0000E+00  0.0000E+00  0.0000E+00  0.0000E+00  0.0000E+00  0.0000E+00  0.0000E+00
    -19.949  0.0000E+00  0.0000E+00  0.0000E+00  0.0000E+00  0.0000E+00  0.0000E+00  0.0000E+00  0.0000E+00  0.0000E+00
    -19.644  0.0000E+00  0.0000E+00  0.0000E+00  0.0000E+00  0.0000E+00  0.0000E+00  0.0000E+00  0.0000E+00  0.0000E+00
    -19.340  0.0000E+00  0.0000E+00  0.0000E+00  0.0000E+00  0.0000E+00  0.0000E+00  0.0000E+00  0.0000E+00  0.0000E+00