 running on    4 total cores
 distrk:  each k-point on    4 cores,    1 groups
 distr:  one band on    1 cores,    4 groups
 vasp.6.2.1 16May21 (build Aug 15 2022 14:47:30) complex                         
 POSCAR found type information on POSCAR Cu
 POSCAR found :  1 types and       4 ions
 scaLAPACK will be used
 LDA part: xc-table for Pade appr. of Perdew
 POSCAR found type information on POSCAR Cu
 POSCAR found :  1 types and       4 ions
 POSCAR, INCAR and KPOINTS ok, starting setup
 FFT: planning ...
 WAVECAR not read
 entering main loop
       N       E                     dE             d eps       ncg     rms          rms(c)
DAV:   1     0.907664130434E+03    0.90766E+03   -0.46682E+04 27600   0.273E+03
DAV:   2     0.384712270684E+02   -0.86919E+03   -0.84956E+03 24600   0.759E+02
DAV:   3    -0.183817029053E+02   -0.56853E+02   -0.54895E+02 26464   0.216E+02
DAV:   4    -0.197691124322E+02   -0.13874E+01   -0.13707E+01 26352   0.330E+01
DAV:   5    -0.198142191218E+02   -0.45107E-01   -0.45105E-01 29400   0.554E+00    0.161E+01
RMM:   6    -0.178300730940E+02    0.19841E+01   -0.36348E+01 24567   0.608E+01    0.104E+01
RMM:   7    -0.163831777001E+02    0.14469E+01   -0.66246E+00 24124   0.282E+01    0.120E+00
RMM:   8    -0.163471694513E+02    0.36008E-01   -0.67829E-02 25325   0.307E+00    0.336E-01
RMM:   9    -0.163463816375E+02    0.78781E-03   -0.14267E-02 25866   0.979E-01    0.939E-02
RMM:  10    -0.163466453108E+02   -0.26367E-03   -0.30351E-03 26211   0.653E-01    0.660E-02
RMM:  11    -0.163466667657E+02   -0.21455E-04   -0.10303E-03 27849   0.260E-01    0.205E-02
RMM:  12    -0.163466871404E+02   -0.20375E-04   -0.25810E-04 30598   0.148E-01    0.778E-03
RMM:  13    -0.163466952846E+02   -0.81443E-05   -0.68634E-05 32891   0.534E-02    0.276E-03
RMM:  14    -0.163466969659E+02   -0.16813E-05   -0.10252E-05 34106   0.231E-02    0.869E-04
RMM:  15    -0.163466971244E+02   -0.15855E-06   -0.14429E-06 34831   0.801E-03    0.131E-04
RMM:  16    -0.163466971702E+02   -0.45758E-07   -0.16369E-07 26414   0.305E-03    0.344E-04
RMM:  17    -0.163466971288E+02    0.41429E-07   -0.23845E-08 14846   0.149E-03    0.199E-05
RMM:  18    -0.163466971335E+02   -0.47621E-08   -0.63472E-09 13299   0.745E-04
   1 F= -.16346697E+02 E0= -.16347725E+02  d E =0.308428E-02
