   1   1   1   0
  0.1658294E+02  0.2862368E-09  0.2862368E-09  0.2862368E-09  0.5000000E-15
   1.0000000000000000E-004
  CAR 
 unknown system                          
    117.04569714     -8.88440373  301      8.00352187      1.00000000
     -8.884  0.0000E+00  0.0000E+00  0.0000E+00  0.0000E+00
     -8.465  0.0000E+00  0.0000E+00  0.0000E+00  0.0000E+00
     -8.045  0.0000E+00  0.0000E+00  0.0000E+00  0.0000E+00
     -7.625  0.0000E+00  0.0000E+00  0.0000E+00  0.0000E+00
     -7.205  0.0000E+00  0.0000E+00  0.0000E+00  0.0000E+00
     -6.786  0.0000E+00  0.0000E+00  0.0000E+00  0.0000E+00
     -6.366  0.0000E+00  0.0000E+00  0.0000E+00  0.0000E+00
     -5.946  0.0000E+00  0.0000E+00  0.0000E+00  0.0000E+00
     -5.526  0.0000E+00  0.0000E+00  0.0000E+00  0.0000E+00
     -5.107  0.0000E+00  0.0000E+00  0.0000E+00  0.0000E+00
     -4.687  0.0000E+00  0.0000E+00  0.0000E+00  0.0000E+00
     -4.267  0.0000E+00  0.0000E+00  0.0000E+00  0.0000E+00
     -3.847  0.0000E+00  0.0000E+00  0.0000E+00  0.0000E+00
     -3.427  0.0000E+00  0.0000E+00  0.0000E+00  0.0000E+00
     -3.008  0.1405E-01  0.1095E-01  0.7151E-03  0.4915E-03
     -2.588  0.4155E-01  0.4045E-01  0.1346E-01  0.1272E-01
     -2.168  0.5482E-01  0.5421E-01  0.3409E-01  0.3311E-01
     -1.748  0.6963E-01  0.6897E-01  0.6016E-01  0.5892E-01
     -1.329  0.7722E-01  0.7686E-01  0.9082E-01  0.8944E-01
     -0.909  0.8743E-01  0.8696E-01  0.1253E+00  0.1237E+00
     -0.489  0.9539E-01  0.9508E-01  0.1639E+00  0.1622E+00
     -0.069  0.1028E+00  0.1025E+00  0.2055E+00  0.2037E+00
      0.350  0.1109E+00  0.1105E+00  0.2503E+00  0.2483E+00
      0.770  0.1181E+00  0.1179E+00  0.2985E+00  0.2964E+00
      1.190  0.1240E+00  0.1238E+00  0.3493E+00  0.3471E+00
      1.610  0.1308E+00  0.1305E+00  0.4028E+00  0.4005E+00
      2.030  0.1384E+00  0.1380E+00  0.4592E+00  0.4568E+00
      2.449  0.1503E+00  0.1496E+00  0.5195E+00  0.5168E+00
      2.869  0.1636E+00  0.1632E+00  0.5856E+00  0.5827E+00
      3.289  0.1706E+00  0.1716E+00  0.6614E+00  0.6585E+00
      3.709  0.1470E+00  0.1475E+00  0.7261E+00  0.7235E+00
      4.128  0.1571E+00  0.1574E+00  0.7898E+00  0.7870E+00
      4.548  0.1886E+00  0.1903E+00  0.8607E+00  0.8574E+00
      4.968  0.1882E+00  0.1879E+00  0.9378E+00  0.9346E+00
      5.388  0.1815E+00  0.1818E+00  0.1019E+01  0.1016E+01
      5.807  0.1496E+00  0.1513E+00  0.1090E+01  0.1088E+01
      6.227  0.1436E+00  0.1430E+00  0.1150E+01  0.1147E+01
      6.647  0.2136E+00  0.2118E+00  0.1234E+01  0.1230E+01
      7.067  0.2097E+00  0.2098E+00  0.1326E+01  0.1322E+01
      7.487  0.1919E+00  0.1923E+00  0.1408E+01  0.1405E+01
      7.906  0.1700E+00  0.1711E+00  0.1485E+01  0.1482E+01
      8.326  0.2016E+00  0.1993E+00  0.1559E+01  0.1555E+01
      8.746  0.2507E+00  0.2494E+00  0.1657E+01  0.1653E+01
      9.166  0.2048E+00  0.2050E+00  0.1749E+01  0.1745E+01
      9.585  0.2123E+00  0.2116E+00  0.1836E+01  0.1832E+01
     10.005  0.2007E+00  0.2008E+00  0.1923E+01  0.1919E+01
     10.425  0.2341E+00  0.2337E+00  0.2020E+01  0.2016E+01
     10.845  0.2434E+00  0.2425E+00  0.2117E+01  0.2112E+01
     11.264  0.2391E+00  0.2396E+00  0.2221E+01  0.2216E+01
     11.684  0.2338E+00  0.2337E+00  0.2320E+01  0.2315E+01
     12.104  0.2418E+00  0.2408E+00  0.2420E+01  0.2415E+01
     12.524  0.2637E+00  0.2635E+00  0.2529E+01  0.2524E+01
     12.943  0.2800E+00  0.2793E+00  0.2643E+01  0.2637E+01
     13.363  0.2931E+00  0.2918E+00  0.2763E+01  0.2756E+01
     13.783  0.3045E+00  0.3033E+00  0.2889E+01  0.2883E+01
     14.203  0.2817E+00  0.2819E+00  0.3012E+01  0.3006E+01
     14.623  0.2744E+00  0.2746E+00  0.3128E+01  0.3123E+01
     15.042  0.2663E+00  0.2669E+00  0.3242E+01  0.3236E+01
     15.462  0.2605E+00  0.2608E+00  0.3352E+01  0.3347E+01
     15.882  0.2675E+00  0.2670E+00  0.3463E+01  0.3457E+01
     16.302  0.2629E+00  0.2635E+00  0.3574E+01  0.3569E+01
     16.721  0.2576E+00  0.2579E+00  0.3683E+01  0.3678E+01
     17.141  0.2565E+00  0.2565E+00  0.3791E+01  0.3786E+01
     17.561  0.2675E+00  0.2666E+00  0.3901E+01  0.3895E+01
     17.981  0.2782E+00  0.2778E+00  0.4016E+01  0.4010E+01
     18.400  0.2921E+00  0.2912E+00  0.4135E+01  0.4129E+01
     18.820  0.3095E+00  0.3105E+00  0.4263E+01  0.4257E+01
     19.240  0.3368E+00  0.3342E+00  0.4396E+01  0.4389E+01
     19.660  0.3881E+00  0.3888E+00  0.4551E+01  0.4543E+01
     20.080  0.3912E+00  0.3916E+00  0.4715E+01  0.4707E+01
     20.499  0.3306E+00  0.3396E+00  0.4879E+01  0.4872E+01
     20.919  0.2632E+00  0.2631E+00  0.4997E+01  0.4992E+01
     21.339  0.3279E+00  0.3154E+00  0.5108E+01  0.5101E+01
     21.759  0.2653E+00  0.2679E+00  0.5224E+01  0.5218E+01
     22.178  0.2566E+00  0.2548E+00  0.5332E+01  0.5326E+01
     22.598  0.3827E+00  0.3804E+00  0.5470E+01  0.5462E+01
     23.018  0.4308E+00  0.4318E+00  0.5643E+01  0.5634E+01
     23.438  0.3142E+00  0.3231E+00  0.5801E+01  0.5795E+01
     23.857  0.2958E+00  0.2904E+00  0.5921E+01  0.5915E+01
     24.277  0.3039E+00  0.3050E+00  0.6052E+01  0.6046E+01
     24.697  0.2987E+00  0.2984E+00  0.6178E+01  0.6172E+01
     25.117  0.3707E+00  0.3668E+00  0.6315E+01  0.6308E+01
     25.536  0.4551E+00  0.4554E+00  0.6493E+01  0.6483E+01
     25.956  0.4187E+00  0.4214E+00  0.6678E+01  0.6669E+01
     26.376  0.4024E+00  0.4005E+00  0.6846E+01  0.6838E+01
     26.796  0.3318E+00  0.3339E+00  0.7004E+01  0.6997E+01
     27.216  0.3177E+00  0.3195E+00  0.7142E+01  0.7136E+01
     27.635  0.2892E+00  0.2913E+00  0.7272E+01  0.7266E+01
     28.055  0.2984E+00  0.2939E+00  0.7392E+01  0.7386E+01
     28.475  0.4501E+00  0.4314E+00  0.7542E+01  0.7533E+01
     28.895  0.3952E+00  0.4090E+00  0.7744E+01  0.7736E+01
     29.314  0.4989E+00  0.5060E+00  0.7928E+01  0.7918E+01
     29.734  0.4222E+00  0.4233E+00  0.8113E+01  0.8105E+01
     30.154  0.4039E+00  0.4058E+00  0.8288E+01  0.8280E+01
     30.574  0.3482E+00  0.3498E+00  0.8445E+01  0.8438E+01
     30.993  0.3529E+00  0.3512E+00  0.8589E+01  0.8582E+01
     31.413  0.3969E+00  0.3967E+00  0.8747E+01  0.8739E+01
     31.833  0.4193E+00  0.4158E+00  0.8916E+01  0.8907E+01
     32.253  0.5359E+00  0.5437E+00  0.9145E+01  0.9135E+01
     32.673  0.3983E+00  0.4006E+00  0.9325E+01  0.9318E+01
     33.092  0.3657E+00  0.3587E+00  0.9489E+01  0.9483E+01
     33.512  0.3070E+00  0.3106E+00  0.9627E+01  0.9621E+01
     33.932  0.2538E+00  0.2554E+00  0.9742E+01  0.9738E+01
     34.352  0.2898E+00  0.2922E+00  0.9855E+01  0.9850E+01
     34.771  0.1813E+00  0.1830E+00  0.9948E+01  0.9946E+01
     35.191  0.1667E+00  0.1669E+00  0.1002E+02  0.1002E+02
     35.611  0.1727E+00  0.1722E+00  0.1009E+02  0.1009E+02
     36.031  0.1946E+00  0.1937E+00  0.1017E+02  0.1017E+02
     36.450  0.2462E+00  0.2473E+00  0.1026E+02  0.1025E+02
     36.870  0.2464E+00  0.2458E+00  0.1036E+02  0.1036E+02
     37.290  0.2649E+00  0.2643E+00  0.1047E+02  0.1046E+02
     37.710  0.2913E+00  0.2906E+00  0.1058E+02  0.1058E+02
     38.130  0.4001E+00  0.4000E+00  0.1073E+02  0.1073E+02
     38.549  0.3930E+00  0.3940E+00  0.1089E+02  0.1088E+02
     38.969  0.3099E+00  0.3109E+00  0.1103E+02  0.1103E+02
     39.389  0.3818E+00  0.3784E+00  0.1117E+02  0.1116E+02
     39.809  0.5359E+00  0.5413E+00  0.1136E+02  0.1135E+02
     40.228  0.4745E+00  0.4917E+00  0.1158E+02  0.1157E+02
     40.648  0.4277E+00  0.4284E+00  0.1176E+02  0.1176E+02
     41.068  0.4621E+00  0.4568E+00  0.1194E+02  0.1194E+02
     41.488  0.6009E+00  0.6253E+00  0.1217E+02  0.1216E+02
     41.907  0.4770E+00  0.4739E+00  0.1239E+02  0.1238E+02
     42.327  0.4972E+00  0.5079E+00  0.1261E+02  0.1260E+02
     42.747  0.5012E+00  0.4828E+00  0.1278E+02  0.1277E+02
     43.167  0.4243E+00  0.4280E+00  0.1301E+02  0.1300E+02
     43.586  0.4431E+00  0.4369E+00  0.1317E+02  0.1317E+02
     44.006  0.5040E+00  0.5040E+00  0.1338E+02  0.1337E+02
     44.426  0.4300E+00  0.4324E+00  0.1357E+02  0.1357E+02
     44.846  0.3871E+00  0.3902E+00  0.1375E+02  0.1374E+02
     45.266  0.3895E+00  0.3876E+00  0.1390E+02  0.1390E+02
     45.685  0.5063E+00  0.5036E+00  0.1409E+02  0.1408E+02
     46.105  0.5732E+00  0.5728E+00  0.1432E+02  0.1431E+02
     46.525  0.5416E+00  0.5422E+00  0.1455E+02  0.1455E+02
     46.945  0.4348E+00  0.4360E+00  0.1476E+02  0.1476E+02
     47.364  0.4219E+00  0.4196E+00  0.1494E+02  0.1493E+02
     47.784  0.4552E+00  0.4568E+00  0.1513E+02  0.1513E+02
     48.204  0.4574E+00  0.4561E+00  0.1532E+02  0.1531E+02
     48.624  0.5460E+00  0.5430E+00  0.1552E+02  0.1552E+02
     49.043  0.4443E+00  0.4479E+00  0.1574E+02  0.1574E+02
     49.463  0.3943E+00  0.3883E+00  0.1591E+02  0.1591E+02
     49.883  0.5871E+00  0.5697E+00  0.1611E+02  0.1611E+02
     50.303  0.3141E+00  0.3127E+00  0.1627E+02  0.1626E+02
     50.723  0.3757E+00  0.3707E+00  0.1641E+02  0.1640E+02
     51.142  0.5238E+00  0.5116E+00  0.1659E+02  0.1658E+02
     51.562  0.6118E+00  0.6067E+00  0.1683E+02  0.1682E+02
     51.982  0.4000E+00  0.4354E+00  0.1707E+02  0.1706E+02
     52.402  0.3693E+00  0.3692E+00  0.1723E+02  0.1722E+02
     52.821  0.4766E+00  0.4817E+00  0.1741E+02  0.1740E+02
     53.241  0.6562E+00  0.6561E+00  0.1764E+02  0.1763E+02
     53.661  0.6868E+00  0.6784E+00  0.1792E+02  0.1791E+02
     54.081  0.9718E+00  0.9479E+00  0.1827E+02  0.1824E+02
     54.500  0.7153E+00  0.7093E+00  0.1862E+02  0.1860E+02
     54.920  0.7601E+00  0.7658E+00  0.1894E+02  0.1892E+02
     55.340  0.9639E+00  0.9434E+00  0.1930E+02  0.1926E+02
     55.760  0.8698E+00  0.8221E+00  0.1967E+02  0.1964E+02
     56.179  0.8776E+00  0.9021E+00  0.2002E+02  0.1999E+02
     56.599  0.1348E+01  0.1247E+01  0.2045E+02  0.2041E+02
     57.019  0.1268E+01  0.1308E+01  0.2109E+02  0.2105E+02
     57.439  0.9990E+00  0.9978E+00  0.2154E+02  0.2150E+02
     57.859  0.1268E+01  0.1178E+01  0.2201E+02  0.2197E+02
     58.278  0.8595E+00  0.9298E+00  0.2242E+02  0.2239E+02
     58.698  0.5866E+00  0.5870E+00  0.2272E+02  0.2270E+02
     59.118  0.6448E+00  0.6457E+00  0.2298E+02  0.2296E+02
     59.538  0.8360E+00  0.8346E+00  0.2331E+02  0.2329E+02
     59.957  0.8867E+00  0.9124E+00  0.2370E+02  0.2368E+02
     60.377  0.5939E+00  0.6085E+00  0.2403E+02  0.2402E+02
     60.797  0.5656E+00  0.5539E+00  0.2424E+02  0.2422E+02
     61.217  0.6492E+00  0.6487E+00  0.2449E+02  0.2447E+02
     61.636  0.7013E+00  0.7020E+00  0.2477E+02  0.2476E+02
     62.056  0.7079E+00  0.7098E+00  0.2507E+02  0.2505E+02
     62.476  0.4107E+00  0.4179E+00  0.2530E+02  0.2529E+02
     62.896  0.5509E+00  0.5386E+00  0.2550E+02  0.2548E+02
     63.316  0.6308E+00  0.6472E+00  0.2575E+02  0.2574E+02
     63.735  0.5466E+00  0.5529E+00  0.2600E+02  0.2599E+02
     64.155  0.4913E+00  0.4919E+00  0.2622E+02  0.2621E+02
     64.575  0.5082E+00  0.5076E+00  0.2643E+02  0.2642E+02
     64.995  0.6904E+00  0.6934E+00  0.2667E+02  0.2665E+02
     65.414  0.4840E+00  0.4913E+00  0.2689E+02  0.2688E+02
     65.834  0.4721E+00  0.4695E+00  0.2709E+02  0.2708E+02
     66.254  0.5371E+00  0.5385E+00  0.2730E+02  0.2729E+02
     66.674  0.5010E+00  0.5038E+00  0.2752E+02  0.2751E+02
     67.093  0.3913E+00  0.3934E+00  0.2770E+02  0.2770E+02
     67.513  0.3857E+00  0.3930E+00  0.2787E+02  0.2786E+02
     67.933  0.3941E+00  0.3935E+00  0.2803E+02  0.2802E+02
     68.353  0.4413E+00  0.4395E+00  0.2820E+02  0.2820E+02
     68.772  0.5814E+00  0.5838E+00  0.2842E+02  0.2841E+02
     69.192  0.5300E+00  0.5322E+00  0.2866E+02  0.2865E+02
     69.612  0.4957E+00  0.4978E+00  0.2886E+02  0.2886E+02
     70.032  0.4758E+00  0.4753E+00  0.2907E+02  0.2906E+02
     70.452  0.5167E+00  0.5182E+00  0.2927E+02  0.2926E+02
     70.871  0.5027E+00  0.5013E+00  0.2948E+02  0.2947E+02
     71.291  0.5223E+00  0.5214E+00  0.2970E+02  0.2969E+02
     71.711  0.5318E+00  0.5317E+00  0.2992E+02  0.2991E+02
     72.131  0.5180E+00  0.5196E+00  0.3014E+02  0.3013E+02
     72.550  0.4604E+00  0.4644E+00  0.3035E+02  0.3034E+02
     72.970  0.4103E+00  0.4124E+00  0.3053E+02  0.3052E+02
     73.390  0.3672E+00  0.3689E+00  0.3070E+02  0.3070E+02
     73.810  0.4236E+00  0.4259E+00  0.3088E+02  0.3087E+02
     74.229  0.3933E+00  0.3934E+00  0.3104E+02  0.3104E+02
     74.649  0.4092E+00  0.4046E+00  0.3121E+02  0.3120E+02
     75.069  0.5036E+00  0.5093E+00  0.3143E+02  0.3142E+02
     75.489  0.4649E+00  0.4647E+00  0.3162E+02  0.3161E+02
     75.909  0.4818E+00  0.4805E+00  0.3182E+02  0.3181E+02
     76.328  0.6944E+00  0.7030E+00  0.3207E+02  0.3206E+02
     76.748  0.5632E+00  0.5610E+00  0.3231E+02  0.3230E+02
     77.168  0.4412E+00  0.4464E+00  0.3253E+02  0.3252E+02
     77.588  0.4301E+00  0.4282E+00  0.3270E+02  0.3270E+02
     78.007  0.6525E+00  0.6443E+00  0.3292E+02  0.3291E+02
     78.427  0.6689E+00  0.6572E+00  0.3320E+02  0.3319E+02
     78.847  0.5469E+00  0.5493E+00  0.3344E+02  0.3343E+02
     79.267  0.4899E+00  0.5069E+00  0.3369E+02  0.3368E+02
     79.686  0.4607E+00  0.4586E+00  0.3387E+02  0.3387E+02
     80.106  0.4782E+00  0.4938E+00  0.3408E+02  0.3407E+02
     80.526  0.4976E+00  0.4983E+00  0.3427E+02  0.3426E+02
     80.946  0.5817E+00  0.5801E+00  0.3450E+02  0.3449E+02
     81.366  0.6399E+00  0.6388E+00  0.3475E+02  0.3474E+02
     81.785  0.6647E+00  0.6679E+00  0.3503E+02  0.3502E+02
     82.205  0.6102E+00  0.6155E+00  0.3531E+02  0.3530E+02
     82.625  0.5494E+00  0.5505E+00  0.3555E+02  0.3554E+02
     83.045  0.4952E+00  0.4952E+00  0.3577E+02  0.3576E+02
     83.464  0.6381E+00  0.6496E+00  0.3601E+02  0.3600E+02
     83.884  0.6569E+00  0.6548E+00  0.3627E+02  0.3626E+02
     84.304  0.5882E+00  0.5911E+00  0.3654E+02  0.3653E+02
     84.724  0.4915E+00  0.4929E+00  0.3676E+02  0.3676E+02
     85.143  0.3698E+00  0.3720E+00  0.3694E+02  0.3694E+02
     85.563  0.3975E+00  0.3951E+00  0.3710E+02  0.3709E+02
     85.983  0.4734E+00  0.4708E+00  0.3728E+02  0.3728E+02
     86.403  0.4678E+00  0.4676E+00  0.3748E+02  0.3747E+02
     86.822  0.4731E+00  0.4735E+00  0.3768E+02  0.3767E+02
     87.242  0.5855E+00  0.5820E+00  0.3789E+02  0.3788E+02
     87.662  0.5627E+00  0.5652E+00  0.3814E+02  0.3813E+02
     88.082  0.5872E+00  0.5889E+00  0.3838E+02  0.3837E+02
     88.502  0.7527E+00  0.7425E+00  0.3865E+02  0.3864E+02
     88.921  0.7510E+00  0.7202E+00  0.3899E+02  0.3898E+02
     89.341  0.5186E+00  0.5173E+00  0.3923E+02  0.3922E+02
     89.761  0.5920E+00  0.5880E+00  0.3946E+02  0.3945E+02
     90.181  0.6803E+00  0.6682E+00  0.3973E+02  0.3972E+02
     90.600  0.4882E+00  0.4907E+00  0.3997E+02  0.3996E+02
     91.020  0.5017E+00  0.5056E+00  0.4017E+02  0.4017E+02
     91.440  0.4565E+00  0.4551E+00  0.4037E+02  0.4036E+02
     91.860  0.5047E+00  0.5047E+00  0.4057E+02  0.4056E+02
     92.279  0.5298E+00  0.5220E+00  0.4078E+02  0.4077E+02
     92.699  0.6232E+00  0.6224E+00  0.4103E+02  0.4102E+02
     93.119  0.5224E+00  0.5301E+00  0.4128E+02  0.4127E+02
     93.539  0.4006E+00  0.4017E+00  0.4146E+02  0.4145E+02
     93.959  0.4300E+00  0.4267E+00  0.4163E+02  0.4162E+02
     94.378  0.6653E+00  0.6524E+00  0.4185E+02  0.4184E+02
     94.798  0.6659E+00  0.6672E+00  0.4214E+02  0.4213E+02
     95.218  0.6618E+00  0.6644E+00  0.4240E+02  0.4239E+02
     95.638  0.6207E+00  0.6190E+00  0.4266E+02  0.4265E+02
     96.057  0.7324E+00  0.7371E+00  0.4294E+02  0.4293E+02
     96.477  0.7209E+00  0.7166E+00  0.4325E+02  0.4324E+02
     96.897  0.6076E+00  0.6092E+00  0.4352E+02  0.4351E+02
     97.317  0.6375E+00  0.6338E+00  0.4377E+02  0.4376E+02
     97.736  0.5832E+00  0.5882E+00  0.4403E+02  0.4402E+02
     98.156  0.4299E+00  0.4306E+00  0.4424E+02  0.4423E+02
     98.576  0.4226E+00  0.4240E+00  0.4442E+02  0.4441E+02
     98.996  0.4585E+00  0.4522E+00  0.4460E+02  0.4459E+02
     99.415  0.5294E+00  0.5292E+00  0.4481E+02  0.4480E+02
     99.835  0.6302E+00  0.6242E+00  0.4505E+02  0.4504E+02
    100.255  0.6486E+00  0.6494E+00  0.4533E+02  0.4532E+02
    100.675  0.6561E+00  0.6576E+00  0.4560E+02  0.4559E+02
    101.095  0.5715E+00  0.5858E+00  0.4587E+02  0.4586E+02
    101.514  0.5083E+00  0.5092E+00  0.4609E+02  0.4608E+02
    101.934  0.5008E+00  0.5005E+00  0.4631E+02  0.4630E+02
    102.354  0.4732E+00  0.4743E+00  0.4651E+02  0.4650E+02
    102.774  0.5387E+00  0.5382E+00  0.4673E+02  0.4672E+02
    103.193  0.5015E+00  0.4995E+00  0.4694E+02  0.4693E+02
    103.613  0.4539E+00  0.4601E+00  0.4715E+02  0.4714E+02
    104.033  0.3761E+00  0.3764E+00  0.4732E+02  0.4731E+02
    104.453  0.4428E+00  0.4408E+00  0.4749E+02  0.4748E+02
    104.872  0.3896E+00  0.3807E+00  0.4766E+02  0.4765E+02
    105.292  0.2870E+00  0.3008E+00  0.4780E+02  0.4780E+02
    105.712  0.1914E+00  0.1958E+00  0.4790E+02  0.4790E+02
    106.132  0.5005E-01  0.5386E-01  0.4795E+02  0.4795E+02
    106.552  0.3453E-01  0.3505E-01  0.4797E+02  0.4797E+02
    106.971  0.1395E-01  0.1406E-01  0.4798E+02  0.4798E+02
    107.391  0.1098E-01  0.1107E-01  0.4798E+02  0.4798E+02
    107.811  0.8516E-02  0.8584E-02  0.4799E+02  0.4799E+02
    108.231  0.6561E-02  0.6613E-02  0.4799E+02  0.4799E+02
    108.650  0.5115E-02  0.5152E-02  0.4799E+02  0.4799E+02
    109.070  0.4116E-02  0.4145E-02  0.4800E+02  0.4800E+02
    109.490  0.3222E-02  0.3251E-02  0.4800E+02  0.4800E+02
    109.910  0.2384E-02  0.2413E-02  0.4800E+02  0.4800E+02
    110.329  0.1600E-02  0.1630E-02  0.4800E+02  0.4800E+02
    110.749  0.8719E-03  0.9025E-03  0.4800E+02  0.4800E+02
    111.169  0.1987E-03  0.2306E-03  0.4800E+02  0.4800E+02
    111.589  0.0000E+00  0.0000E+00  0.4800E+02  0.4800E+02
    112.008  0.0000E+00  0.0000E+00  0.4800E+02  0.4800E+02
    112.428  0.0000E+00  0.0000E+00  0.4800E+02  0.4800E+02
    112.848  0.0000E+00  0.0000E+00  0.4800E+02  0.4800E+02
    113.268  0.0000E+00  0.0000E+00  0.4800E+02  0.4800E+02
    113.688  0.0000E+00  0.0000E+00  0.4800E+02  0.4800E+02
    114.107  0.0000E+00  0.0000E+00  0.4800E+02  0.4800E+02
    114.527  0.0000E+00  0.0000E+00  0.4800E+02  0.4800E+02
    114.947  0.0000E+00  0.0000E+00  0.4800E+02  0.4800E+02
    115.367  0.0000E+00  0.0000E+00  0.4800E+02  0.4800E+02
    115.786  0.0000E+00  0.0000E+00  0.4800E+02  0.4800E+02
    116.206  0.0000E+00  0.0000E+00  0.4800E+02  0.4800E+02
    116.626  0.0000E+00  0.0000E+00  0.4800E+02  0.4800E+02
    117.046  0.0000E+00  0.0000E+00  0.4800E+02  0.4800E+02
    117.04569714     -8.88440373  301      8.00352187      1.00000000
     -8.884  0.0000E+00  0.0000E+00  0.0000E+00  0.0000E+00  0.0000E+00  0.0000E+00  0.0000E+00  0.0000E+00  0.0000E+00  0.0000E+00  0.0000E+00  0.0000E+00  0.0000E+00  0.0000E+00  0.0000E+00  0.0000E+00  0.0000E+00  0.0000E+00
     -8.465  0.0000E+00  0.0000E+00  0.0000E+00  0.0000E+00  0.0000E+00  0.0000E+00  0.0000E+00  0.0000E+00  0.0000E+00  0.0000E+00  0.0000E+00  0.0000E+00  0.0000E+00  0.0000E+00  0.0000E+00  0.0000E+00  0.0000E+00  0.0000E+00
     -8.045  0.0000E+00  0.0000E+00  0.0000E+00  0.0000E+00  0.0000E+00  0.0000E+00  0.0000E+00  0.0000E+00  0.0000E+00  0.0000E+00  0.0000E+00  0.0000E+00  0.0000E+00  0.0000E+00  0.0000E+00  0.0000E+00  0.0000E+00  0.0000E+00
     -7.625  0.0000E+00  0.0000E+00  0.0000E+00  0.0000E+00  0.0000E+00  0.0000E+00  0.0000E+00  0.0000E+00  0.0000E+00  0.0000E+00  0.0000E+00  0.0000E+00  0.0000E+00  0.0000E+00  0.0000E+00  0.0000E+00  0.0000E+00  0.0000E+00
     -7.205  0.0000E+00  0.0000E+00  0.0000E+00  0.0000E+00  0.0000E+00  0.0000E+00  0.0000E+00  0.0000E+00  0.0000E+00  0.0000E+00  0.0000E+00  0.0000E+00  0.0000E+00  0.0000E+00  0.0000E+00  0.0000E+00  0.0000E+00  0.0000E+00
     -6.786  0.0000E+00  0.0000E+00  0.0000E+00  0.0000E+00  0.0000E+00  0.0000E+00  0.0000E+00  0.0000E+00  0.0000E+00  0.0000E+00  0.0000E+00  0.0000E+00  0.0000E+00  0.0000E+00  0.0000E+00  0.0000E+00  0.0000E+00  0.0000E+00
     -6.366  0.0000E+00  0.0000E+00  0.0000E+00  0.0000E+00  0.0000E+00  0.0000E+00  0.0000E+00  0.0000E+00  0.0000E+00  0.0000E+00  0.0000E+00  0.0000E+00  0.0000E+00  0.0000E+00  0.0000E+00  0.0000E+00  0.0000E+00  0.0000E+00
     -5.946  0.0000E+00  0.0000E+00  0.0000E+00  0.0000E+00  0.0000E+00  0.0000E+00  0.0000E+00  0.0000E+00  0.0000E+00  0.0000E+00  0.0000E+00  0.0000E+00  0.0000E+00  0.0000E+00  0.0000E+00  0.0000E+00  0.0000E+00  0.0000E+00
     -5.526  0.0000E+00  0.0000E+00  0.0000E+00  0.0000E+00  0.0000E+00  0.0000E+00  0.0000E+00  0.0000E+00  0.0000E+00  0.0000E+00  0.0000E+00  0.0000E+00  0.0000E+00  0.0000E+00  0.0000E+00  0.0000E+00  0.0000E+00  0.0000E+00
     -5.107  0.0000E+00  0.0000E+00  0.0000E+00  0.0000E+00  0.0000E+00  0.0000E+00  0.0000E+00  0.0000E+00  0.0000E+00  0.0000E+00  0.0000E+00  0.0000E+00  0.0000E+00  0.0000E+00  0.0000E+00  0.0000E+00  0.0000E+00  0.0000E+00
     -4.687  0.0000E+00  0.0000E+00  0.0000E+00  0.0000E+00  0.0000E+00  0.0000E+00  0.0000E+00  0.0000E+00  0.0000E+00  0.0000E+00  0.0000E+00  0.0000E+00  0.0000E+00  0.0000E+00  0.0000E+00  0.0000E+00  0.0000E+00  0.0000E+00
     -4.267  0.0000E+00  0.0000E+00  0.0000E+00  0.0000E+00  0.0000E+00  0.0000E+00  0.0000E+00  0.0000E+00  0.0000E+00  0.0000E+00  0.0000E+00  0.0000E+00  0.0000E+00  0.0000E+00  0.0000E+00  0.0000E+00  0.0000E+00  0.0000E+00
     -3.847  0.0000E+00  0.0000E+00  0.0000E+00  0.0000E+00  0.0000E+00  0.0000E+00  0.0000E+00  0.0000E+00  0.0000E+00  0.0000E+00  0.0000E+00  0.0000E+00  0.0000E+00  0.0000E+00  0.0000E+00  0.0000E+00  0.0000E+00  0.0000E+00
     -3.427  0.0000E+00  0.0000E+00  0.0000E+00  0.0000E+00  0.0000E+00  0.0000E+00  0.0000E+00  0.0000E+00  0.0000E+00  0.0000E+00  0.0000E+00  0.0000E+00  0.0000E+00  0.0000E+00  0.0000E+00  0.0000E+00  0.0000E+00  0.0000E+00
     -3.008  0.3734E-02  0.2905E-02  0.1769E-04  0.1378E-04  0.1769E-04  0.1378E-04  0.1769E-04  0.1378E-04  0.0000E+00  0.0000E+00  0.0000E+00  0.0000E+00  0.0000E+00  0.0000E+00  0.0000E+00  0.0000E+00  0.0000E+00  0.0000E+00
     -2.588  0.1071E-01  0.1042E-01  0.1630E-03  0.1559E-03  0.1630E-03  0.1559E-03  0.1630E-03  0.1559E-03  0.0000E+00  0.0000E+00  0.0000E+00  0.0000E+00  0.0000E+00  0.0000E+00  0.0000E+00  0.0000E+00  0.0000E+00  0.0000E+00
     -2.168  0.1362E-01  0.1347E-01  0.3866E-03  0.3768E-03  0.3866E-03  0.3768E-03  0.3866E-03  0.3768E-03  0.0000E+00  0.0000E+00  0.0000E+00  0.0000E+00  0.0000E+00  0.0000E+00  0.0000E+00  0.0000E+00  0.0000E+00  0.0000E+00
     -1.748  0.1688E-01  0.1671E-01  0.6293E-03  0.6181E-03  0.6293E-03  0.6181E-03  0.6293E-03  0.6181E-03  0.0000E+00  0.0000E+00  0.0000E+00  0.0000E+00  0.0000E+00  0.0000E+00  0.0000E+00  0.0000E+00  0.0000E+00  0.0000E+00
     -1.329  0.1792E-01  0.1784E-01  0.9551E-03  0.9408E-03  0.9551E-03  0.9408E-03  0.9551E-03  0.9408E-03  0.0000E+00  0.0000E+00  0.0000E+00  0.0000E+00  0.0000E+00  0.0000E+00  0.0000E+00  0.0000E+00  0.0000E+00  0.0000E+00
     -0.909  0.1968E-01  0.1957E-01  0.1275E-02  0.1261E-02  0.1275E-02  0.1261E-02  0.1275E-02  0.1261E-02  0.0000E+00  0.0000E+00  0.0000E+00  0.0000E+00  0.0000E+00  0.0000E+00  0.0000E+00  0.0000E+00  0.0000E+00  0.0000E+00
     -0.489  0.2064E-01  0.2058E-01  0.1654E-02  0.1636E-02  0.1654E-02  0.1636E-02  0.1654E-02  0.1636E-02  0.0000E+00  0.0000E+00  0.0000E+00  0.0000E+00  0.0000E+00  0.0000E+00  0.0000E+00  0.0000E+00  0.0000E+00  0.0000E+00
     -0.069  0.2136E-01  0.2129E-01  0.2053E-02  0.2035E-02  0.2053E-02  0.2035E-02  0.2053E-02  0.2035E-02  0.0000E+00  0.0000E+00  0.0000E+00  0.0000E+00  0.0000E+00  0.0000E+00  0.0000E+00  0.0000E+00  0.0000E+00  0.0000E+00
      0.350  0.2225E-01  0.2217E-01  0.2457E-02  0.2439E-02  0.2457E-02  0.2439E-02  0.2457E-02  0.2439E-02  0.0000E+00  0.0000E+00  0.0000E+00  0.0000E+00  0.0000E+00  0.0000E+00  0.0000E+00  0.0000E+00  0.0000E+00  0.0000E+00
      0.770  0.2275E-01  0.2271E-01  0.2902E-02  0.2880E-02  0.2902E-02  0.2880E-02  0.2902E-02  0.2880E-02  0.0000E+00  0.0000E+00  0.0000E+00  0.0000E+00  0.0000E+00  0.0000E+00  0.0000E+00  0.0000E+00  0.0000E+00  0.0000E+00
      1.190  0.2269E-01  0.2264E-01  0.3396E-02  0.3375E-02  0.3396E-02  0.3375E-02  0.3396E-02  0.3375E-02  0.0000E+00  0.0000E+00  0.0000E+00  0.0000E+00  0.0000E+00  0.0000E+00  0.0000E+00  0.0000E+00  0.0000E+00  0.0000E+00
      1.610  0.2282E-01  0.2277E-01  0.3896E-02  0.3874E-02  0.3896E-02  0.3874E-02  0.3896E-02  0.3874E-02  0.0000E+00  0.0000E+00  0.0000E+00  0.0000E+00  0.0000E+00  0.0000E+00  0.0000E+00  0.0000E+00  0.0000E+00  0.0000E+00
      2.030  0.2297E-01  0.2291E-01  0.4443E-02  0.4417E-02  0.4443E-02  0.4417E-02  0.4443E-02  0.4417E-02  0.0000E+00  0.0000E+00  0.0000E+00  0.0000E+00  0.0000E+00  0.0000E+00  0.0000E+00  0.0000E+00  0.0000E+00  0.0000E+00
      2.449  0.2329E-01  0.2320E-01  0.5266E-02  0.5220E-02  0.5266E-02  0.5220E-02  0.5266E-02  0.5220E-02  0.0000E+00  0.0000E+00  0.0000E+00  0.0000E+00  0.0000E+00  0.0000E+00  0.0000E+00  0.0000E+00  0.0000E+00  0.0000E+00
      2.869  0.2344E-01  0.2339E-01  0.6223E-02  0.6188E-02  0.6223E-02  0.6188E-02  0.6223E-02  0.6188E-02  0.0000E+00  0.0000E+00  0.0000E+00  0.0000E+00  0.0000E+00  0.0000E+00  0.0000E+00  0.0000E+00  0.0000E+00  0.0000E+00
      3.289  0.2258E-01  0.2270E-01  0.6967E-02  0.6992E-02  0.6967E-02  0.6992E-02  0.6967E-02  0.6992E-02  0.0000E+00  0.0000E+00  0.0000E+00  0.0000E+00  0.0000E+00  0.0000E+00  0.0000E+00  0.0000E+00  0.0000E+00  0.0000E+00
      3.709  0.1808E-01  0.1814E-01  0.6374E-02  0.6376E-02  0.6374E-02  0.6376E-02  0.6374E-02  0.6376E-02  0.0000E+00  0.0000E+00  0.0000E+00  0.0000E+00  0.0000E+00  0.0000E+00  0.0000E+00  0.0000E+00  0.0000E+00  0.0000E+00
      4.128  0.1757E-01  0.1755E-01  0.7279E-02  0.7278E-02  0.7279E-02  0.7278E-02  0.7279E-02  0.7278E-02  0.0000E+00  0.0000E+00  0.0000E+00  0.0000E+00  0.0000E+00  0.0000E+00  0.0000E+00  0.0000E+00  0.0000E+00  0.0000E+00
      4.548  0.1973E-01  0.1990E-01  0.9157E-02  0.9214E-02  0.9157E-02  0.9214E-02  0.9157E-02  0.9214E-02  0.0000E+00  0.0000E+00  0.0000E+00  0.0000E+00  0.0000E+00  0.0000E+00  0.0000E+00  0.0000E+00  0.0000E+00  0.0000E+00
      4.968  0.1941E-01  0.1926E-01  0.9279E-02  0.9269E-02  0.9279E-02  0.9269E-02  0.9279E-02  0.9269E-02  0.0000E+00  0.0000E+00  0.0000E+00  0.0000E+00  0.0000E+00  0.0000E+00  0.0000E+00  0.0000E+00  0.0000E+00  0.0000E+00
      5.388  0.1874E-01  0.1876E-01  0.8905E-02  0.8902E-02  0.8905E-02  0.8902E-02  0.8905E-02  0.8902E-02  0.0000E+00  0.0000E+00  0.0000E+00  0.0000E+00  0.0000E+00  0.0000E+00  0.0000E+00  0.0000E+00  0.0000E+00  0.0000E+00
      5.807  0.1570E-01  0.1575E-01  0.7243E-02  0.7335E-02  0.7243E-02  0.7335E-02  0.7243E-02  0.7335E-02  0.0000E+00  0.0000E+00  0.0000E+00  0.0000E+00  0.0000E+00  0.0000E+00  0.0000E+00  0.0000E+00  0.0000E+00  0.0000E+00
      6.227  0.1569E-01  0.1561E-01  0.6805E-02  0.6764E-02  0.6805E-02  0.6764E-02  0.6805E-02  0.6764E-02  0.0000E+00  0.0000E+00  0.0000E+00  0.0000E+00  0.0000E+00  0.0000E+00  0.0000E+00  0.0000E+00  0.0000E+00  0.0000E+00
      6.647  0.1953E-01  0.1935E-01  0.1088E-01  0.1078E-01  0.1088E-01  0.1078E-01  0.1088E-01  0.1078E-01  0.0000E+00  0.0000E+00  0.0000E+00  0.0000E+00  0.0000E+00  0.0000E+00  0.0000E+00  0.0000E+00  0.0000E+00  0.0000E+00
      7.067  0.1808E-01  0.1788E-01  0.1063E-01  0.1068E-01  0.1063E-01  0.1068E-01  0.1063E-01  0.1068E-01  0.0000E+00  0.0000E+00  0.0000E+00  0.0000E+00  0.0000E+00  0.0000E+00  0.0000E+00  0.0000E+00  0.0000E+00  0.0000E+00
      7.487  0.1737E-01  0.1745E-01  0.9279E-02  0.9266E-02  0.9279E-02  0.9266E-02  0.9279E-02  0.9266E-02  0.0000E+00  0.0000E+00  0.0000E+00  0.0000E+00  0.0000E+00  0.0000E+00  0.0000E+00  0.0000E+00  0.0000E+00  0.0000E+00
      7.906  0.1386E-01  0.1390E-01  0.8596E-02  0.8639E-02  0.8596E-02  0.8639E-02  0.8596E-02  0.8639E-02  0.0000E+00  0.0000E+00  0.0000E+00  0.0000E+00  0.0000E+00  0.0000E+00  0.0000E+00  0.0000E+00  0.0000E+00  0.0000E+00
      8.326  0.2028E-01  0.1993E-01  0.9268E-02  0.9155E-02  0.9268E-02  0.9155E-02  0.9268E-02  0.9155E-02  0.0000E+00  0.0000E+00  0.0000E+00  0.0000E+00  0.0000E+00  0.0000E+00  0.0000E+00  0.0000E+00  0.0000E+00  0.0000E+00
      8.746  0.2581E-01  0.2570E-01  0.1151E-01  0.1142E-01  0.1151E-01  0.1142E-01  0.1151E-01  0.1142E-01  0.0000E+00  0.0000E+00  0.0000E+00  0.0000E+00  0.0000E+00  0.0000E+00  0.0000E+00  0.0000E+00  0.0000E+00  0.0000E+00
      9.166  0.1904E-01  0.1906E-01  0.9776E-02  0.9756E-02  0.9776E-02  0.9756E-02  0.9776E-02  0.9756E-02  0.0000E+00  0.0000E+00  0.0000E+00  0.0000E+00  0.0000E+00  0.0000E+00  0.0000E+00  0.0000E+00  0.0000E+00  0.0000E+00
      9.585  0.1909E-01  0.1901E-01  0.1025E-01  0.1019E-01  0.1025E-01  0.1019E-01  0.1025E-01  0.1019E-01  0.0000E+00  0.0000E+00  0.0000E+00  0.0000E+00  0.0000E+00  0.0000E+00  0.0000E+00  0.0000E+00  0.0000E+00  0.0000E+00
     10.005  0.1761E-01  0.1761E-01  0.9752E-02  0.9727E-02  0.9752E-02  0.9727E-02  0.9752E-02  0.9727E-02  0.0000E+00  0.0000E+00  0.0000E+00  0.0000E+00  0.0000E+00  0.0000E+00  0.0000E+00  0.0000E+00  0.0000E+00  0.0000E+00
     10.425  0.2554E-01  0.2553E-01  0.1123E-01  0.1117E-01  0.1123E-01  0.1117E-01  0.1123E-01  0.1117E-01  0.0000E+00  0.0000E+00  0.0000E+00  0.0000E+00  0.0000E+00  0.0000E+00  0.0000E+00  0.0000E+00  0.0000E+00  0.0000E+00
     10.845  0.2321E-01  0.2315E-01  0.1219E-01  0.1210E-01  0.1219E-01  0.1210E-01  0.1219E-01  0.1210E-01  0.0000E+00  0.0000E+00  0.0000E+00  0.0000E+00  0.0000E+00  0.0000E+00  0.0000E+00  0.0000E+00  0.0000E+00  0.0000E+00
     11.264  0.2278E-01  0.2285E-01  0.1201E-01  0.1199E-01  0.1201E-01  0.1199E-01  0.1201E-01  0.1199E-01  0.0000E+00  0.0000E+00  0.0000E+00  0.0000E+00  0.0000E+00  0.0000E+00  0.0000E+00  0.0000E+00  0.0000E+00  0.0000E+00
     11.684  0.2216E-01  0.2215E-01  0.1204E-01  0.1199E-01  0.1204E-01  0.1199E-01  0.1204E-01  0.1199E-01  0.0000E+00  0.0000E+00  0.0000E+00  0.0000E+00  0.0000E+00  0.0000E+00  0.0000E+00  0.0000E+00  0.0000E+00  0.0000E+00
     12.104  0.2231E-01  0.2231E-01  0.1318E-01  0.1301E-01  0.1318E-01  0.1301E-01  0.1318E-01  0.1301E-01  0.0000E+00  0.0000E+00  0.0000E+00  0.0000E+00  0.0000E+00  0.0000E+00  0.0000E+00  0.0000E+00  0.0000E+00  0.0000E+00