    1    1    1    2
  0.1658294E+02  0.2862368E-09  0.2862368E-09  0.2862368E-09  0.5000000E-15
   1.0000000000000000E-004
  CAR 
 unknown system                          
      3     56     48

  0.1262379E-14  0.1262379E-14  0.1262379E-14  0.7513148E-03
    1       -3.160308     -3.142383   1.000000   1.000000
    2       20.535931     20.552871   0.000000   0.000000
    3       20.535933     20.552871   0.000000   0.000000
    4       20.535933     20.552872   0.000000   0.000000
    5       21.980553     22.010924   0.000000   0.000000
    6       21.980553     22.010924   0.000000   0.000000
    7       21.980556     22.010931   0.000000   0.000000
    8       24.380108     24.373542   0.000000   0.000000
    9       27.311109     27.336526   0.000000   0.000000
   10       27.311109     27.336526   0.000000   0.000000
   11       30.151771     30.163765   0.000000   0.000000
   12       32.505284     32.519496   0.000000   0.000000
   13       32.505286     32.519496   0.000000   0.000000
   14       32.505286     32.519500   0.000000   0.000000
   15       41.073799     41.071967   0.000000   0.000000
   16       56.329241     56.400708   0.000000   0.000000
   17       56.875647     56.919189   0.000000   0.000000
   18       56.875654     56.919189   0.000000   0.000000
   19       56.875654     56.919204   0.000000   0.000000
   20       59.251641     59.257096   0.000000   0.000000
   21       59.251648     59.257097   0.000000   0.000000
   22       59.251648     59.257098   0.000000   0.000000
   23       62.862020     62.874487   0.000000   0.000000
   24       62.862020     62.874487   0.000000   0.000000
   25       65.078632     65.107319   0.000000   0.000000
   26       65.078632     65.107335   0.000000   0.000000
   27       65.078632     65.107335   0.000000   0.000000
   28       73.311938     73.321222   0.000000   0.000000
   29       73.311955     73.321222   0.000000   0.000000
   30       73.311955     73.321242   0.000000   0.000000
   31       80.838296     80.844535   0.000000   0.000000
   32       83.139733     83.161272   0.000000   0.000000
   33       83.139733     83.161272   0.000000   0.000000
   34       87.251760     87.258098   0.000000   0.000000
   35       87.251762     87.258099   0.000000   0.000000
   36       87.251762     87.258101   0.000000   0.000000
   37       90.124236     90.141805   0.000000   0.000000
   38       90.124254     90.141805   0.000000   0.000000
   39       90.124254     90.141824   0.000000   0.000000
   40       90.936495     90.941850   0.000000   0.000000
   41       93.473108     93.490422   0.000000   0.000000
   42       93.473108     93.490440   0.000000   0.000000
   43       93.473110     93.490440   0.000000   0.000000
   44       93.931126     93.964917   0.000000   0.000000
   45       93.931126     93.964928   0.000000   0.000000
   46       93.931135     93.964928   0.000000   0.000000
   47       96.375362     96.385808   0.000000   0.000000
   48       96.375367     96.385840   0.000000   0.000000

  0.9090909E-01  0.1262062E-14  0.1262062E-14  0.6010518E-02
    1       -2.936483     -2.918553   1.000000   1.000000
    2       17.611777     17.630106   0.000000   0.000000
    3       19.886344     19.906959   0.000000   0.000000
    4       19.886345     19.906962   0.000000   0.000000
    5       22.661601     22.679968   0.000000   0.000000
    6       22.969423     22.996354   0.000000   0.000000
    7       22.969424     22.996359   0.000000   0.000000
    8       26.195751     26.219174   0.000000   0.000000
    9       26.195751     26.219174   0.000000   0.000000
   10       26.471383     26.474174   0.000000   0.000000
   11       29.400428     29.413600   0.000000   0.000000
   12       33.598067     33.611097   0.000000   0.000000
   13       34.076674     34.092595   0.000000   0.000000
   14       34.076675     34.092598   0.000000   0.000000
   15       41.949739     41.949203   0.000000   0.000000
   16       55.642662     55.693844   0.000000   0.000000
   17       56.021307     56.046869   0.000000   0.000000
   18       56.021313     56.046875   0.000000   0.000000
   19       56.888299     56.940780   0.000000   0.000000
   20       57.583659     57.614451   0.000000   0.000000
   21       57.583665     57.614461   0.000000   0.000000
   22       59.455879     59.473445   0.000000   0.000000
   23       61.608619     61.620840   0.000000   0.000000
   24       61.608622     61.620844   0.000000   0.000000
   25       65.277927     65.306700   0.000000   0.000000
   26       68.970427     68.992333   0.000000   0.000000
   27       68.970431     68.992343   0.000000   0.000000
   28       71.596034     71.603510   0.000000   0.000000
   29       73.063458     73.072255   0.000000   0.000000
   30       73.063473     73.072269   0.000000   0.000000
   31       81.874957     81.895792   0.000000   0.000000
   32       81.874960     81.895796   0.000000   0.000000
   33       82.333803     82.340516   0.000000   0.000000
   34       84.141452     84.151684   0.000000   0.000000
   35       85.833942     85.842984   0.000000   0.000000
   36       85.833946     85.842990   0.000000   0.000000
   37       88.004168     88.025919   0.000000   0.000000
   38       88.004174     88.025930   0.000000   0.000000
   39       89.001988     89.026937   0.000000   0.000000
   40       90.128284     90.139970   0.000000   0.000000
   41       91.325346     91.339084   0.000000   0.000000
   42       91.325348     91.339092   0.000000   0.000000
   43       92.932754     92.941946   0.000000   0.000000
   44       94.810013     94.818016   0.000000   0.000000
   45       95.668039     95.680611   0.000000   0.000000
   46       95.668049     95.680625   0.000000   0.000000
   47       97.117847     97.141312   0.000000   0.000000
   48       97.117859     97.141325   0.000000   0.000000

  0.1818182E+00  0.1266963E-14  0.1266963E-14  0.6010518E-02
    1       -2.267098     -2.249157   1.000000   1.000000
    2       13.966163     13.984123   0.000000   0.000000
    3       19.151597     19.173748   0.000000   0.000000
    4       19.151597     19.173750   0.000000   0.000000
    5       22.431037     22.444708   0.000000   0.000000
    6       23.793161     23.818571   0.000000   0.000000
    7       23.793162     23.818574   0.000000   0.000000
    8       25.308912     25.331085   0.000000   0.000000
    9       25.308913     25.331088   0.000000   0.000000
   10       27.885464     27.898454   0.000000   0.000000
   11       29.979290     29.984825   0.000000   0.000000
   12       36.426301     36.439714   0.000000   0.000000
   13       37.231655     37.248653   0.000000   0.000000
   14       37.231656     37.248656   0.000000   0.000000
   15       44.158079     44.159923   0.000000   0.000000
   16       51.752951     51.769972   0.000000   0.000000
   17       51.752954     51.769975   0.000000   0.000000
   18       54.175910     54.207998   0.000000   0.000000
   19       56.864041     56.920762   0.000000   0.000000
   20       57.090680     57.134328   0.000000   0.000000
   21       57.090685     57.134341   0.000000   0.000000
   22       59.399704     59.433318   0.000000   0.000000
   23       61.750444     61.760175   0.000000   0.000000
   24       61.750447     61.760179   0.000000   0.000000
   25       65.868316     65.897303   0.000000   0.000000
   26       68.939300     68.943972   0.000000   0.000000
   27       71.125367     71.140239   0.000000   0.000000
   28       71.125375     71.140250   0.000000   0.000000
   29       74.000255     74.016356   0.000000   0.000000
   30       74.000267     74.016365   0.000000   0.000000
   31       78.865061     78.878149   0.000000   0.000000
   32       79.005722     79.022608   0.000000   0.000000
   33       79.005731     79.022617   0.000000   0.000000
   34       82.828199     82.838915   0.000000   0.000000
   35       82.828200     82.838922   0.000000   0.000000
   36       84.817974     84.842856   0.000000   0.000000
   37       85.665586     85.673862   0.000000   0.000000
   38       86.625677     86.644169   0.000000   0.000000
   39       86.625683     86.644180   0.000000   0.000000
   40       87.552476     87.559711   0.000000   0.000000
   41       89.474094     89.486243   0.000000   0.000000
   42       90.029460     90.048107   0.000000   0.000000
   43       90.029463     90.048114   0.000000   0.000000
   44       93.959465     93.965022   0.000000   0.000000
   45       97.309016     97.323884   0.000000   0.000000
   46       97.309025     97.323895   0.000000   0.000000
   47       99.526295     99.538515   0.000000   0.000000
   48       99.526312     99.538533   0.000000   0.000000

  0.2727273E+00  0.1237835E-14  0.1237835E-14  0.6010518E-02
    1       -1.158364     -1.140413   1.000000   1.000000
    2       10.541077     10.558988  -0.016726  -0.015744
    3       18.742343     18.765120   0.000000   0.000000
    4       18.742344     18.765122   0.000000   0.000000
    5       22.219976     22.231901   0.000000   0.000000
    6       22.249117     22.272556   0.000000   0.000000
    7       22.249118     22.272558   0.000000   0.000000
    8       26.241097     26.253306   0.000000   0.000000
    9       27.355802     27.378808   0.000000   0.000000
   10       27.355802     27.378812   0.000000   0.000000
   11       33.314050     33.320154   0.000000   0.000000
   12       40.516128     40.529602   0.000000   0.000000
   13       40.851682     40.868967   0.000000   0.000000
   14       40.851682     40.868968   0.000000   0.000000
   15       47.060491     47.064874   0.000000   0.000000
   16       47.388569     47.406029   0.000000   0.000000
   17       47.388571     47.406032   0.000000   0.000000
   18       52.062453     52.083308   0.000000   0.000000
   19       57.072172     57.129626   0.000000   0.000000
   20       57.230530     57.274987   0.000000   0.000000
   21       57.230530     57.275000   0.000000   0.000000
   22       58.800153     58.841162   0.000000   0.000000
   23       62.204978     62.213663   0.000000   0.000000
   24       62.204985     62.213666   0.000000   0.000000
   25       66.438904     66.445958   0.000000   0.000000
   26       66.807779     66.837199   0.000000   0.000000
   27       67.862690     67.880680   0.000000   0.000000
   28       67.862697     67.880686   0.000000   0.000000
   29       74.465115     74.479559   0.000000   0.000000
   30       74.465114     74.479575   0.000000   0.000000
   31       75.752766     75.771137   0.000000   0.000000
   32       78.384324     78.388757   0.000000   0.000000
   33       79.163727     79.175529   0.000000   0.000000
   34       79.163729     79.175535   0.000000   0.000000
   35       80.012774     80.024514   0.000000   0.000000
   36       80.012800     80.024526   0.000000   0.000000
   37       81.179194     81.203664   0.000000   0.000000
   38       88.194436     88.211413   0.000000   0.000000
   39       88.194440     88.211426   0.000000   0.000000
   40       88.774084     88.784812   0.000000   0.000000
   41       89.508596     89.530161   0.000000   0.000000
   42       89.508596     89.530184   0.000000   0.000000
   43       91.170307     91.176185   0.000000   0.000000
   44       93.160256     93.168600   0.000000   0.000000
   45       97.545318     97.562239   0.000000   0.000000
   46       97.545294     97.562288   0.000000   0.000000
   47      101.548041    101.566230   0.000000   0.000000
   48      102.522115    102.534157   0.000000   0.000000

  0.3636364E+00  0.1236297E-14  0.1236297E-14  0.6010518E-02
    1        0.379774      0.397724   1.000000   1.000000
    2        7.438363      7.456316   0.715195   0.707676
    3       18.698129     18.721245   0.000000   0.000000
    4       18.698130     18.721248   0.000000   0.000000
    5       20.819696     20.842752   0.000000   0.000000
    6       20.819696     20.842755   0.000000   0.000000
    7       22.291599     22.302628   0.000000   0.000000
    8       24.754372     24.765975   0.000000   0.000000
    9       29.886662     29.909617   0.000000   0.000000
   10       29.886662     29.909621   0.000000   0.000000
   11       36.444092     36.451244   0.000000   0.000000
   12       41.909739     41.927851   0.000000   0.000000
   13       41.909738     41.927854   0.000000   0.000000
   14       45.063641     45.074164   0.000000   0.000000
   15       46.446191     46.462657   0.000000   0.000000
   16       46.446191     46.462658   0.000000   0.000000
   17       48.378053     48.388883   0.000000   0.000000
   18       51.808528     51.824212   0.000000   0.000000
   19       57.154750     57.198557   0.000000   0.000000
   20       57.154781     57.198571   0.000000   0.000000
   21       57.154784     57.206825   0.000000   0.000000
   22       57.389954     57.427036   0.000000   0.000000
   23       61.388940     61.403535   0.000000   0.000000
   24       61.388945     61.403541   0.000000   0.000000
   25       64.172021     64.192816   0.000000   0.000000
   26       64.429964     64.445114   0.000000   0.000000
   27       64.429968     64.445121   0.000000   0.000000
   28       67.970221     68.000459   0.000000   0.000000
   29       69.682598     69.693968   0.000000   0.000000
   30       73.881738     73.891915   0.000000   0.000000
   31       73.881748     73.891935   0.000000   0.000000
   32       76.590669     76.600349   0.000000   0.000000
   33       76.977306     76.990272   0.000000   0.000000
   34       76.977309     76.990279   0.000000   0.000000
   35       78.215369     78.239026   0.000000   0.000000
   36       80.561537     80.573074   0.000000   0.000000
   37       80.561556     80.573095   0.000000   0.000000
   38       88.572564     88.584049   0.000000   0.000000
   39       89.144465     89.165907   0.000000   0.000000
   40       89.144477     89.165931   0.000000   0.000000
   41       90.498994     90.504740   0.000000   0.000000
   42       92.042226     92.057359   0.000000   0.000000
   43       92.042225     92.057378   0.000000   0.000000
   44       94.409360     94.420952   0.000000   0.000000
   45       99.018665     99.039955   0.000000   0.000000
   46       99.018712     99.040003   0.000000   0.000000
   47      102.366976    102.386052   0.000000   0.000000
   48      104.227785    104.241915   0.000000   0.000000

  0.4545455E+00  0.1248969E-14  0.1248969E-14  0.6010518E-02
    1        2.332720      2.350609   1.000000   1.000000
    2        4.699062      4.717114   1.000000   1.000000
    3       19.027317     19.050869   0.000000   0.000000
    4       19.027318     19.050872   0.000000   0.000000
    5       19.740477     19.763134   0.000000   0.000000
    6       19.740477     19.763136   0.000000   0.000000
    7       22.729552     22.739889   0.000000   0.000000
    8       23.566620     23.578206   0.000000   0.000000
    9       32.213192     32.236658   0.000000   0.000000
   10       32.213192     32.236661   0.000000   0.000000
   11       39.008198     39.016938   0.000000   0.000000
   12       39.222840     39.240600   0.000000   0.000000
   13       39.222841     39.240604   0.000000   0.000000
   14       45.821851     45.826994   0.000000   0.000000
   15       49.717706     49.730835   0.000000   0.000000
   16       50.347816     50.361708   0.000000   0.000000
   17       50.347816     50.361708   0.000000   0.000000
   18       54.756303     54.780914   0.000000   0.000000
   19       55.635685     55.674049   0.000000   0.000000
   20       55.948322     55.978535   0.000000   0.000000
   21       55.948327     55.978537   0.000000   0.000000
   22       57.774419     57.809166   0.000000   0.000000
   23       58.392017     58.428189   0.000000   0.000000
   24       58.392022     58.428206   0.000000   0.000000
   25       62.097165     62.121070   0.000000   0.000000
   26       63.997740     64.014470   0.000000   0.000000
   27       64.269351     64.279228   0.000000   0.000000
   28       64.269351     64.279233   0.000000   0.000000
   29       68.963165     68.994572   0.000000   0.000000
   30       73.618993     73.627358   0.000000   0.000000
   31       73.619002     73.627367   0.000000   0.000000
   32       75.532664     75.546545   0.000000   0.000000
   33       75.532669     75.546552   0.000000   0.000000
   34       76.322913     76.345399   0.000000   0.000000
   35       76.966210     76.977079   0.000000   0.000000
   36       80.704893     80.716761   0.000000   0.000000
   37       80.704912     80.716783   0.000000   0.000000
   38       88.625146     88.637633   0.000000   0.000000
   39       88.901645     88.922670   0.000000   0.000000
   40       88.901647     88.922676   0.000000   0.000000
   41       89.233618     89.239727   0.000000   0.000000
   42       94.322219     94.336361   0.000000   0.000000
   43       95.173336     95.187583   0.000000   0.000000
   44       95.173349     95.187599   0.000000   0.000000
   45      101.294419    101.315576   0.000000   0.000000
   46      101.294460    101.315599   0.000000   0.000000
   47      105.182178    105.198876   0.000000   0.000000
   48      105.182182    105.198882   0.000000   0.000000

  0.9090909E-01  0.9090909E-01  0.1262379E-14  0.4507889E-02
    1       -2.861949     -2.844018   1.000000   1.000000
    2       18.622915     18.644880   0.000000   0.000000
    3       18.622915     18.644882   0.000000   0.000000
    4       18.928427     18.939551   0.000000   0.000000
    5       21.314073     21.343190   0.000000   0.000000
    6       24.283899     24.305326   0.000000   0.000000
    7       24.327082     24.352555   0.000000   0.000000
    8       24.327083     24.352558   0.000000   0.000000
    9       26.585298     26.584531   0.000000   0.000000
   10       27.585102     27.610581   0.000000   0.000000
   11       30.586026     30.600601   0.000000   0.000000
   12       32.850724     32.864728   0.000000   0.000000
   13       32.850726     32.864731   0.000000   0.000000
   14       35.563932     35.578444   0.000000   0.000000
   15       42.384661     42.385230   0.000000   0.000000
   16       55.556988     55.580012   0.000000   0.000000
   17       55.556991     55.580012   0.000000   0.000000
   18       55.746198     55.806225   0.000000   0.000000
   19       57.253466     57.305637   0.000000   0.000000
   20       57.861608     57.881542   0.000000   0.000000
   21       57.945983     57.977927   0.000000   0.000000
   22       57.945988     57.977942   0.000000   0.000000
   23       59.449145     59.454409   0.000000   0.000000
   24       62.831804     62.847563   0.000000   0.000000
   25       67.504652     67.528593   0.000000   0.000000
   26       67.504657     67.528600   0.000000   0.000000
   27       70.450484     70.460023   0.000000   0.000000
   28       70.457249     70.477260   0.000000   0.000000
   29       73.511556     73.518272   0.000000   0.000000
   30       73.511565     73.518283   0.000000   0.000000
   31       80.647250     80.664292   0.000000   0.000000
   32       82.607561     82.630059   0.000000   0.000000
   33       82.707609     82.724957   0.000000   0.000000
   34       82.707614     82.724960   0.000000   0.000000
   35       83.430871     83.439452   0.000000   0.000000
   36       84.205994     84.215583   0.000000   0.000000
   37       88.754038     88.758721   0.000000   0.000000
   38       90.100230     90.116375   0.000000   0.000000
   39       90.100237     90.116393   0.000000   0.000000
   40       90.166756     90.183918   0.000000   0.000000
   41       90.166760     90.183924   0.000000   0.000000
   42       92.123053     92.149378   0.000000   0.000000
   43       93.187341     93.205326   0.000000   0.000000
   44       94.475950     94.482171   0.000000   0.000000
   45       94.816046     94.833584   0.000000   0.000000
   46       97.776240     97.792256   0.000000   0.000000
   47       97.815100     97.821981   0.000000   0.000000
   48       97.815113     97.822011   0.000000   0.000000

  0.1818182E+00  0.9090909E-01  0.1261396E-14  0.1803156E-01
    1       -2.341295     -2.323356   1.000000   1.000000
    2       15.288572     15.306236   0.000000   0.000000
    3       17.696185     17.718757   0.000000   0.000000
    4       19.040748     19.057234   0.000000   0.000000
    5       21.653164     21.681189   0.000000   0.000000
    6       22.273086     22.292421   0.000000   0.000000
    7       24.708824     24.727768   0.000000   0.000000
    8       25.728363     25.754011   0.000000   0.000000
    9       27.070096     27.093139   0.000000   0.000000
   10       29.500185     29.508030   0.000000   0.000000
   11       29.945935     29.957913   0.000000   0.000000
   12       34.725111     34.740689   0.000000   0.000000
   13       35.032095     35.046321   0.000000   0.000000
   14       37.875121     37.889111   0.000000   0.000000
   15       44.437805     44.441283   0.000000   0.000000
   16       51.767972     51.785018   0.000000   0.000000
   17       52.918089     52.935662   0.000000   0.000000
   18       55.840198     55.898393   0.000000   0.000000
   19       56.141161     56.174068   0.000000   0.000000
   20       56.805011     56.837313   0.000000   0.000000
   21       57.761053     57.805974   0.000000   0.000000
   22       58.259438     58.286918   0.000000   0.000000
   23       59.680565     59.701303   0.000000   0.000000
   24       62.441762     62.458890   0.000000   0.000000
   25       67.510238     67.523367   0.000000   0.000000
   26       68.453939     68.476984   0.000000   0.000000
   27       71.367755     71.382579   0.000000   0.000000
   28       72.605825     72.616615   0.000000   0.000000
   29       72.633584     72.642146   0.000000   0.000000
   30       74.958939     74.970920   0.000000   0.000000
   31       77.308674     77.326418   0.000000   0.000000
   32       78.441323     78.463365   0.000000   0.000000
   33       80.705375     80.718699   0.000000   0.000000
   34       81.741526     81.756533   0.000000   0.000000
   35       82.519995     82.539957   0.000000   0.000000
   36       84.107908     84.117438   0.000000   0.000000
   37       86.259489     86.269433   0.000000   0.000000
   38       86.289514     86.310641   0.000000   0.000000
   39       89.157571     89.168252   0.000000   0.000000
   40       89.303466     89.321421   0.000000   0.000000
   41       89.849239     89.863626   0.000000   0.000000
   42       91.382803     91.393922   0.000000   0.000000
   43       93.753245     93.776276   0.000000   0.000000
   44       94.476392     94.488739   0.000000   0.000000
   45       94.550787     94.560974   0.000000   0.000000
   46       96.187559     96.197226   0.000000   0.000000
   47       97.034393     97.048151   0.000000   0.000000
   48       97.670355     97.684180   0.000000   0.000000

  0.2727273E+00  0.9090909E-01  0.1266963E-14  0.1803156E-01
    1       -1.379424     -1.361475   1.000000   1.000000
    2       11.813291     11.831048   0.000000   0.000000
    3       17.139593     17.162507   0.000000   0.000000
    4       18.699793     18.717356   0.000000   0.000000
    5       20.007001     20.029269   0.000000   0.000000
    6       23.786100     23.809548   0.000000   0.000000
    7       24.645075     24.661227   0.000000   0.000000
    8       24.749910     24.773916   0.000000   0.000000
    9       28.249158     28.262701   0.000000   0.000000
   10       28.535308     28.558416   0.000000   0.000000
   11       33.055607     33.062508   0.000000   0.000000
   12       38.083376     38.100047   0.000000   0.000000
   13       39.023730     39.038122   0.000000   0.000000
   14       40.884319     40.898288   0.000000   0.000000
   15       47.151979     47.169630   0.000000   0.000000
   16       47.358230     47.364380   0.000000   0.000000
   17       49.115746     49.131728   0.000000   0.000000
   18       53.922924     53.950960   0.000000   0.000000
   19       56.101323     56.153086   0.000000   0.000000
   20       56.979574     57.017135   0.000000   0.000000
   21       57.922008     57.966002   0.000000   0.000000
   22       58.732601     58.754786   0.000000   0.000000
   23       59.230092     59.265933   0.000000   0.000000
   24       62.669607     62.685077   0.000000   0.000000
   25       65.079477     65.093966   0.000000   0.000000
   26       68.815772     68.837283   0.000000   0.000000
   27       68.885808     68.894614   0.000000   0.000000
   28       71.570340     71.580331   0.000000   0.000000
   29       72.051027     72.066215   0.000000   0.000000
   30       73.752278     73.774381   0.000000   0.000000
   31       77.070754     77.084414   0.000000   0.000000
   32       77.200504     77.216250   0.000000   0.000000
   33       78.623229     78.638715   0.000000   0.000000
   34       80.702667     80.712422   0.000000   0.000000
   35       81.046727     81.062069   0.000000   0.000000
   36       81.500078     81.513502   0.000000   0.000000
   37       82.652035     82.662282   0.000000   0.000000
   38       86.775140     86.796764   0.000000   0.000000
   39       86.825555     86.841392   0.000000   0.000000
   40       87.067399     87.084913   0.000000   0.000000
   41       91.103151     91.112824   0.000000   0.000000
   42       92.459322     92.469008   0.000000   0.000000
   43       92.633034     92.654537   0.000000   0.000000
   44       94.224431     94.238878   0.000000   0.000000
   45       94.507097     94.518794   0.000000   0.000000
   46       97.301115     97.313067   0.000000   0.000000
   47       99.810355     99.825987   0.000000   0.000000
   48      100.835133    100.849193   0.000000   0.000000

  0.3636364E+00  0.9090909E-01  0.1237502E-14  0.1803156E-01
    1        0.014899      0.032849   1.000000   1.000000
    2        8.612358      8.630226   0.201051   0.193129
    3       16.960165     16.983283   0.000000   0.000000
    4       18.359008     18.377533   0.000000   0.000000
    5       18.609151     18.630435   0.000000   0.000000
    6       23.290691     23.314048   0.000000   0.000000
    7       24.387895     24.405512   0.000000   0.000000
    8       26.039692     26.056141   0.000000   0.000000
    9       27.212576     27.229666   0.000000   0.000000
   10       30.848562     30.871764   0.000000   0.000000
   11       36.280063     36.287845   0.000000   0.000000
   12       40.875692     40.893088   0.000000   0.000000
   13       43.242953     43.258924   0.000000   0.000000
   14       43.720532     43.733105   0.000000   0.000000
   15       44.225529     44.242854   0.000000   0.000000
   16       46.397549     46.412074   0.000000   0.000000
   17       49.846406     49.856064   0.000000   0.000000
   18       52.378908     52.399773   0.000000   0.000000
   19       56.280198     56.331458   0.000000   0.000000
   20       57.160394     57.202226   0.000000   0.000000
   21       57.426331     57.458510   0.000000   0.000000
   22       58.126224     58.170893   0.000000   0.000000
   23       59.257224     59.274302   0.000000   0.000000
   24       61.951797     61.976571   0.000000   0.000000
   25       63.344155     63.358863   0.000000   0.000000
   26       65.056120     65.068876   0.000000   0.000000
   27       66.472333     66.492802   0.000000   0.000000
   28       70.462346     70.474961   0.000000   0.000000
   29       70.504908     70.516662   0.000000   0.000000
   30       71.387023     71.411817   0.000000   0.000000
   31       72.604944     72.617040   0.000000   0.000000
   32       76.168092     76.183176   0.000000   0.000000
   33       77.185353     77.196488   0.000000   0.000000
   34       78.244963     78.254202   0.000000   0.000000
   35       80.681277     80.695103   0.000000   0.000000
   36       81.570078     81.580087   0.000000   0.000000
   37       83.387114     83.406522   0.000000   0.000000
   38       84.628882     84.645795   0.000000   0.000000
   39       87.307259     87.319420   0.000000   0.000000
   40       88.650698     88.670160   0.000000   0.000000
   41       92.602517     92.612296   0.000000   0.000000
   42       93.647546     93.661792   0.000000   0.000000
   43       93.757920     93.774110   0.000000   0.000000
   44       94.621085     94.637045   0.000000   0.000000
   45       96.206794     96.226813   0.000000   0.000000
   46       98.371884     98.388425   0.000000   0.000000
   47      101.184425    101.196763   0.000000   0.000000
   48      103.403075    103.417592   0.000000   0.000000

  0.4545455E+00  0.9090909E-01  0.1249509E-14  0.1803156E-01
    1        1.828995      1.846911   1.000000   1.000000
    2        5.755718      5.773694   1.043785   1.046173
    3       17.134202     17.155058   0.000000   0.000000
    4       17.160411     17.183659   0.000000   0.000000
    5       18.826118     18.845141   0.000000   0.000000
    6       22.113202     22.136279   0.000000   0.000000
    7       24.639843     24.657794   0.000000   0.000000
    8       25.331224     25.341982   0.000000   0.000000
    9       29.464697     29.486388   0.000000   0.000000
   10       32.731667     32.755416   0.000000   0.000000
   11       39.107621     39.116847   0.000000   0.000000
   12       39.150914     39.168362   0.000000   0.000000
   13       40.669866     40.686405   0.000000   0.000000
   14       47.157456     47.162812   0.000000   0.000000
   15       47.452223     47.468378   0.000000   0.000000
   16       48.791831     48.807654   0.000000   0.000000
   17       49.834108     49.847314   0.000000   0.000000
   18       54.455951     54.480875   0.000000   0.000000
   19       55.426635     55.456429   0.000000   0.000000
   20       56.364360     56.398881   0.000000   0.000000
   21       57.113023     57.158063   0.000000   0.000000
   22       57.136958     57.180311   0.000000   0.000000