   8   8   0   0
  0.2056806E+02  0.5479755E-09  0.5479755E-09  0.5479755E-09  0.5000000E-15
   1.0000000000000000E-004
  CAR 
 unknown system                          
     11.91191700     -8.21729048  301      5.65696574      1.00000000
     -8.217  0.0000E+00  0.0000E+00
     -8.150  0.0000E+00  0.0000E+00
     -8.083  0.0000E+00  0.0000E+00
     -8.016  0.0000E+00  0.0000E+00
     -7.949  0.0000E+00  0.0000E+00
     -7.882 -0.4641E-30 -0.3114E-31
     -7.815 -0.1055E-27 -0.7108E-29
     -7.748 -0.1917E-25 -0.1293E-26
     -7.681 -0.2775E-23 -0.1875E-24
     -7.613 -0.3200E-21 -0.2166E-22
     -7.546 -0.2938E-19 -0.1993E-20
     -7.479 -0.2147E-17 -0.1461E-18
     -7.412 -0.1249E-15 -0.8524E-17
     -7.345 -0.5588E-14 -0.3834E-15
     -7.278 -0.2047E-12 -0.1412E-13
     -7.211 -0.5943E-11 -0.4129E-12
     -7.144 -0.1368E-09 -0.9589E-11
     -7.077 -0.2490E-08 -0.1767E-09
     -7.010 -0.3583E-07 -0.2581E-08
     -6.942 -0.4062E-06 -0.2984E-07
     -6.875 -0.3620E-05 -0.2727E-06
     -6.808 -0.2527E-04 -0.1968E-05
     -6.741 -0.1375E-03 -0.1120E-04
     -6.674 -0.5806E-03 -0.5015E-04
     -6.607 -0.1888E-02 -0.1769E-03
     -6.540 -0.4684E-02 -0.4911E-03
     -6.473 -0.8662E-02 -0.1072E-02
     -6.406 -0.1093E-01 -0.1806E-02
     -6.339 -0.4414E-02 -0.2102E-02
     -6.271  0.2397E-01 -0.4937E-03
     -6.204  0.9341E-01  0.5774E-02
     -6.137  0.2212E+00  0.2062E-01
     -6.070  0.4092E+00  0.4808E-01
     -6.003  0.6368E+00  0.9080E-01
     -5.936  0.8583E+00  0.1484E+00
     -5.869  0.1003E+01  0.2157E+00
     -5.802  0.1012E+01  0.2837E+00
     -5.735  0.8889E+00  0.3433E+00
     -5.668  0.7132E+00  0.3912E+00
     -5.600  0.6172E+00  0.4326E+00
     -5.533  0.7446E+00  0.4825E+00
     -5.466  0.1163E+01  0.5606E+00
     -5.399  0.1764E+01  0.6790E+00
     -5.332  0.2282E+01  0.8321E+00
     -5.265  0.2446E+01  0.9962E+00
     -5.198  0.2132E+01  0.1139E+01
     -5.131  0.1456E+01  0.1237E+01
     -5.064  0.7763E+00  0.1289E+01
     -4.997  0.4990E+00  0.1323E+01
     -4.930  0.7797E+00  0.1375E+01
     -4.862  0.1419E+01  0.1470E+01
     -4.795  0.2035E+01  0.1607E+01
     -4.728  0.2355E+01  0.1765E+01
     -4.661  0.2418E+01  0.1927E+01
     -4.594  0.2491E+01  0.2094E+01
     -4.527  0.2701E+01  0.2275E+01
     -4.460  0.2823E+01  0.2465E+01
     -4.393  0.2532E+01  0.2635E+01
     -4.326  0.1915E+01  0.2763E+01
     -4.259  0.1606E+01  0.2871E+01
     -4.191  0.2205E+01  0.3019E+01
     -4.124  0.3527E+01  0.3255E+01
     -4.057  0.4626E+01  0.3566E+01
     -3.990  0.4691E+01  0.3881E+01
     -3.923  0.3724E+01  0.4130E+01
     -3.856  0.2317E+01  0.4286E+01
     -3.789  0.1121E+01  0.4361E+01
     -3.722  0.6427E+00  0.4404E+01
     -3.655  0.1143E+01  0.4481E+01
     -3.588  0.2411E+01  0.4643E+01
     -3.520  0.3778E+01  0.4896E+01
     -3.453  0.4607E+01  0.5205E+01
     -3.386  0.4835E+01  0.5530E+01
     -3.319  0.4895E+01  0.5858E+01
     -3.252  0.5030E+01  0.6196E+01
     -3.185  0.4878E+01  0.6523E+01
     -3.118  0.3944E+01  0.6788E+01
     -3.051  0.2364E+01  0.6946E+01
     -2.984  0.9096E+00  0.7007E+01
     -2.917  0.2672E+00  0.7025E+01
     -2.850  0.5090E+00  0.7059E+01
     -2.782  0.1129E+01  0.7135E+01
     -2.715  0.1477E+01  0.7234E+01
     -2.648  0.1269E+01  0.7319E+01
     -2.581  0.7779E+00  0.7372E+01
     -2.514  0.4580E+00  0.7402E+01
     -2.447  0.4524E+00  0.7433E+01
     -2.380  0.5792E+00  0.7472E+01
     -2.313  0.7478E+00  0.7522E+01
     -2.246  0.1164E+01  0.7600E+01
     -2.179  0.1977E+01  0.7732E+01
     -2.111  0.2851E+01  0.7924E+01
     -2.044  0.3168E+01  0.8136E+01
     -1.977  0.2689E+01  0.8317E+01
     -1.910  0.1820E+01  0.8439E+01
     -1.843  0.1121E+01  0.8514E+01
     -1.776  0.7433E+00  0.8564E+01
     -1.709  0.4816E+00  0.8596E+01
     -1.642  0.2252E+00  0.8611E+01
     -1.575  0.1271E+00  0.8620E+01
     -1.508  0.3583E+00  0.8644E+01
     -1.440  0.8219E+00  0.8699E+01
     -1.373  0.1241E+01  0.8782E+01
     -1.306  0.1628E+01  0.8892E+01
     -1.239  0.2470E+01  0.9057E+01
     -1.172  0.4077E+01  0.9331E+01
     -1.105  0.5818E+01  0.9721E+01
     -1.038  0.6535E+01  0.1016E+02
     -0.971  0.5801E+01  0.1055E+02
     -0.904  0.4353E+01  0.1084E+02
     -0.837  0.3266E+01  0.1106E+02
     -0.769  0.3059E+01  0.1127E+02
     -0.702  0.3603E+01  0.1151E+02
     -0.635  0.4447E+01  0.1181E+02
     -0.568  0.5041E+01  0.1214E+02
     -0.501  0.4870E+01  0.1247E+02
     -0.434  0.3759E+01  0.1272E+02
     -0.367  0.2118E+01  0.1286E+02
     -0.300  0.6731E+00  0.1291E+02
     -0.233 -0.1238E+00  0.1290E+02
     -0.166 -0.2962E+00  0.1288E+02
     -0.099 -0.4745E-01  0.1288E+02
     -0.031  0.4701E+00  0.1291E+02
      0.036  0.1079E+01  0.1298E+02
      0.103  0.1583E+01  0.1309E+02
      0.170  0.2007E+01  0.1322E+02
      0.237  0.2546E+01  0.1339E+02
      0.304  0.3082E+01  0.1360E+02
      0.371  0.3085E+01  0.1381E+02
      0.438  0.2270E+01  0.1396E+02
      0.505  0.1066E+01  0.1403E+02
      0.572  0.1958E+00  0.1405E+02
      0.640  0.4845E-01  0.1405E+02
      0.707  0.5178E+00  0.1408E+02
      0.774  0.1169E+01  0.1416E+02
      0.841  0.1501E+01  0.1426E+02
      0.908  0.1320E+01  0.1435E+02
      0.975  0.9130E+00  0.1441E+02
      1.042  0.7071E+00  0.1446E+02
      1.109  0.8348E+00  0.1452E+02
      1.176  0.1220E+01  0.1460E+02
      1.243  0.1902E+01  0.1473E+02
      1.311  0.2869E+01  0.1492E+02
      1.378  0.3652E+01  0.1516E+02
      1.445  0.3631E+01  0.1541E+02
      1.512  0.2865E+01  0.1560E+02
      1.579  0.2178E+01  0.1574E+02
      1.646  0.2320E+01  0.1590E+02
      1.713  0.3357E+01  0.1613E+02
      1.780  0.4839E+01  0.1645E+02
      1.847  0.6126E+01  0.1686E+02
      1.914  0.6598E+01  0.1730E+02
      1.982  0.5996E+01  0.1771E+02
      2.049  0.4756E+01  0.1803E+02
      2.116  0.3730E+01  0.1828E+02
      2.183  0.3386E+01  0.1850E+02
      2.250  0.3485E+01  0.1874E+02
      2.317  0.3578E+01  0.1898E+02
      2.384  0.3467E+01  0.1921E+02
      2.451  0.3226E+01  0.1943E+02
      2.518  0.3258E+01  0.1964E+02
      2.585  0.4160E+01  0.1992E+02
      2.652  0.5966E+01  0.2032E+02
      2.720  0.7740E+01  0.2084E+02
      2.787  0.8415E+01  0.2141E+02
      2.854  0.7884E+01  0.2194E+02
      2.921  0.6893E+01  0.2240E+02
      2.988  0.6158E+01  0.2281E+02
      3.055  0.5898E+01  0.2321E+02
      3.122  0.5827E+01  0.2360E+02
      3.189  0.5327E+01  0.2396E+02
      3.256  0.4064E+01  0.2423E+02
      3.323  0.2700E+01  0.2441E+02
      3.391  0.2552E+01  0.2458E+02
      3.458  0.4223E+01  0.2487E+02
      3.525  0.6692E+01  0.2531E+02
      3.592  0.8081E+01  0.2586E+02
      3.659  0.7572E+01  0.2636E+02
      3.726  0.6273E+01  0.2679E+02
      3.793  0.5755E+01  0.2717E+02
      3.860  0.6093E+01  0.2758E+02
      3.927  0.6060E+01  0.2799E+02
      3.994  0.5021E+01  0.2832E+02
      4.062  0.3757E+01  0.2858E+02
      4.129  0.3291E+01  0.2880E+02
      4.196  0.3674E+01  0.2904E+02
      4.263  0.4171E+01  0.2932E+02
      4.330  0.4195E+01  0.2960E+02
      4.397  0.3788E+01  0.2986E+02
      4.464  0.3437E+01  0.3009E+02
      4.531  0.3539E+01  0.3033E+02
      4.598  0.3964E+01  0.3059E+02
      4.665  0.4099E+01  0.3087E+02
      4.732  0.3471E+01  0.3110E+02
      4.800  0.2348E+01  0.3126E+02
      4.867  0.1513E+01  0.3136E+02
      4.934  0.1395E+01  0.3145E+02
      5.001  0.1625E+01  0.3156E+02
      5.068  0.1559E+01  0.3167E+02
      5.135  0.1044E+01  0.3174E+02
      5.202  0.4949E+00  0.3177E+02
      5.269  0.3234E+00  0.3179E+02
      5.336  0.5181E+00  0.3183E+02
      5.403  0.7567E+00  0.3188E+02
      5.471  0.7797E+00  0.3193E+02
      5.538  0.5875E+00  0.3197E+02
      5.605  0.3346E+00  0.3199E+02
      5.672  0.1399E+00  0.3200E+02
      5.739  0.2823E-01  0.3200E+02
      5.806 -0.2368E-01  0.3200E+02
      5.873 -0.4326E-01  0.3200E+02
      5.940 -0.3949E-01  0.3200E+02
      6.007  0.8363E-02  0.3200E+02
      6.074  0.1320E+00  0.3201E+02
      6.142  0.3265E+00  0.3203E+02
      6.209  0.5299E+00  0.3206E+02
      6.276  0.6675E+00  0.3211E+02
      6.343  0.7115E+00  0.3216E+02
      6.410  0.6946E+00  0.3220E+02
      6.477  0.6811E+00  0.3225E+02
      6.544  0.7293E+00  0.3230E+02
      6.611  0.8686E+00  0.3235E+02
      6.678  0.1108E+01  0.3243E+02
      6.745  0.1427E+01  0.3253E+02
      6.813  0.1749E+01  0.3264E+02
      6.880  0.2026E+01  0.3278E+02
      6.947  0.2388E+01  0.3294E+02
      7.014  0.2979E+01  0.3314E+02
      7.081  0.3591E+01  0.3338E+02
      7.148  0.3825E+01  0.3364E+02
      7.215  0.3667E+01  0.3388E+02
      7.282  0.3488E+01  0.3412E+02
      7.349  0.3421E+01  0.3435E+02
      7.416  0.3309E+01  0.3457E+02
      7.483  0.3339E+01  0.3479E+02
      7.551  0.4029E+01  0.3506E+02
      7.618  0.5378E+01  0.3542E+02
      7.685  0.6719E+01  0.3587E+02
      7.752  0.7688E+01  0.3639E+02
      7.819  0.8528E+01  0.3696E+02
      7.886  0.9032E+01  0.3757E+02
      7.953  0.8215E+01  0.3812E+02
      8.020  0.5781E+01  0.3851E+02
      8.087  0.3066E+01  0.3871E+02
      8.154  0.1764E+01  0.3883E+02
      8.222  0.2194E+01  0.3898E+02
      8.289  0.3274E+01  0.3920E+02
      8.356  0.3845E+01  0.3946E+02
      8.423  0.3643E+01  0.3970E+02
      8.490  0.3159E+01  0.3991E+02
      8.557  0.2978E+01  0.4011E+02
      8.624  0.3418E+01  0.4034E+02
      8.691  0.4649E+01  0.4065E+02
      8.758  0.6793E+01  0.4111E+02
      8.825  0.9434E+01  0.4174E+02
      8.893  0.1122E+02  0.4249E+02
      8.960  0.1086E+02  0.4322E+02
      9.027  0.8793E+01  0.4381E+02
      9.094  0.6897E+01  0.4428E+02
      9.161  0.6368E+01  0.4470E+02
      9.228  0.6506E+01  0.4514E+02
      9.295  0.5997E+01  0.4554E+02
      9.362  0.4579E+01  0.4585E+02
      9.429  0.3032E+01  0.4605E+02
      9.496  0.2091E+01  0.4619E+02
      9.564  0.1841E+01  0.4632E+02
      9.631  0.2022E+01  0.4645E+02
      9.698  0.2571E+01  0.4663E+02
      9.765  0.3585E+01  0.4687E+02
      9.832  0.4733E+01  0.4718E+02
      9.899  0.5145E+01  0.4753E+02
      9.966  0.4249E+01  0.4781E+02
     10.033  0.2480E+01  0.4798E+02
     10.100  0.8472E+00  0.4804E+02
     10.167 -0.3195E-01  0.4803E+02
     10.234 -0.2447E+00  0.4802E+02
     10.302 -0.1718E+00  0.4801E+02
     10.369 -0.7387E-01  0.4800E+02
     10.436 -0.2273E-01  0.4800E+02
     10.503 -0.5263E-02  0.4800E+02
     10.570 -0.9373E-03  0.4800E+02
     10.637 -0.1300E-03  0.4800E+02
     10.704 -0.1413E-04  0.4800E+02
     10.771 -0.1210E-05  0.4800E+02
     10.838 -0.8183E-07  0.4800E+02
     10.905 -0.4384E-08  0.4800E+02
     10.973 -0.1862E-09  0.4800E+02
     11.040 -0.6283E-11  0.4800E+02
     11.107 -0.1677E-12  0.4800E+02
     11.174 -0.3812E-14  0.4800E+02
     11.241  0.0000E+00  0.4800E+02
     11.308  0.0000E+00  0.4800E+02
     11.375  0.0000E+00  0.4800E+02
     11.442  0.0000E+00  0.4800E+02
     11.509  0.0000E+00  0.4800E+02
     11.576  0.0000E+00  0.4800E+02
     11.644  0.0000E+00  0.4800E+02
     11.711  0.0000E+00  0.4800E+02
     11.778  0.0000E+00  0.4800E+02
     11.845  0.0000E+00  0.4800E+02
     11.912  0.0000E+00  0.4800E+02
