   7   7   1   0
  0.1404647E+02  0.3950078E-09  0.3950078E-09  0.6892915E-09  0.5000000E-15
   1.0000000000000000E-004
  CAR 
 unknown system                          
     16.66385322    -60.92088518  301      9.37836809      1.00000000
    -60.921  0.0000E+00  0.0000E+00  0.0000E+00  0.0000E+00
    -60.662  0.0000E+00  0.0000E+00  0.0000E+00  0.0000E+00
    -60.404  0.0000E+00  0.0000E+00  0.0000E+00  0.0000E+00
    -60.145  0.0000E+00  0.0000E+00  0.0000E+00  0.0000E+00
    -59.886  0.0000E+00  0.0000E+00  0.0000E+00  0.0000E+00
    -59.628  0.0000E+00  0.0000E+00  0.0000E+00  0.0000E+00
    -59.369  0.0000E+00  0.0000E+00  0.0000E+00  0.0000E+00
    -59.111  0.0000E+00  0.0000E+00  0.0000E+00  0.0000E+00
    -58.852  0.0000E+00  0.0000E+00  0.0000E+00  0.0000E+00
    -58.593  0.0000E+00  0.0000E+00  0.0000E+00  0.0000E+00
    -58.335  0.0000E+00  0.0000E+00  0.0000E+00  0.0000E+00
    -58.076  0.0000E+00  0.0000E+00  0.0000E+00  0.0000E+00
    -57.817  0.0000E+00  0.0000E+00  0.0000E+00  0.0000E+00
    -57.559  0.0000E+00  0.0000E+00  0.0000E+00  0.0000E+00
    -57.300  0.1160E+02  0.0000E+00  0.3000E+01  0.0000E+00
    -57.042  0.0000E+00  0.0000E+00  0.3000E+01  0.0000E+00
    -56.783  0.0000E+00  0.0000E+00  0.3000E+01  0.0000E+00
    -56.524  0.0000E+00  0.0000E+00  0.3000E+01  0.0000E+00
    -56.266  0.0000E+00  0.0000E+00  0.3000E+01  0.0000E+00
    -56.007  0.0000E+00  0.0000E+00  0.3000E+01  0.0000E+00
    -55.749  0.0000E+00  0.0000E+00  0.3000E+01  0.0000E+00
    -55.490  0.0000E+00  0.0000E+00  0.3000E+01  0.0000E+00
    -55.231  0.0000E+00  0.0000E+00  0.3000E+01  0.0000E+00
    -54.973  0.0000E+00  0.1160E+02  0.3000E+01  0.3000E+01
    -54.714  0.0000E+00  0.0000E+00  0.3000E+01  0.3000E+01
    -54.455  0.0000E+00  0.0000E+00  0.3000E+01  0.3000E+01
    -54.197  0.0000E+00  0.0000E+00  0.3000E+01  0.3000E+01
    -53.938  0.0000E+00  0.0000E+00  0.3000E+01  0.3000E+01
    -53.680  0.0000E+00  0.0000E+00  0.3000E+01  0.3000E+01
    -53.421  0.0000E+00  0.0000E+00  0.3000E+01  0.3000E+01
    -53.162  0.0000E+00  0.0000E+00  0.3000E+01  0.3000E+01
    -52.904  0.0000E+00  0.0000E+00  0.3000E+01  0.3000E+01
    -52.645  0.0000E+00  0.0000E+00  0.3000E+01  0.3000E+01
    -52.387  0.0000E+00  0.0000E+00  0.3000E+01  0.3000E+01
    -52.128  0.0000E+00  0.0000E+00  0.3000E+01  0.3000E+01
    -51.869  0.0000E+00  0.0000E+00  0.3000E+01  0.3000E+01
    -51.611  0.0000E+00  0.0000E+00  0.3000E+01  0.3000E+01
    -51.352  0.0000E+00  0.0000E+00  0.3000E+01  0.3000E+01
    -51.093  0.0000E+00  0.0000E+00  0.3000E+01  0.3000E+01
    -50.835  0.0000E+00  0.0000E+00  0.3000E+01  0.3000E+01
    -50.576  0.0000E+00  0.0000E+00  0.3000E+01  0.3000E+01
    -50.318  0.0000E+00  0.0000E+00  0.3000E+01  0.3000E+01
    -50.059  0.0000E+00  0.0000E+00  0.3000E+01  0.3000E+01
    -49.800  0.0000E+00  0.0000E+00  0.3000E+01  0.3000E+01
    -49.542  0.0000E+00  0.0000E+00  0.3000E+01  0.3000E+01
    -49.283  0.0000E+00  0.0000E+00  0.3000E+01  0.3000E+01
    -49.025  0.0000E+00  0.0000E+00  0.3000E+01  0.3000E+01
    -48.766  0.0000E+00  0.0000E+00  0.3000E+01  0.3000E+01
    -48.507  0.0000E+00  0.0000E+00  0.3000E+01  0.3000E+01
    -48.249  0.0000E+00  0.0000E+00  0.3000E+01  0.3000E+01
    -47.990  0.0000E+00  0.0000E+00  0.3000E+01  0.3000E+01
    -47.731  0.0000E+00  0.0000E+00  0.3000E+01  0.3000E+01
    -47.473  0.0000E+00  0.0000E+00  0.3000E+01  0.3000E+01
    -47.214  0.0000E+00  0.0000E+00  0.3000E+01  0.3000E+01
    -46.956  0.0000E+00  0.0000E+00  0.3000E+01  0.3000E+01
    -46.697  0.0000E+00  0.0000E+00  0.3000E+01  0.3000E+01
    -46.438  0.0000E+00  0.0000E+00  0.3000E+01  0.3000E+01
    -46.180  0.0000E+00  0.0000E+00  0.3000E+01  0.3000E+01
    -45.921  0.0000E+00  0.0000E+00  0.3000E+01  0.3000E+01
    -45.663  0.0000E+00  0.0000E+00  0.3000E+01  0.3000E+01
    -45.404  0.0000E+00  0.0000E+00  0.3000E+01  0.3000E+01
    -45.145  0.0000E+00  0.0000E+00  0.3000E+01  0.3000E+01
    -44.887  0.0000E+00  0.0000E+00  0.3000E+01  0.3000E+01
    -44.628  0.0000E+00  0.0000E+00  0.3000E+01  0.3000E+01
    -44.369  0.0000E+00  0.0000E+00  0.3000E+01  0.3000E+01
    -44.111  0.0000E+00  0.0000E+00  0.3000E+01  0.3000E+01
    -43.852  0.0000E+00  0.0000E+00  0.3000E+01  0.3000E+01
    -43.594  0.0000E+00  0.0000E+00  0.3000E+01  0.3000E+01
    -43.335  0.0000E+00  0.0000E+00  0.3000E+01  0.3000E+01
    -43.076  0.0000E+00  0.0000E+00  0.3000E+01  0.3000E+01
    -42.818  0.0000E+00  0.0000E+00  0.3000E+01  0.3000E+01
    -42.559  0.0000E+00  0.0000E+00  0.3000E+01  0.3000E+01
    -42.301  0.0000E+00  0.0000E+00  0.3000E+01  0.3000E+01
    -42.042  0.0000E+00  0.0000E+00  0.3000E+01  0.3000E+01
    -41.783  0.0000E+00  0.0000E+00  0.3000E+01  0.3000E+01
    -41.525  0.0000E+00  0.0000E+00  0.3000E+01  0.3000E+01
    -41.266  0.0000E+00  0.0000E+00  0.3000E+01  0.3000E+01
    -41.007  0.0000E+00  0.0000E+00  0.3000E+01  0.3000E+01
    -40.749  0.0000E+00  0.0000E+00  0.3000E+01  0.3000E+01
    -40.490  0.0000E+00  0.0000E+00  0.3000E+01  0.3000E+01
    -40.232  0.0000E+00  0.0000E+00  0.3000E+01  0.3000E+01
    -39.973  0.0000E+00  0.0000E+00  0.3000E+01  0.3000E+01
    -39.714  0.0000E+00  0.0000E+00  0.3000E+01  0.3000E+01
    -39.456  0.0000E+00  0.0000E+00  0.3000E+01  0.3000E+01
    -39.197  0.0000E+00  0.0000E+00  0.3000E+01  0.3000E+01
    -38.939  0.0000E+00  0.0000E+00  0.3000E+01  0.3000E+01
    -38.680  0.0000E+00  0.0000E+00  0.3000E+01  0.3000E+01
    -38.421  0.0000E+00  0.0000E+00  0.3000E+01  0.3000E+01
    -38.163  0.0000E+00  0.0000E+00  0.3000E+01  0.3000E+01
    -37.904  0.0000E+00  0.0000E+00  0.3000E+01  0.3000E+01
    -37.645  0.0000E+00  0.0000E+00  0.3000E+01  0.3000E+01
    -37.387  0.0000E+00  0.0000E+00  0.3000E+01  0.3000E+01
    -37.128  0.0000E+00  0.0000E+00  0.3000E+01  0.3000E+01
    -36.870  0.0000E+00  0.0000E+00  0.3000E+01  0.3000E+01
    -36.611  0.0000E+00  0.0000E+00  0.3000E+01  0.3000E+01
    -36.352  0.0000E+00  0.0000E+00  0.3000E+01  0.3000E+01
    -36.094  0.0000E+00  0.0000E+00  0.3000E+01  0.3000E+01
    -35.835  0.0000E+00  0.0000E+00  0.3000E+01  0.3000E+01
    -35.577  0.0000E+00  0.0000E+00  0.3000E+01  0.3000E+01
    -35.318  0.0000E+00  0.0000E+00  0.3000E+01  0.3000E+01
    -35.059  0.0000E+00  0.0000E+00  0.3000E+01  0.3000E+01
    -34.801  0.0000E+00  0.0000E+00  0.3000E+01  0.3000E+01
    -34.542  0.0000E+00  0.0000E+00  0.3000E+01  0.3000E+01
    -34.283  0.0000E+00  0.0000E+00  0.3000E+01  0.3000E+01
    -34.025  0.0000E+00  0.0000E+00  0.3000E+01  0.3000E+01
    -33.766  0.0000E+00  0.0000E+00  0.3000E+01  0.3000E+01
    -33.508  0.0000E+00  0.0000E+00  0.3000E+01  0.3000E+01
    -33.249  0.0000E+00  0.0000E+00  0.3000E+01  0.3000E+01
    -32.990  0.0000E+00  0.0000E+00  0.3000E+01  0.3000E+01
    -32.732  0.0000E+00  0.0000E+00  0.3000E+01  0.3000E+01
    -32.473  0.0000E+00  0.0000E+00  0.3000E+01  0.3000E+01
    -32.215  0.0000E+00  0.0000E+00  0.3000E+01  0.3000E+01
    -31.956  0.0000E+00  0.0000E+00  0.3000E+01  0.3000E+01
    -31.697  0.0000E+00  0.0000E+00  0.3000E+01  0.3000E+01
    -31.439  0.0000E+00  0.0000E+00  0.3000E+01  0.3000E+01
    -31.180  0.0000E+00  0.0000E+00  0.3000E+01  0.3000E+01
    -30.921  0.0000E+00  0.0000E+00  0.3000E+01  0.3000E+01
    -30.663  0.0000E+00  0.0000E+00  0.3000E+01  0.3000E+01
    -30.404  0.0000E+00  0.0000E+00  0.3000E+01  0.3000E+01
    -30.146  0.0000E+00  0.0000E+00  0.3000E+01  0.3000E+01
    -29.887  0.0000E+00  0.0000E+00  0.3000E+01  0.3000E+01
    -29.628  0.0000E+00  0.0000E+00  0.3000E+01  0.3000E+01
    -29.370  0.0000E+00  0.0000E+00  0.3000E+01  0.3000E+01
    -29.111  0.0000E+00  0.0000E+00  0.3000E+01  0.3000E+01
    -28.853  0.0000E+00  0.0000E+00  0.3000E+01  0.3000E+01
    -28.594  0.0000E+00  0.0000E+00  0.3000E+01  0.3000E+01
    -28.335  0.0000E+00  0.0000E+00  0.3000E+01  0.3000E+01
    -28.077  0.0000E+00  0.0000E+00  0.3000E+01  0.3000E+01
    -27.818  0.0000E+00  0.0000E+00  0.3000E+01  0.3000E+01
    -27.559  0.0000E+00  0.0000E+00  0.3000E+01  0.3000E+01
    -27.301  0.0000E+00  0.0000E+00  0.3000E+01  0.3000E+01
    -27.042  0.0000E+00  0.0000E+00  0.3000E+01  0.3000E+01
    -26.784  0.0000E+00  0.0000E+00  0.3000E+01  0.3000E+01
    -26.525  0.0000E+00  0.0000E+00  0.3000E+01  0.3000E+01
    -26.266  0.0000E+00  0.0000E+00  0.3000E+01  0.3000E+01
    -26.008  0.0000E+00  0.0000E+00  0.3000E+01  0.3000E+01
    -25.749  0.0000E+00  0.0000E+00  0.3000E+01  0.3000E+01
    -25.491  0.0000E+00  0.0000E+00  0.3000E+01  0.3000E+01
    -25.232  0.0000E+00  0.0000E+00  0.3000E+01  0.3000E+01
    -24.973  0.0000E+00  0.0000E+00  0.3000E+01  0.3000E+01
    -24.715  0.0000E+00  0.0000E+00  0.3000E+01  0.3000E+01
    -24.456  0.0000E+00  0.0000E+00  0.3000E+01  0.3000E+01
    -24.197  0.0000E+00  0.0000E+00  0.3000E+01  0.3000E+01
    -23.939  0.7865E+01  0.8044E+01  0.4074E+01  0.4079E+01
    -23.680  0.3196E+01  0.3025E+01  0.5000E+01  0.5000E+01
    -23.422  0.0000E+00  0.0000E+00  0.5000E+01  0.5000E+01
    -23.163  0.0000E+00  0.0000E+00  0.5000E+01  0.5000E+01
    -22.904  0.0000E+00  0.0000E+00  0.5000E+01  0.5000E+01
    -22.646  0.0000E+00  0.0000E+00  0.5000E+01  0.5000E+01
    -22.387  0.0000E+00  0.0000E+00  0.5000E+01  0.5000E+01
    -22.129  0.0000E+00  0.0000E+00  0.5000E+01  0.5000E+01
    -21.870  0.0000E+00  0.0000E+00  0.5000E+01  0.5000E+01
    -21.611  0.0000E+00  0.0000E+00  0.5000E+01  0.5000E+01
    -21.353  0.0000E+00  0.0000E+00  0.5000E+01  0.5000E+01
    -21.094  0.0000E+00  0.0000E+00  0.5000E+01  0.5000E+01
    -20.835  0.0000E+00  0.0000E+00  0.5000E+01  0.5000E+01
    -20.577  0.0000E+00  0.0000E+00  0.5000E+01  0.5000E+01
    -20.318  0.0000E+00  0.0000E+00  0.5000E+01  0.5000E+01
    -20.060  0.0000E+00  0.0000E+00  0.5000E+01  0.5000E+01
    -19.801  0.0000E+00  0.0000E+00  0.5000E+01  0.5000E+01
    -19.542  0.0000E+00  0.0000E+00  0.5000E+01  0.5000E+01
    -19.284  0.0000E+00  0.0000E+00  0.5000E+01  0.5000E+01
    -19.025  0.0000E+00  0.0000E+00  0.5000E+01  0.5000E+01
    -18.767  0.0000E+00  0.0000E+00  0.5000E+01  0.5000E+01
    -18.508  0.0000E+00  0.0000E+00  0.5000E+01  0.5000E+01
    -18.249  0.0000E+00  0.0000E+00  0.5000E+01  0.5000E+01
    -17.991  0.0000E+00  0.0000E+00  0.5000E+01  0.5000E+01
    -17.732  0.0000E+00  0.0000E+00  0.5000E+01  0.5000E+01
    -17.473  0.0000E+00  0.0000E+00  0.5000E+01  0.5000E+01
    -17.215  0.0000E+00  0.0000E+00  0.5000E+01  0.5000E+01
    -16.956  0.0000E+00  0.0000E+00  0.5000E+01  0.5000E+01
    -16.698  0.0000E+00  0.0000E+00  0.5000E+01  0.5000E+01
    -16.439  0.0000E+00  0.0000E+00  0.5000E+01  0.5000E+01
    -16.180  0.0000E+00  0.0000E+00  0.5000E+01  0.5000E+01
    -15.922  0.0000E+00  0.0000E+00  0.5000E+01  0.5000E+01
    -15.663  0.0000E+00  0.0000E+00  0.5000E+01  0.5000E+01
    -15.405  0.0000E+00  0.0000E+00  0.5000E+01  0.5000E+01
    -15.146  0.0000E+00  0.0000E+00  0.5000E+01  0.5000E+01
    -14.887  0.0000E+00  0.0000E+00  0.5000E+01  0.5000E+01
    -14.629  0.0000E+00  0.0000E+00  0.5000E+01  0.5000E+01
    -14.370  0.0000E+00  0.0000E+00  0.5000E+01  0.5000E+01
    -14.111  0.0000E+00  0.0000E+00  0.5000E+01  0.5000E+01
    -13.853  0.0000E+00  0.0000E+00  0.5000E+01  0.5000E+01
    -13.594  0.0000E+00  0.0000E+00  0.5000E+01  0.5000E+01
    -13.336  0.0000E+00  0.0000E+00  0.5000E+01  0.5000E+01
    -13.077  0.0000E+00  0.0000E+00  0.5000E+01  0.5000E+01
    -12.818  0.0000E+00  0.0000E+00  0.5000E+01  0.5000E+01
    -12.560  0.0000E+00  0.0000E+00  0.5000E+01  0.5000E+01
    -12.301  0.0000E+00  0.0000E+00  0.5000E+01  0.5000E+01
    -12.042  0.0000E+00  0.0000E+00  0.5000E+01  0.5000E+01
    -11.784  0.0000E+00  0.0000E+00  0.5000E+01  0.5000E+01
    -11.525  0.0000E+00  0.0000E+00  0.5000E+01  0.5000E+01
    -11.267  0.2282E+01  0.1765E+01  0.5305E+01  0.5093E+01
    -11.008  0.1647E+01  0.2514E+01  0.5782E+01  0.5540E+01
    -10.749  0.1536E+01  0.9692E+00  0.6053E+01  0.5911E+01
    -10.491  0.2057E+01  0.2565E+01  0.6642E+01  0.6416E+01
    -10.232  0.9170E+00  0.1396E+01  0.6898E+01  0.6806E+01
     -9.974  0.4408E+01  0.4560E+01  0.7965E+01  0.7527E+01
     -9.715  0.2899E+01  0.4324E+01  0.8691E+01  0.8301E+01
     -9.456  0.5278E+00  0.1391E+01  0.8994E+01  0.8902E+01
     -9.198  0.0000E+00  0.1578E+00  0.9000E+01  0.9000E+01
     -8.939  0.0000E+00  0.0000E+00  0.9000E+01  0.9000E+01
     -8.680  0.0000E+00  0.0000E+00  0.9000E+01  0.9000E+01
     -8.422  0.0000E+00  0.0000E+00  0.9000E+01  0.9000E+01
     -8.163  0.0000E+00  0.0000E+00  0.9000E+01  0.9000E+01
     -7.905  0.2670E+01  0.2679E+01  0.9211E+01  0.9214E+01
     -7.646  0.9730E+01  0.8467E+01  0.1037E+02  0.1033E+02
     -7.387  0.8104E+01  0.7860E+01  0.1212E+02  0.1207E+02
     -7.129  0.3116E+01  0.4430E+01  0.1297E+02  0.1283E+02
     -6.870  0.1000E+01  0.7546E+00  0.1312E+02  0.1308E+02
     -6.612  0.8436E+01  0.9061E+01  0.1410E+02  0.1387E+02
     -6.353  0.1762E+01  0.2514E+01  0.1500E+02  0.1500E+02
     -6.094  0.0000E+00  0.0000E+00  0.1500E+02  0.1500E+02
     -5.836  0.0000E+00  0.0000E+00  0.1500E+02  0.1500E+02
     -5.577  0.0000E+00  0.0000E+00  0.1500E+02  0.1500E+02
     -5.318  0.0000E+00  0.0000E+00  0.1500E+02  0.1500E+02
     -5.060  0.0000E+00  0.0000E+00  0.1500E+02  0.1500E+02
     -4.801  0.0000E+00  0.0000E+00  0.1500E+02  0.1500E+02
     -4.543  0.0000E+00  0.0000E+00  0.1500E+02  0.1500E+02
     -4.284  0.0000E+00  0.0000E+00  0.1500E+02  0.1500E+02
     -4.025  0.0000E+00  0.0000E+00  0.1500E+02  0.1500E+02
     -3.767  0.0000E+00  0.0000E+00  0.1500E+02  0.1500E+02
     -3.508  0.0000E+00  0.0000E+00  0.1500E+02  0.1500E+02
     -3.250  0.0000E+00  0.0000E+00  0.1500E+02  0.1500E+02
     -2.991  0.0000E+00  0.0000E+00  0.1500E+02  0.1500E+02
     -2.732  0.0000E+00  0.0000E+00  0.1500E+02  0.1500E+02
     -2.474  0.0000E+00  0.0000E+00  0.1500E+02  0.1500E+02
     -2.215  0.0000E+00  0.0000E+00  0.1500E+02  0.1500E+02
     -1.956  0.0000E+00  0.0000E+00  0.1500E+02  0.1500E+02
     -1.698  0.0000E+00  0.0000E+00  0.1500E+02  0.1500E+02
     -1.439  0.0000E+00  0.0000E+00  0.1500E+02  0.1500E+02
     -1.181  0.0000E+00  0.0000E+00  0.1500E+02  0.1500E+02
     -0.922  0.0000E+00  0.0000E+00  0.1500E+02  0.1500E+02
     -0.663  0.0000E+00  0.0000E+00  0.1500E+02  0.1500E+02
     -0.405  0.0000E+00  0.0000E+00  0.1500E+02  0.1500E+02
     -0.146  0.1465E+01  0.0000E+00  0.1505E+02  0.1500E+02
      0.112  0.1693E+01  0.0000E+00  0.1550E+02  0.1500E+02
      0.371  0.9874E+00  0.0000E+00  0.1574E+02  0.1500E+02
      0.630  0.7607E+00  0.0000E+00  0.1596E+02  0.1500E+02
      0.888  0.7502E+00  0.0000E+00  0.1615E+02  0.1500E+02
      1.147  0.8043E+00  0.0000E+00  0.1635E+02  0.1500E+02
      1.406  0.2201E+01  0.4463E+00  0.1684E+02  0.1508E+02
      1.664  0.1563E+01  0.4337E+00  0.1716E+02  0.1519E+02
      1.923  0.4521E+01  0.5095E+00  0.1777E+02  0.1531E+02
      2.181  0.5871E+01  0.2243E+01  0.1902E+02  0.1552E+02
      2.440  0.6225E+01  0.2482E+01  0.2012E+02  0.1607E+02
      2.699  0.7912E+00  0.4611E+01  0.2058E+02  0.1698E+02
      2.957  0.1067E+01  0.3946E+01  0.2082E+02  0.1787E+02
      3.216  0.4937E+00  0.3529E+01  0.2103E+02  0.1847E+02
      3.474  0.5219E+00  0.1652E+01  0.2112E+02  0.1900E+02
      3.733  0.1847E+01  0.1958E+01  0.2138E+02  0.1961E+02
      3.992  0.2189E+01  0.2777E+01  0.2194E+02  0.2014E+02
      4.250  0.2052E+01  0.2773E+01  0.2249E+02  0.2072E+02
      4.509  0.7923E+01  0.5249E+01  0.2337E+02  0.2174E+02
      4.768  0.6406E+01  0.5082E+01  0.2492E+02  0.2306E+02
      5.026  0.4470E+01  0.6277E+01  0.2631E+02  0.2448E+02
      5.285  0.5514E+01  0.6413E+01  0.2759E+02  0.2557E+02
      5.543  0.5034E+01  0.7050E+01  0.2880E+02  0.2688E+02
      5.802  0.5724E+01  0.9217E+01  0.2996E+02  0.2831E+02
      6.061  0.2070E+01  0.4200E+01  0.3067E+02  0.2947E+02
      6.319  0.1971E+01  0.6876E+00  0.3114E+02  0.2985E+02
      6.578  0.1555E+01  0.4164E-01  0.3147E+02  0.2986E+02
      6.836  0.5108E+00  0.4013E-01  0.3171E+02  0.2987E+02
      7.095  0.3826E+00  0.3862E-01  0.3182E+02  0.2988E+02
      7.354  0.2459E+00  0.3711E-01  0.3190E+02  0.2989E+02
      7.612  0.1809E+00  0.3560E-01  0.3195E+02  0.2990E+02
      7.871  0.7891E-01  0.3410E-01  0.3200E+02  0.2991E+02
      8.130  0.0000E+00  0.3259E-01  0.3200E+02  0.2992E+02
      8.388  0.0000E+00  0.3108E-01  0.3200E+02  0.2992E+02
      8.647  0.0000E+00  0.2957E-01  0.3200E+02  0.2993E+02
      8.905  0.0000E+00  0.2806E-01  0.3200E+02  0.2994E+02
      9.164  0.4356E-01  0.7202E-01  0.3200E+02  0.2995E+02
      9.423  0.1725E+00  0.1975E+00  0.3203E+02  0.2998E+02
      9.681  0.3407E+00  0.3631E+00  0.3209E+02  0.3005E+02
      9.940  0.3895E+00  0.4149E+00  0.3218E+02  0.3015E+02
     10.198  0.1163E+01  0.1320E+01  0.3234E+02  0.3033E+02
     10.457  0.5676E+01  0.5587E+01  0.3301E+02  0.3105E+02
     10.716  0.3824E+01  0.1422E+02  0.3404E+02  0.3272E+02
     10.974  0.4452E+02  0.3326E+02  0.3818E+02  0.3664E+02
     11.233  0.3195E+02  0.3301E+02  0.4437E+02  0.4313E+02
     11.492  0.5703E+01  0.4206E+01  0.4613E+02  0.4487E+02
     11.750  0.2488E+01  0.1856E+01  0.4650E+02  0.4531E+02
     12.009  0.2438E+01  0.2318E+01  0.4714E+02  0.4594E+02
     12.267  0.2205E+01  0.3410E+01  0.4776E+02  0.4668E+02
     12.526  0.3332E+00  0.2047E+01  0.4800E+02  0.4734E+02
     12.785  0.0000E+00  0.1209E+01  0.4800E+02  0.4776E+02
     13.043  0.0000E+00  0.4430E+00  0.4800E+02  0.4799E+02
     13.302  0.0000E+00  0.0000E+00  0.4800E+02  0.4800E+02
     13.560  0.0000E+00  0.0000E+00  0.4800E+02  0.4800E+02
     13.819  0.0000E+00  0.0000E+00  0.4800E+02  0.4800E+02
     14.078  0.0000E+00  0.0000E+00  0.4800E+02  0.4800E+02
     14.336  0.0000E+00  0.0000E+00  0.4800E+02  0.4800E+02
     14.595  0.0000E+00  0.0000E+00  0.4800E+02  0.4800E+02
     14.854  0.0000E+00  0.0000E+00  0.4800E+02  0.4800E+02
     15.112  0.0000E+00  0.0000E+00  0.4800E+02  0.4800E+02
     15.371  0.0000E+00  0.0000E+00  0.4800E+02  0.4800E+02
     15.629  0.0000E+00  0.0000E+00  0.4800E+02  0.4800E+02
     15.888  0.0000E+00  0.0000E+00  0.4800E+02  0.4800E+02
     16.147  0.0000E+00  0.0000E+00  0.4800E+02  0.4800E+02
     16.405  0.0000E+00  0.0000E+00  0.4800E+02  0.4800E+02
     16.664  0.0000E+00  0.0000E+00  0.4800E+02  0.4800E+02
     16.66385322    -60.92088518  301      9.37836809      1.00000000
    -60.921  0.0000E+00  0.0000E+00  0.0000E+00  0.0000E+00  0.0000E+00  0.0000E+00  0.0000E+00  0.0000E+00  0.0000E+00  0.0000E+00  0.0000E+00  0.0000E+00  0.0000E+00  0.0000E+00  0.0000E+00  0.0000E+00  0.0000E+00  0.0000E+00  0.0000E+00  0.0000E+00  0.0000E+00  0.0000E+00  0.0000E+00  0.0000E+00  0.0000E+00  0.0000E+00  0.0000E+00  0.0000E+00  0.0000E+00  0.0000E+00  0.0000E+00  0.0000E+00
    -60.662  0.0000E+00  0.0000E+00  0.0000E+00  0.0000E+00  0.0000E+00  0.0000E+00  0.0000E+00  0.0000E+00  0.0000E+00  0.0000E+00  0.0000E+00  0.0000E+00  0.0000E+00  0.0000E+00  0.0000E+00  0.0000E+00  0.0000E+00  0.0000E+00  0.0000E+00  0.0000E+00  0.0000E+00  0.0000E+00  0.0000E+00  0.0000E+00  0.0000E+00  0.0000E+00  0.0000E+00  0.0000E+00  0.0000E+00  0.0000E+00  0.0000E+00  0.0000E+00
    -60.404  0.0000E+00  0.0000E+00  0.0000E+00  0.0000E+00  0.0000E+00  0.0000E+00  0.0000E+00  0.0000E+00  0.0000E+00  0.0000E+00  0.0000E+00  0.0000E+00  0.0000E+00  0.0000E+00  0.0000E+00  0.0000E+00  0.0000E+00  0.0000E+00  0.0000E+00  0.0000E+00  0.0000E+00  0.0000E+00  0.0000E+00  0.0000E+00  0.0000E+00  0.0000E+00  0.0000E+00  0.0000E+00  0.0000E+00  0.0000E+00  0.0000E+00  0.0000E+00
    -60.145  0.0000E+00  0.0000E+00  0.0000E+00  0.0000E+00  0.0000E+00  0.0000E+00  0.0000E+00  0.0000E+00  0.0000E+00  0.0000E+00  0.0000E+00  0.0000E+00  0.0000E+00  0.0000E+00  0.0000E+00  0.0000E+00  0.0000E+00  0.0000E+00  0.0000E+00  0.0000E+00  0.0000E+00  0.0000E+00  0.0000E+00  0.0000E+00  0.0000E+00  0.0000E+00  0.0000E+00  0.0000E+00  0.0000E+00  0.0000E+00  0.0000E+00  0.0000E+00
    -59.886  0.0000E+00  0.0000E+00  0.0000E+00  0.0000E+00  0.0000E+00  0.0000E+00  0.0000E+00  0.0000E+00  0.0000E+00  0.0000E+00  0.0000E+00  0.0000E+00  0.0000E+00  0.0000E+00  0.0000E+00  0.0000E+00  0.0000E+00  0.0000E+00  0.0000E+00  0.0000E+00  0.0000E+00  0.0000E+00  0.0000E+00  0.0000E+00  0.0000E+00  0.0000E+00  0.0000E+00  0.0000E+00  0.0000E+00  0.0000E+00  0.0000E+00  0.0000E+00
    -59.628  0.0000E+00  0.0000E+00  0.0000E+00  0.0000E+00  0.0000E+00  0.0000E+00  0.0000E+00  0.0000E+00  0.0000E+00  0.0000E+00  0.0000E+00  0.0000E+00  0.0000E+00  0.0000E+00  0.0000E+00  0.0000E+00  0.0000E+00  0.0000E+00  0.0000E+00  0.0000E+00  0.0000E+00  0.0000E+00  0.0000E+00  0.0000E+00  0.0000E+00  0.0000E+00  0.0000E+00  0.0000E+00  0.0000E+00  0.0000E+00  0.0000E+00  0.0000E+00
    -59.369  0.0000E+00  0.0000E+00  0.0000E+00  0.0000E+00  0.0000E+00  0.0000E+00  0.0000E+00  0.0000E+00  0.0000E+00  0.0000E+00  0.0000E+00  0.0000E+00  0.0000E+00  0.0000E+00  0.0000E+00  0.0000E+00  0.0000E+00  0.0000E+00  0.0000E+00  0.0000E+00  0.0000E+00  0.0000E+00  0.0000E+00  0.0000E+00  0.0000E+00  0.0000E+00  0.0000E+00  0.0000E+00  0.0000E+00  0.0000E+00  0.0000E+00  0.0000E+00
    -59.111  0.0000E+00  0.0000E+00  0.0000E+00  0.0000E+00  0.0000E+00  0.0000E+00  0.0000E+00  0.0000E+00  0.0000E+00  0.0000E+00  0.0000E+00  0.0000E+00  0.0000E+00  0.0000E+00  0.0000E+00  0.0000E+00  0.0000E+00  0.0000E+00  0.0000E+00  0.0000E+00  0.0000E+00  0.0000E+00  0.0000E+00  0.0000E+00  0.0000E+00  0.0000E+00  0.0000E+00  0.0000E+00  0.0000E+00  0.0000E+00  0.0000E+00  0.0000E+00
    -58.852  0.0000E+00  0.0000E+00  0.0000E+00  0.0000E+00  0.0000E+00  0.0000E+00  0.0000E+00  0.0000E+00  0.0000E+00  0.0000E+00  0.0000E+00  0.0000E+00  0.0000E+00  0.0000E+00  0.0000E+00  0.0000E+00  0.0000E+00  0.0000E+00  0.0000E+00  0.0000E+00  0.0000E+00  0.0000E+00  0.0000E+00  0.0000E+00  0.0000E+00  0.0000E+00  0.0000E+00  0.0000E+00  0.0000E+00  0.0000E+00  0.0000E+00  0.0000E+00
    -58.593  0.0000E+00  0.0000E+00  0.0000E+00  0.0000E+00  0.0000E+00  0.0000E+00  0.0000E+00  0.0000E+00  0.0000E+00  0.0000E+00  0.0000E+00  0.0000E+00  0.0000E+00  0.0000E+00  0.0000E+00  0.0000E+00  0.0000E+00  0.0000E+00  0.0000E+00  0.0000E+00  0.0000E+00  0.0000E+00  0.0000E+00  0.0000E+00  0.0000E+00  0.0000E+00  0.0000E+00  0.0000E+00  0.0000E+00  0.0000E+00  0.0000E+00  0.0000E+00
    -58.335  0.0000E+00  0.0000E+00  0.0000E+00  0.0000E+00  0.0000E+00  0.0000E+00  0.0000E+00  0.0000E+00  0.0000E+00  0.0000E+00  0.0000E+00  0.0000E+00  0.0000E+00  0.0000E+00  0.0000E+00  0.0000E+00  0.0000E+00  0.0000E+00  0.0000E+00  0.0000E+00  0.0000E+00  0.0000E+00  0.0000E+00  0.0000E+00  0.0000E+00  0.0000E+00  0.0000E+00  0.0000E+00  0.0000E+00  0.0000E+00  0.0000E+00  0.0000E+00
    -58.076  0.0000E+00  0.0000E+00  0.0000E+00  0.0000E+00  0.0000E+00  0.0000E+00  0.0000E+00  0.0000E+00  0.0000E+00  0.0000E+00  0.0000E+00  0.0000E+00  0.0000E+00  0.0000E+00  0.0000E+00  0.0000E+00  0.0000E+00  0.0000E+00  0.0000E+00  0.0000E+00  0.0000E+00  0.0000E+00  0.0000E+00  0.0000E+00  0.0000E+00  0.0000E+00  0.0000E+00  0.0000E+00  0.0000E+00  0.0000E+00  0.0000E+00  0.0000E+00
    -57.817  0.0000E+00  0.0000E+00  0.0000E+00  0.0000E+00  0.0000E+00  0.0000E+00  0.0000E+00  0.0000E+00  0.0000E+00  0.0000E+00  0.0000E+00  0.0000E+00  0.0000E+00  0.0000E+00  0.0000E+00  0.0000E+00  0.0000E+00  0.0000E+00  0.0000E+00  0.0000E+00  0.0000E+00  0.0000E+00  0.0000E+00  0.0000E+00  0.0000E+00  0.0000E+00  0.0000E+00  0.0000E+00  0.0000E+00  0.0000E+00  0.0000E+00  0.0000E+00
    -57.559  0.0000E+00  0.0000E+00  0.0000E+00  0.0000E+00  0.0000E+00  0.0000E+00  0.0000E+00  0.0000E+00  0.0000E+00  0.0000E+00  0.0000E+00  0.0000E+00  0.0000E+00  0.0000E+00  0.0000E+00  0.0000E+00  0.0000E+00  0.0000E+00  0.0000E+00  0.0000E+00  0.0000E+00  0.0000E+00  0.0000E+00  0.0000E+00  0.0000E+00  0.0000E+00  0.0000E+00  0.0000E+00  0.0000E+00  0.0000E+00  0.0000E+00  0.0000E+00
    -57.300  0.4802E-06  0.0000E+00  0.2237E-06  0.0000E+00  0.1818E-06  0.0000E+00  0.2237E-06  0.0000E+00  0.5306E-06  0.0000E+00  0.4358E-06  0.0000E+00  0.2007E-07  0.0000E+00  0.4358E-06  0.0000E+00  0.1826E-07  0.0000E+00  0.6762E-07  0.0000E+00  0.3015E-06  0.0000E+00  0.2081E-07  0.0000E+00  0.1186E-06  0.0000E+00  0.2081E-07  0.0000E+00  0.1371E-07  0.0000E+00  0.6762E-07  0.0000E+00
    -57.042  0.0000E+00  0.0000E+00  0.0000E+00  0.0000E+00  0.0000E+00  0.0000E+00  0.0000E+00  0.0000E+00  0.0000E+00  0.0000E+00  0.0000E+00  0.0000E+00  0.0000E+00  0.0000E+00  0.0000E+00  0.0000E+00  0.0000E+00  0.0000E+00  0.0000E+00  0.0000E+00  0.0000E+00  0.0000E+00  0.0000E+00  0.0000E+00  0.0000E+00  0.0000E+00  0.0000E+00  0.0000E+00  0.0000E+00  0.0000E+00  0.0000E+00  0.0000E+00
    -56.783  0.0000E+00  0.0000E+00  0.0000E+00  0.0000E+00  0.0000E+00  0.0000E+00  0.0000E+00  0.0000E+00  0.0000E+00  0.0000E+00  0.0000E+00  0.0000E+00  0.0000E+00  0.0000E+00  0.0000E+00  0.0000E+00  0.0000E+00  0.0000E+00  0.0000E+00  0.0000E+00  0.0000E+00  0.0000E+00  0.0000E+00  0.0000E+00  0.0000E+00  0.0000E+00  0.0000E+00  0.0000E+00  0.0000E+00  0.0000E+00  0.0000E+00  0.0000E+00
    -56.524  0.0000E+00  0.0000E+00  0.0000E+00  0.0000E+00  0.0000E+00  0.0000E+00  0.0000E+00  0.0000E+00  0.0000E+00  0.0000E+00  0.0000E+00  0.0000E+00  0.0000E+00  0.0000E+00  0.0000E+00  0.0000E+00  0.0000E+00  0.0000E+00  0.0000E+00  0.0000E+00  0.0000E+00  0.0000E+00  0.0000E+00  0.0000E+00  0.0000E+00  0.0000E+00  0.0000E+00  0.0000E+00  0.0000E+00  0.0000E+00  0.0000E+00  0.0000E+00
    -56.266  0.0000E+00  0.0000E+00  0.0000E+00  0.0000E+00  0.0000E+00  0.0000E+00  0.0000E+00  0.0000E+00  0.0000E+00  0.0000E+00  0.0000E+00  0.0000E+00  0.0000E+00  0.0000E+00  0.0000E+00  0.0000E+00  0.0000E+00  0.0000E+00  0.0000E+00  0.0000E+00  0.0000E+00  0.0000E+00  0.0000E+00  0.0000E+00  0.0000E+00  0.0000E+00  0.0000E+00  0.0000E+00  0.0000E+00  0.0000E+00  0.0000E+00  0.0000E+00
    -56.007  0.0000E+00  0.0000E+00  0.0000E+00  0.0000E+00  0.0000E+00  0.0000E+00  0.0000E+00  0.0000E+00  0.0000E+00  0.0000E+00  0.0000E+00  0.0000E+00  0.0000E+00  0.0000E+00  0.0000E+00  0.0000E+00  0.0000E+00  0.0000E+00  0.0000E+00  0.0000E+00  0.0000E+00  0.0000E+00  0.0000E+00  0.0000E+00  0.0000E+00  0.0000E+00  0.0000E+00  0.0000E+00  0.0000E+00  0.0000E+00  0.0000E+00  0.0000E+00
    -55.749  0.0000E+00  0.0000E+00  0.0000E+00  0.0000E+00  0.0000E+00  0.0000E+00  0.0000E+00  0.0000E+00  0.0000E+00  0.0000E+00  0.0000E+00  0.0000E+00  0.0000E+00  0.0000E+00  0.0000E+00  0.0000E+00  0.0000E+00  0.0000E+00  0.0000E+00  0.0000E+00  0.0000E+00  0.0000E+00  0.0000E+00  0.0000E+00  0.0000E+00  0.0000E+00  0.0000E+00  0.0000E+00  0.0000E+00  0.0000E+00  0.0000E+00  0.0000E+00
    -55.490  0.0000E+00  0.0000E+00  0.0000E+00  0.0000E+00  0.0000E+00  0.0000E+00  0.0000E+00  0.0000E+00  0.0000E+00  0.0000E+00  0.0000E+00  0.0000E+00  0.0000E+00  0.0000E+00  0.0000E+00  0.0000E+00  0.0000E+00  0.0000E+00  0.0000E+00  0.0000E+00  0.0000E+00  0.0000E+00  0.0000E+00  0.0000E+00  0.0000E+00  0.0000E+00  0.0000E+00  0.0000E+00  0.0000E+00  0.0000E+00  0.0000E+00  0.0000E+00
    -55.231  0.0000E+00  0.0000E+00  0.0000E+00  0.0000E+00  0.0000E+00  0.0000E+00  0.0000E+00  0.0000E+00  0.0000E+00  0.0000E+00  0.0000E+00  0.0000E+00  0.0000E+00  0.0000E+00  0.0000E+00  0.0000E+00  0.0000E+00  0.0000E+00  0.0000E+00  0.0000E+00  0.0000E+00  0.0000E+00  0.0000E+00  0.0000E+00  0.0000E+00  0.0000E+00  0.0000E+00  0.0000E+00  0.0000E+00  0.0000E+00  0.0000E+00  0.0000E+00
    -54.973  0.0000E+00  0.6396E-06  0.0000E+00  0.2964E-06  0.0000E+00  0.2420E-06  0.0000E+00  0.2964E-06  0.0000E+00  0.6347E-06  0.0000E+00  0.5250E-06  0.0000E+00  0.2437E-07  0.0000E+00  0.5250E-06  0.0000E+00  0.2312E-07  0.0000E+00  0.8276E-07  0.0000E+00  0.3699E-06  0.0000E+00  0.2518E-07  0.0000E+00  0.1301E-06  0.0000E+00  0.2518E-07  0.0000E+00  0.1382E-07  0.0000E+00  0.8276E-07
    -54.714  0.0000E+00  0.0000E+00  0.0000E+00  0.0000E+00  0.0000E+00  0.0000E+00  0.0000E+00  0.0000E+00  0.0000E+00  0.0000E+00  0.0000E+00  0.0000E+00  0.0000E+00  0.0000E+00  0.0000E+00  0.0000E+00  0.0000E+00  0.0000E+00  0.0000E+00  0.0000E+00  0.0000E+00  0.0000E+00  0.0000E+00  0.0000E+00  0.0000E+00  0.0000E+00  0.0000E+00  0.0000E+00  0.0000E+00  0.0000E+00  0.0000E+00  0.0000E+00
    -54.455  0.0000E+00  0.0000E+00  0.0000E+00  0.0000E+00  0.0000E+00  0.0000E+00  0.0000E+00  0.0000E+00  0.0000E+00  0.0000E+00  0.0000E+00  0.0000E+00  0.0000E+00  0.0000E+00  0.0000E+00  0.0000E+00  0.0000E+00  0.0000E+00  0.0000E+00  0.0000E+00  0.0000E+00  0.0000E+00  0.0000E+00  0.0000E+00  0.0000E+00  0.0000E+00  0.0000E+00  0.0000E+00  0.0000E+00  0.0000E+00  0.0000E+00  0.0000E+00
    -54.197  0.0000E+00  0.0000E+00  0.0000E+00  0.0000E+00  0.0000E+00  0.0000E+00  0.0000E+00  0.0000E+00  0.0000E+00  0.0000E+00  0.0000E+00  0.0000E+00  0.0000E+00  0.0000E+00  0.0000E+00  0.0000E+00  0.0000E+00  0.0000E+00  0.0000E+00  0.0000E+00  0.0000E+00  0.0000E+00  0.0000E+00  0.0000E+00  0.0000E+00  0.0000E+00  0.0000E+00  0.0000E+00  0.0000E+00  0.0000E+00  0.0000E+00  0.0000E+00
    -53.938  0.0000E+00  0.0000E+00  0.0000E+00  0.0000E+00  0.0000E+00  0.0000E+00  0.0000E+00  0.0000E+00  0.0000E+00  0.0000E+00  0.0000E+00  0.0000E+00  0.0000E+00  0.0000E+00  0.0000E+00  0.0000E+00  0.0000E+00  0.0000E+00  0.0000E+00  0.0000E+00  0.0000E+00  0.0000E+00  0.0000E+00  0.0000E+00  0.0000E+00  0.0000E+00  0.0000E+00  0.0000E+00  0.0000E+00  0.0000E+00  0.0000E+00  0.0000E+00
    -53.680  0.0000E+00  0.0000E+00  0.0000E+00  0.0000E+00  0.0000E+00  0.0000E+00  0.0000E+00  0.0000E+00  0.0000E+00  0.0000E+00  0.0000E+00  0.0000E+00  0.0000E+00  0.0000E+00  0.0000E+00  0.0000E+00  0.0000E+00  0.0000E+00  0.0000E+00  0.0000E+00  0.0000E+00  0.0000E+00  0.0000E+00  0.0000E+00  0.0000E+00  0.0000E+00  0.0000E+00  0.0000E+00  0.0000E+00  0.0000E+00  0.0000E+00  0.0000E+00