    8    8    1    1
  0.2056806E+02  0.5479754E-09  0.5479754E-09  0.5479754E-09  0.5000000E-15
   1.0000000000000000E-004
  CAR 
 unknown system                          
     32     10     24

  0.1262379E-14  0.1262379E-14  0.1262379E-14  0.8000000E-02
    1       -6.217290   1.000000
    2       -2.170508   1.000000
    3       -2.170508   1.000000
    4       -2.170508   1.000000
    5       -2.170508   1.000000
    6       -2.170508   1.000000
    7       -2.170508   1.000000
    8        2.778272   1.000000
    9        2.778272   1.000000
   10        2.778272   1.000000
   11        2.778272   1.000000
   12        2.778272   1.000000
   13        2.778272   1.000000
   14        5.556726   0.870755
   15        5.556726   0.870755
   16        5.556726   0.870755
   17        6.319672  -0.000015
   18        6.319672  -0.000015
   19        6.319672  -0.000015
   20        6.319672  -0.000015
   21        6.319672  -0.000015
   22        6.319672  -0.000015
   23        8.110831  -0.000000
   24        8.110831  -0.000000

  0.2000000E+00  0.1262379E-14  0.1262379E-14  0.4800000E-01
    1       -6.046473   1.000000
    2       -3.568367   1.000000
    3       -2.121016   1.000000
    4       -2.121016   1.000000
    5       -2.121016   1.000000
    6       -2.121016   1.000000
    7       -0.569890   1.000000
    8        2.387163   1.000000
    9        2.387163   1.000000
   10        2.387163   1.000000
   11        2.387163   1.000000
   12        2.932437   1.000000
   13        2.932437   1.000000
   14        4.595364   1.000000
   15        4.999283   1.000017
   16        4.999283   1.000017
   17        6.184622  -0.000611
   18        6.916583  -0.000000
   19        7.149031  -0.000000
   20        7.149031  -0.000000
   21        7.149031  -0.000000
   22        7.149031  -0.000000
   23        7.741174  -0.000000
   24        8.878137  -0.000000

  0.4000000E+00  0.1262379E-14  0.1262379E-14  0.4800000E-01
    1       -5.537828   1.000000
    2       -4.703900   1.000000
    3       -2.034257   1.000000
    4       -2.034257   1.000000
    5       -2.034257   1.000000
    6       -2.034257   1.000000
    7        1.154810   1.000000
    8        1.894915   1.000000
    9        1.894915   1.000000
   10        1.894915   1.000000
   11        1.894915   1.000000
   12        2.917859   1.000000
   13        3.387223   1.000000
   14        3.387223   1.000000
   15        4.111497   1.000000
   16        4.111497   1.000000
   17        6.453448  -0.000000
   18        7.036416  -0.000000
   19        7.998330  -0.000000
   20        8.979988  -0.000000
   21        8.979988  -0.000000
   22        8.979988  -0.000000
   23        8.979988  -0.000000
   24        9.397176  -0.000000

  0.2000000E+00  0.2000000E+00  0.1262379E-14  0.9600000E-01
    1       -5.877846   1.000000
    2       -3.454385   1.000000
    3       -3.454385   1.000000
    4       -2.401415   1.000000
    5       -1.798810   1.000000
    6       -0.655007   1.000000
    7       -0.655007   1.000000
    8        1.613675   1.000000
    9        2.427567   1.000000
   10        2.427567   1.000000
   11        2.747205   1.000000
   12        2.747205   1.000000
   13        3.047519   1.000000
   14        3.529923   1.000000
   15        4.433581   1.000000
   16        5.381622   1.032589
   17        6.629697  -0.000000
   18        7.064640  -0.000000
   19        7.064640  -0.000000
   20        7.658688  -0.000000
   21        7.658688  -0.000000
   22        8.445294  -0.000000
   23        8.463167  -0.000000
   24        8.639200  -0.000000

  0.4000000E+00  0.2000000E+00  0.1262379E-14  0.1920000E+00
    1       -5.376669   1.000000
    2       -4.558479   1.000000
    3       -3.145540   1.000000
    4       -2.748117   1.000000
    5       -1.381501   1.000000
    6       -0.945320   1.000000
    7        0.811715   1.000000
    8        1.349329   1.000000
    9        1.692557   1.000000
   10        2.197490   1.000000
   11        2.653955   1.000000
   12        2.827857   1.000000
   13        2.920274   1.000000
   14        3.527812   1.000000
   15        3.536901   1.000000
   16        4.605484   1.000000
   17        7.345385  -0.000000
   18        7.733750  -0.000000
   19        7.900058  -0.000000
   20        8.623840  -0.000000
   21        8.935034  -0.000000
   22        9.180009  -0.000000
   23        9.338776  -0.000000
   24        9.911917  -0.000000

  0.4000000E+00  0.4000000E+00  0.1262379E-14  0.9600000E-01
    1       -4.900975   1.000000
    2       -4.137728   1.000000
    3       -4.137728   1.000000
    4       -3.496546   1.000000
    5       -0.692401   1.000000
    6        0.077695   1.000000
    7        0.077695   1.000000
    8        1.117288   1.000000
    9        1.414918   1.000000
   10        1.976080   1.000000
   11        1.976080   1.000000
   12        2.641750   1.000000
   13        3.787262   1.000000
   14        3.815442   1.000000
   15        3.815442   1.000000
   16        4.729454   1.000000
   17        7.477288  -0.000000
   18        8.393920  -0.000000
   19        8.708389  -0.000000
   20        8.708389  -0.000000
   21        9.187699  -0.000000
   22        9.187699  -0.000000
   23        9.513318  -0.000000
   24        9.814241  -0.000000

  0.2000000E+00  0.2000000E+00  0.2000000E+00  0.6400000E-01
    1       -5.712013   1.000000
    2       -3.376902   1.000000
    3       -3.376902   1.000000
    4       -3.376902   1.000000
    5       -0.808681   1.000000
    6       -0.808681   1.000000
    7       -0.808681   1.000000
    8        1.975876   1.000000
    9        1.975876   1.000000
   10        1.975876   1.000000
   11        2.581362   1.000000
   12        3.192137   1.000000
   13        3.192137   1.000000
   14        3.192137   1.000000
   15        4.992292   1.000014
   16        4.992292   1.000014
   17        6.822601  -0.000000
   18        6.822601  -0.000000
   19        6.822601  -0.000000
   20        7.688403  -0.000000
   21        8.894991  -0.000000
   22        8.897731  -0.000000
   23        8.931101  -0.000000
   24        8.931101  -0.000000

  0.4000000E+00  0.2000000E+00  0.2000000E+00  0.1920000E+00
    1       -5.220700   1.000000
    2       -4.425243   1.000000
    3       -3.229588   1.000000
    4       -3.229588   1.000000
    5       -1.095919   1.000000
    6       -1.095919   1.000000
    7        0.304845   1.000000
    8        1.394780   1.000000
    9        1.821657   1.000000
   10        1.821657   1.000000
   11        2.992691   1.000000
   12        3.157371   1.000000
   13        3.157371   1.000000
   14        3.613472   1.000000
   15        4.262104   1.000000
   16        4.302972   1.000000
   17        7.346418  -0.000000
   18        7.894146  -0.000000
   19        7.904388  -0.000000
   20        7.904388  -0.000000
   21        8.883737  -0.000000
   22        9.620058  -0.000000
   23        9.813768  -0.000000
   24        9.887155  -0.000000

  0.4000000E+00  0.4000000E+00  0.2000000E+00  0.1920000E+00
    1       -4.764782   1.000000
    2       -4.055477   1.000000
    3       -4.055477   1.000000
    4       -3.571001   1.000000
    5       -1.043593   1.000000
    6       -0.501701   1.000000
    7       -0.501701   1.000000
    8        0.340602   1.000000
    9        2.204597   1.000000
   10        2.719936   1.000000
   11        2.719936   1.000000
   12        3.557052   1.000000
   13        3.885941   1.000000
   14        3.904268   1.000000
   15        3.904268   1.000000
   16        4.665284   1.000000
   17        7.614363  -0.000000
   18        7.887649  -0.000000
   19        8.269446  -0.000000
   20        8.269446  -0.000000
   21        8.832129  -0.000000
   22        8.832129  -0.000000
   23        9.163347  -0.000000
   24        9.242001  -0.000000

  0.4000000E+00  0.4000000E+00  0.4000000E+00  0.6400000E-01
    1       -4.387274   1.000000
    2       -3.898762   1.000000
    3       -3.898762   1.000000
    4       -3.898762   1.000000
    5       -1.147032   1.000000
    6       -1.147032   1.000000
    7       -1.147032   1.000000
    8       -0.608921   1.000000
    9        3.616784   1.000000
   10        3.616784   1.000000
   11        3.616784   1.000000
   12        4.145923   1.000000
   13        4.145923   1.000000
   14        4.145923   1.000000
   15        4.454298   1.000000
   16        4.454298   1.000000
   17        7.084464  -0.000000
   18        7.637403  -0.000000
   19        7.637403  -0.000000
   20        7.637403  -0.000000
   21        8.865865  -0.000000
   22        8.865866  -0.000000
   23        8.866713  -0.000000
   24        8.978070  -0.000000
