 vasp.6.2.1 16May21 (build Aug 15 2022 14:47:30) complex                         
 executed on             LinuxGNU date 2025.12.04  19:33:00
 running on   48 total cores
 distrk:  each k-point on   48 cores,    1 groups
 distr:  one band on NCORE=   1 cores,   48 groups


--------------------------------------------------------------------------------------------------------


 INCAR:
   ALGO = Fast
   EDIFF = 0.00035
   ENCUT = 520.0
   ISMEAR = -5
   ISPIN = 2
   LASPH = True
   LCHARG = True
   LDAU = True
   LDAUJ = 0 0 0
   LDAUL = 0 2 0
   LDAUPRINT = 1
   LDAUTYPE = 2
   LDAUU = 0 6.2 0
   LMAXMIX = 6
   LORBIT = 11
   LREAL = False
   LWAVE = False
   MAGMOM = 2*0.6 1*5.0 4*0.6
   NELM = 100
   NSW = 0
   PREC = Accurate
   SIGMA = 0.05

 POTCAR:    PAW_PBE La 06Sep2000                  
 POTCAR:    PAW_PBE Ni_pv 06Sep2000               
 POTCAR:    PAW_PBE O 08Apr2002                   
 -----------------------------------------------------------------------------
|                                                                             |
|           W    W    AA    RRRRR   N    N  II  N    N   GGGG   !!!           |
|           W    W   A  A   R    R  NN   N  II  NN   N  G    G  !!!           |
|           W    W  A    A  R    R  N N  N  II  N N  N  G       !!!           |
|           W WW W  AAAAAA  RRRRR   N  N N  II  N  N N  G  GGG   !            |
|           WW  WW  A    A  R   R   N   NN  II  N   NN  G    G                |
|           W    W  A    A  R    R  N    N  II  N    N   GGGG   !!!           |
|                                                                             |
|     For optimal performance we recommend to set                             |
|       NCORE = 2 up to number-of-cores-per-socket                            |
|     NCORE specifies how many cores store one orbital (NPAR=cpu/NCORE).      |
|     This setting can greatly improve the performance of VASP for DFT.       |
|     The default, NCORE=1 might be grossly inefficient on modern             |
|     multi-core architectures or massively parallel machines. Do your        |
|     own testing! More info at https://www.vasp.at/wiki/index.php/NCORE      |
|     Unfortunately you need to use the default for GW and RPA                |
|     calculations (for HF NCORE is supported but not extensively tested      |
|     yet).                                                                   |
|                                                                             |
 -----------------------------------------------------------------------------

 POTCAR:    PAW_PBE La 06Sep2000                  
   VRHFIN =La : [core=Kr4d]                                                                         
   LEXCH  = PE                                                                                      
   EATOM  =   865.9763 eV,   63.6475 Ry                                                             
                                                                                                    
   TITEL  = PAW_PBE La 06Sep2000                                                                    
   LULTRA =        F    use ultrasoft PP ?                                                          
   IUNSCR =        1    unscreen: 0-lin 1-nonlin 2-no                                               
   RPACOR =    2.300    partial core radius                                                         
   POMASS =  138.900; ZVAL   =   11.000    mass and valenz                                          
   RCORE  =    2.800    outmost cutoff radius                                                       
   RWIGS  =    2.900; RWIGS  =    1.535    wigner-seitz radius (au A)                               
   ENMAX  =  219.292; ENMIN  =  164.469 eV                                                          
   RCLOC  =    1.601    cutoff for local pot                                                        
   LCOR   =        T    correct aug charges                                                         
   LPAW   =        T    paw PP                                                                      
   EAUG   =  583.575                                                                                
   DEXC   =    0.000                                                                                
   RMAX   =    2.853    core radius for proj-oper                                                   
   RAUG   =    1.300    factor for augmentation sphere                                              
   RDEP   =    2.802    radius for radial grids                                                     
   RDEPT  =    2.156    core radius for aug-charge                                                  
                                                                                                    
   Atomic configuration                                                                             
   14 entries                                                                                       
     n  l   j            E        occ.                                                              
     1  0  0.50    -38741.0879   2.0000                                                             
     2  0  0.50     -6166.6801   2.0000                                                             
     2  1  1.50     -5526.1593   6.0000                                                             
     3  0  0.50     -1319.0200   2.0000                                                             
     3  1  1.50     -1114.5963   6.0000                                                             
     3  2  2.50      -821.1793  10.0000                                                             
     4  0  0.50      -266.3851   2.0000                                                             
     4  1  1.50      -199.9276   6.0000                                                             
     4  2  2.50      -103.8239  10.0000                                                             
     5  0  0.50       -38.9172   2.0000                                                             
     6  0  0.50        -3.6792   2.0000                                                             
     5  1  1.50       -22.3948   6.0000                                                             
     5  2  2.50        -3.0911   0.9999                                                             
     4  3  2.50        -4.3603   0.0001                                                             
   Description                                                                                      
     l       E           TYP  RCUT    TYP  RCUT                                                     
     0    -38.9171645     23  2.800                                                                 
     0     -3.6792381     23  2.800                                                                 
     1    -22.3948300     23  2.500                                                                 
     1     27.2116520     23  2.500                                                                 
     2     -3.0910934     23  2.500                                                                 
     2      1.0119135     23  2.500                                                                 
     3     -4.3602911     23  2.800                                                                 
     3     -5.7208737     23  2.800                                                                 
  local pseudopotential read in
  partial core-charges read in
  partial kinetic energy density read in
  atomic valenz-charges read in
  non local Contribution for L=           0  read in
    real space projection operators read in
  non local Contribution for L=           0  read in
    real space projection operators read in
  non local Contribution for L=           1  read in
    real space projection operators read in
  non local Contribution for L=           1  read in
    real space projection operators read in
  non local Contribution for L=           2  read in
    real space projection operators read in
  non local Contribution for L=           2  read in
    real space projection operators read in
  non local Contribution for L=           3  read in
    real space projection operators read in
  non local Contribution for L=           3  read in
    real space projection operators read in
    PAW grid and wavefunctions read in

   number of l-projection  operators is LMAX  =           8
   number of lm-projection operators is LMMAX =          32

 POTCAR:    PAW_PBE Ni_pv 06Sep2000               
   VRHFIN =Ni:                                                                                      
   LEXCH  = PE                                                                                      
   EATOM  =  3501.1230 eV,  257.3253 Ry                                                             
                                                                                                    
   TITEL  = PAW_PBE Ni_pv 06Sep2000                                                                 
   LULTRA =        F    use ultrasoft PP ?                                                          
   IUNSCR =        1    unscreen: 0-lin 1-nonlin 2-no                                               
   RPACOR =    1.500    partial core radius                                                         
   POMASS =   58.690; ZVAL   =   16.000    mass and valenz                                          
   RCORE  =    2.000    outmost cutoff radius                                                       
   RWIGS  =    2.000; RWIGS  =    1.058    wigner-seitz radius (au A)                               
   ENMAX  =  367.986; ENMIN  =  275.989 eV                                                          
   RCLOC  =    1.301    cutoff for local pot                                                        
   LCOR   =        T    correct aug charges                                                         
   LPAW   =        T    paw PP                                                                      
   EAUG   =  703.443                                                                                
   DEXC   =    0.000                                                                                
   RMAX   =    2.041    core radius for proj-oper                                                   
   RAUG   =    1.300    factor for augmentation sphere                                              
   RDEP   =    2.103    radius for radial grids                                                     
   RDEPT  =    1.618    core radius for aug-charge                                                  
                                                                                                    
   Atomic configuration                                                                             
    8 entries                                                                                       
     n  l   j            E        occ.                                                              
     1  0  0.50     -8206.4253   2.0000                                                             
     2  0  0.50      -976.1748   2.0000                                                             
     2  1  1.50      -839.0571   6.0000                                                             
     3  0  0.50      -105.9991   2.0000                                                             
     3  1  1.50       -66.4603   6.0000                                                             
     3  2  2.50        -4.6458   9.0000                                                             
     4  0  0.50        -4.4926   1.0000                                                             
     4  3  2.50        -1.3606   0.0000                                                             
   Description                                                                                      
     l       E           TYP  RCUT    TYP  RCUT                                                     
     1    -66.4602962     23  1.700                                                                 
     1     -1.3605826     23  1.700                                                                 
     2     -4.6457867     23  2.000                                                                 
     2     -6.0063693     23  2.000                                                                 
     0     -4.4925576     23  1.900                                                                 
     0     16.3626226     23  1.900                                                                 
  local pseudopotential read in
  partial core-charges read in
  partial kinetic energy density read in
  atomic valenz-charges read in
  non local Contribution for L=           1  read in
    real space projection operators read in
  non local Contribution for L=           1  read in
    real space projection operators read in
  non local Contribution for L=           2  read in
    real space projection operators read in
  non local Contribution for L=           2  read in
    real space projection operators read in
  non local Contribution for L=           0  read in
    real space projection operators read in
  non local Contribution for L=           0  read in
    real space projection operators read in
    PAW grid and wavefunctions read in

   number of l-projection  operators is LMAX  =           6
   number of lm-projection operators is LMMAX =          18

 POTCAR:    PAW_PBE O 08Apr2002                   
   VRHFIN =O: s2p4                                                                                  
   LEXCH  = PE                                                                                      
   EATOM  =   432.3788 eV,   31.7789 Ry                                                             
                                                                                                    
   TITEL  = PAW_PBE O 08Apr2002                                                                     
   LULTRA =        F    use ultrasoft PP ?                                                          
   IUNSCR =        1    unscreen: 0-lin 1-nonlin 2-no                                               
   RPACOR =    1.200    partial core radius                                                         
   POMASS =   16.000; ZVAL   =    6.000    mass and valenz                                          
   RCORE  =    1.520    outmost cutoff radius                                                       
   RWIGS  =    1.550; RWIGS  =    0.820    wigner-seitz radius (au A)                               
   ENMAX  =  400.000; ENMIN  =  300.000 eV                                                          
   ICORE  =        2    local potential                                                             
   LCOR   =        T    correct aug charges                                                         
   LPAW   =        T    paw PP                                                                      
   EAUG   =  605.392                                                                                
   DEXC   =    0.000                                                                                
   RMAX   =    1.553    core radius for proj-oper                                                   
   RAUG   =    1.300    factor for augmentation sphere                                              
   RDEP   =    1.550    radius for radial grids                                                     
   RDEPT  =    1.329    core radius for aug-charge                                                  
                                                                                                    
   Atomic configuration                                                                             
    4 entries                                                                                       
     n  l   j            E        occ.                                                              
     1  0  0.50      -514.6923   2.0000                                                             
     2  0  0.50       -23.9615   2.0000                                                             
     2  1  0.50        -9.0305   4.0000                                                             
     3  2  1.50        -9.5241   0.0000                                                             
   Description                                                                                      
     l       E           TYP  RCUT    TYP  RCUT                                                     
     0    -23.9615318     23  1.200                                                                 
     0     -9.5240782     23  1.200                                                                 
     1     -9.0304911     23  1.520                                                                 
     1      8.1634956     23  1.520                                                                 
     2     -9.5240782      7  1.500                                                                 
  local pseudopotential read in
  partial core-charges read in
  partial kinetic energy density read in
  kinetic energy density of atom read in
  atomic valenz-charges read in
  non local Contribution for L=           0  read in
    real space projection operators read in
  non local Contribution for L=           0  read in
    real space projection operators read in
  non local Contribution for L=           1  read in
    real space projection operators read in
  non local Contribution for L=           1  read in
    real space projection operators read in
    PAW grid and wavefunctions read in

   number of l-projection  operators is LMAX  =           4
   number of lm-projection operators is LMMAX =           8

  PAW_PBE La 06Sep2000                  :
 energy of atom  1       EATOM= -865.9763
 kinetic energy error for atom=    0.0009 (will be added to EATOM!!)
  PAW_PBE Ni_pv 06Sep2000               :
 energy of atom  2       EATOM=-3501.1230
 kinetic energy error for atom=    0.0575 (will be added to EATOM!!)
  PAW_PBE O 08Apr2002                   :
 energy of atom  3       EATOM= -432.3788
 kinetic energy error for atom=    0.0208 (will be added to EATOM!!)


 POSCAR: # Generated by Masgent for EOS calculati
  positions in direct lattice
  No initial velocities read in
 exchange correlation table for  LEXCH =        8
   RHO(1)=    0.500       N(1)  =     2000
   RHO(2)=  100.500       N(2)  =     4000

 VTST: version 4.2, (08/11/21)

 CHAIN: initializing optimizer
 
 OPT: Using VASP Dynamics algorithm
 CHAIN: Read ICHAIN            0

 POSCAR: # Generated by Masgent for EOS calculati
  positions in direct lattice
  No initial velocities read in



--------------------------------------------------------------------------------------------------------


 ion  position               nearest neighbor table
   1  0.363  0.363  0.727-   4 2.33   6 2.62   7 2.62   6 2.62   7 2.62   2 3.44
   2  0.637  0.637  0.273-   5 2.33   6 2.62   7 2.62   6 2.62   7 2.62   1 3.44
   3  0.000  0.000  0.000-   6 1.98   7 1.98   7 1.98   6 1.98
   4  0.179  0.179  0.358-   1 2.33
   5  0.821  0.821  0.642-   2 2.33
   6  0.500  0.000  0.000-   3 1.98   3 1.98   1 2.62   2 2.62   1 2.62   2 2.62
   7  0.000  0.500  0.000-   3 1.98   3 1.98   1 2.62   2 2.62   2 2.62   1 2.62

  LATTYP: Found a body centered tetragonal cell.
 ALAT       =     3.9500781084
 C/A-ratio  =     3.1906429261
  
  Lattice vectors:
  
 A1 = (   1.9750390542,  -1.9750390542,  -6.3016443870)
 A2 = (  -1.9750390542,   1.9750390542,  -6.3016443870)
 A3 = (   1.9750390542,   1.9750390542,   6.3016443870)


Analysis of symmetry for initial positions (statically):
=====================================================================
 Subroutine PRICEL returns:
 Original cell was already a primitive cell.
 

 Routine SETGRP: Setting up the symmetry group for a 
 body centered tetragonal supercell.


 Subroutine GETGRP returns: Found 16 space group operations
 (whereof 16 operations were pure point group operations)
 out of a pool of 16 trial point group operations.


The static configuration has the point symmetry D_4h.


Analysis of symmetry for dynamics (positions and initial velocities):
=====================================================================
 Subroutine PRICEL returns:
 Original cell was already a primitive cell.
 

 Routine SETGRP: Setting up the symmetry group for a 
 body centered tetragonal supercell.


 Subroutine GETGRP returns: Found 16 space group operations
 (whereof 16 operations were pure point group operations)
 out of a pool of 16 trial point group operations.


The dynamic configuration has the point symmetry D_4h.


Analysis of structural, dynamic, and magnetic symmetry:
=====================================================================
 Subroutine PRICEL returns:
 Original cell was already a primitive cell.
 

 Routine SETGRP: Setting up the symmetry group for a 
 body centered tetragonal supercell.


 Subroutine GETGRP returns: Found 16 space group operations
 (whereof 16 operations were pure point group operations)
 out of a pool of 16 trial point group operations.


The overall configuration has the point symmetry D_4h.


 Subroutine INISYM returns: Found 16 space group operations
 (whereof 16 operations are pure point group operations),
 and found     1 'primitive' translations


----------------------------------------------------------------------------------------

                                     Primitive cell                                     

  volume of cell :      98.3253

  direct lattice vectors                    reciprocal lattice vectors
     3.950078108  0.000000000  0.000000000     0.253159551 -0.000000000  0.079344369
     0.000000000  3.950078108  0.000000000    -0.000000000  0.253159551  0.079344369
    -1.975039054 -1.975039054  6.301644387     0.000000000  0.000000000  0.158688739

  length of vectors
     3.950078108  3.950078108  6.892915240     0.265302256  0.265302256  0.158688739

  position of ions in fractional coordinates (direct lattice)
     0.363473000  0.363473000  0.726946000
     0.636527000  0.636527000  0.273054000
     0.000000000  0.000000000  0.000000000
     0.178993000  0.178993000  0.357986000
     0.821007000  0.821007000  0.642014000
     0.500000000  0.000000000  0.000000000
     0.000000000  0.500000000  0.000000000

  ion indices of the primitive-cell ions
   primitive index   ion index
                 1           1
                 2           2
                 3           3
                 4           4
                 5           5
                 6           6
                 7           7

----------------------------------------------------------------------------------------



 KPOINTS: # Generated by Masgent for EOS calculati

Automatic generation of k-mesh.
 Grid dimensions read from file:
 generate k-points for:    7    7    4

 Generating k-lattice:

  Cartesian coordinates                     Fractional coordinates (reciprocal lattice)
     0.036165650 -0.000000000  0.011334910     0.142857143  0.000000000  0.000000000
    -0.000000000  0.036165650  0.011334910     0.000000000  0.142857143  0.000000000
     0.000000000  0.000000000  0.039672185     0.000000000  0.000000000  0.250000000

  Length of vectors
     0.037900322  0.037900322  0.039672185

  Shift w.r.t. Gamma in fractional coordinates (k-lattice)
     0.000000000  0.000000000  0.000000000

 -----------------------------------------------------------------------------
|                                                                             |
|           W    W    AA    RRRRR   N    N  II  N    N   GGGG   !!!           |
|           W    W   A  A   R    R  NN   N  II  NN   N  G    G  !!!           |
|           W    W  A    A  R    R  N N  N  II  N N  N  G       !!!           |
|           W WW W  AAAAAA  RRRRR   N  N N  II  N  N N  G  GGG   !            |
|           WW  WW  A    A  R   R   N   NN  II  N   NN  G    G                |
|           W    W  A    A  R    R  N    N  II  N    N   GGGG   !!!           |
|                                                                             |
|     Your reciprocal lattice and k-lattice belong to different lattice       |
|     classes:                                                                |
|                                                                             |
|        The reciprocal lattice is body-centered tetragonal,                  |
|        whereas your k-lattice is base-centered monoclinic.                  |
|                                                                             |
|     Results are often still useful ...                                      |
|                                                                             |
 -----------------------------------------------------------------------------

 WARNING: IBZKPT: internal override: KBLOWUP is changed to .FALSE.
      ... skipping the blow-up phase ...

 TETIRR: Found    294 inequivalent tetrahedra from     1176
 
 Subroutine IBZKPT returns following result:
 ===========================================
 
 Found     60 irreducible k-points:
 
 Following reciprocal coordinates:
            Coordinates               Weight
  0.000000  0.000000  0.000000      1.000000
  0.142857  0.000000  0.000000      4.000000
  0.285714  0.000000  0.000000      4.000000
  0.428571  0.000000  0.000000      4.000000
  0.142857  0.142857  0.000000      2.000000
  0.285714  0.142857  0.000000      4.000000
  0.428571  0.142857  0.000000      4.000000
 -0.428571  0.142857  0.000000      4.000000
 -0.285714  0.142857  0.000000      4.000000
 -0.142857  0.142857  0.000000      2.000000
  0.285714  0.285714  0.000000      2.000000
  0.428571  0.285714  0.000000      4.000000
 -0.428571  0.285714  0.000000      4.000000
 -0.285714  0.285714  0.000000      2.000000
  0.428571  0.428571  0.000000      2.000000
 -0.428571  0.428571  0.000000      2.000000
  0.000000  0.000000  0.250000      2.000000
  0.142857  0.000000  0.250000      4.000000
  0.285714  0.000000  0.250000      4.000000
  0.428571  0.000000  0.250000      4.000000
 -0.428571  0.000000  0.250000      4.000000
 -0.285714  0.000000  0.250000      4.000000
 -0.142857  0.000000  0.250000      4.000000
  0.142857  0.142857  0.250000      2.000000
  0.285714  0.142857  0.250000      4.000000
  0.428571  0.142857  0.250000      4.000000
 -0.428571  0.142857  0.250000      4.000000
 -0.285714  0.142857  0.250000      4.000000
 -0.142857  0.142857  0.250000      4.000000
  0.285714  0.285714  0.250000      2.000000
  0.428571  0.285714  0.250000      4.000000
 -0.428571  0.285714  0.250000      4.000000
 -0.285714  0.285714  0.250000      4.000000
 -0.142857  0.285714  0.250000      4.000000
  0.428571  0.428571  0.250000      2.000000
 -0.428571  0.428571  0.250000      4.000000
 -0.285714  0.428571  0.250000      4.000000
 -0.142857  0.428571  0.250000      4.000000
 -0.428571 -0.428571  0.250000      2.000000
 -0.285714 -0.428571  0.250000      4.000000
 -0.142857 -0.428571  0.250000      4.000000
 -0.285714 -0.285714  0.250000      2.000000
 -0.142857 -0.285714  0.250000      4.000000
 -0.142857 -0.142857  0.250000      2.000000
  0.000000  0.000000  0.500000      1.000000
  0.142857  0.000000  0.500000      4.000000
  0.285714  0.000000  0.500000      4.000000
  0.428571  0.000000  0.500000      4.000000
  0.142857  0.142857  0.500000      2.000000
  0.285714  0.142857  0.500000      4.000000
  0.428571  0.142857  0.500000      4.000000
 -0.428571  0.142857  0.500000      4.000000
 -0.285714  0.142857  0.500000      4.000000
 -0.142857  0.142857  0.500000      2.000000
  0.285714  0.285714  0.500000      2.000000
  0.428571  0.285714  0.500000      4.000000
 -0.428571  0.285714  0.500000      4.000000
 -0.285714  0.285714  0.500000      2.000000
  0.428571  0.428571  0.500000      2.000000
 -0.428571  0.428571  0.500000      2.000000
 
 Following cartesian coordinates:
            Coordinates               Weight
  0.000000  0.000000  0.000000      1.000000
  0.036166  0.000000  0.011335      4.000000
  0.072331  0.000000  0.022670      4.000000
  0.108497  0.000000  0.034005      4.000000
  0.036166  0.036166  0.022670      2.000000
  0.072331  0.036166  0.034005      4.000000
  0.108497  0.036166  0.045340      4.000000
 -0.108497  0.036166 -0.022670      4.000000
 -0.072331  0.036166 -0.011335      4.000000
 -0.036166  0.036166  0.000000      2.000000
  0.072331  0.072331  0.045340      2.000000
  0.108497  0.072331  0.056675      4.000000
 -0.108497  0.072331 -0.011335      4.000000
 -0.072331  0.072331  0.000000      2.000000
  0.108497  0.108497  0.068009      2.000000
 -0.108497  0.108497  0.000000      2.000000
  0.000000  0.000000  0.039672      2.000000
  0.036166  0.000000  0.051007      4.000000
  0.072331  0.000000  0.062342      4.000000
  0.108497  0.000000  0.073677      4.000000
 -0.108497  0.000000  0.005667      4.000000
 -0.072331  0.000000  0.017002      4.000000
 -0.036166  0.000000  0.028337      4.000000
  0.036166  0.036166  0.062342      2.000000
  0.072331  0.036166  0.073677      4.000000
  0.108497  0.036166  0.085012      4.000000
 -0.108497  0.036166  0.017002      4.000000
 -0.072331  0.036166  0.028337      4.000000
 -0.036166  0.036166  0.039672      4.000000
  0.072331  0.072331  0.085012      2.000000
  0.108497  0.072331  0.096347      4.000000
 -0.108497  0.072331  0.028337      4.000000
 -0.072331  0.072331  0.039672      4.000000
 -0.036166  0.072331  0.051007      4.000000
  0.108497  0.108497  0.107682      2.000000
 -0.108497  0.108497  0.039672      4.000000
 -0.072331  0.108497  0.051007      4.000000
 -0.036166  0.108497  0.062342      4.000000
 -0.108497 -0.108497 -0.028337      2.000000
 -0.072331 -0.108497 -0.017002      4.000000
 -0.036166 -0.108497 -0.005667      4.000000
 -0.072331 -0.072331 -0.005667      2.000000
 -0.036166 -0.072331  0.005667      4.000000
 -0.036166 -0.036166  0.017002      2.000000
  0.000000  0.000000  0.079344      1.000000
  0.036166  0.000000  0.090679      4.000000
  0.072331  0.000000  0.102014      4.000000
  0.108497  0.000000  0.113349      4.000000
  0.036166  0.036166  0.102014      2.000000
  0.072331  0.036166  0.113349      4.000000
  0.108497  0.036166  0.124684      4.000000
 -0.108497  0.036166  0.056675      4.000000
 -0.072331  0.036166  0.068009      4.000000
 -0.036166  0.036166  0.079344      2.000000
  0.072331  0.072331  0.124684      2.000000
  0.108497  0.072331  0.136019      4.000000
 -0.108497  0.072331  0.068009      4.000000
 -0.072331  0.072331  0.079344      2.000000
  0.108497  0.108497  0.147354      2.000000
 -0.108497  0.108497  0.079344      2.000000
 


--------------------------------------------------------------------------------------------------------




 Dimension of arrays:
   k-points           NKPTS =     60   k-points in BZ     NKDIM =     60   number of bands    NBANDS=     48
   number of dos      NEDOS =    301   number of ions     NIONS =      7
   non local maximal  LDIM  =      8   non local SUM 2l+1 LMDIM =     32
   total plane-waves  NPLWV =  48600
   max r-space proj   IRMAX =      1   max aug-charges    IRDMAX=  26024
   dimension x,y,z NGX =    30 NGY =   30 NGZ =   54
   dimension x,y,z NGXF=    60 NGYF=   60 NGZF=  108
   support grid    NGXF=    60 NGYF=   60 NGZF=  108
   ions per type =               2   1   4
   NGX,Y,Z   is equivalent  to a cutoff of  12.63, 12.63, 13.02 a.u.
   NGXF,Y,Z  is equivalent  to a cutoff of  25.25, 25.25, 26.05 a.u.

 SYSTEM =  unknown system                          
 POSCAR =  # Generated by Masgent for EOS calculati

 Startparameter for this run:
   NWRITE =      2    write-flag & timer
   PREC   = accura    normal or accurate (medium, high low for compatibility)
   ISTART =      0    job   : 0-new  1-cont  2-samecut
   ICHARG =      2    charge: 1-file 2-atom 10-const
   ISPIN  =      2    spin polarized calculation?
   LNONCOLLINEAR =      F non collinear calculations
   LSORBIT =      F    spin-orbit coupling
   INIWAV =      1    electr: 0-lowe 1-rand  2-diag
   LASPH  =      T    aspherical Exc in radial PAW
 Electronic Relaxation 1
   ENCUT  =  520.0 eV  38.22 Ry    6.18 a.u.   7.34  7.34 12.82*2*pi/ulx,y,z
   ENINI  =  520.0     initial cutoff
   ENAUG  =  703.4 eV  augmentation charge cutoff
   NELM   =    100;   NELMIN=  2; NELMDL= -5     # of ELM steps 
   EDIFF  = 0.3E-03   stopping-criterion for ELM
   LREAL  =      F    real-space projection
   NLSPLINE    = F    spline interpolate recip. space projectors
   LCOMPAT=      F    compatible to vasp.4.4
   GGA_COMPAT  = T    GGA compatible to vasp.4.4-vasp.4.6
   LMAXPAW     = -100 max onsite density
   LMAXMIX     =    6 max onsite mixed and CHGCAR
   VOSKOWN=      0    Vosko Wilk Nusair interpolation
   ROPT   =    0.00000   0.00000   0.00000
 Ionic relaxation
   EDIFFG = 0.4E-02   stopping-criterion for IOM
   NSW    =      0    number of steps for IOM
   NBLOCK =      1;   KBLOCK =      1    inner block; outer block 
   IBRION =     -1    ionic relax: 0-MD 1-quasi-New 2-CG
   NFREE  =      0    steps in history (QN), initial steepest desc. (CG)
   ISIF   =      2    stress and relaxation
   IWAVPR =     10    prediction:  0-non 1-charg 2-wave 3-comb
   ISYM   =      2    0-nonsym 1-usesym 2-fastsym
   LCORR  =      T    Harris-Foulkes like correction to forces

   POTIM  = 0.5000    time-step for ionic-motion
   TEIN   =    0.0    initial temperature
   TEBEG  =    0.0;   TEEND  =   0.0 temperature during run
   SMASS  =  -3.00    Nose mass-parameter (am)
   estimated Nose-frequenzy (Omega)   =  0.10E-29 period in steps = 0.13E+47 mass=  -0.357E-27a.u.
   SCALEE = 1.0000    scale energy and forces
   NPACO  =    256;   APACO  = 16.0  distance and # of slots for P.C.
   PSTRESS=    0.0 pullay stress

  Mass of Ions in am
   POMASS = 138.90 58.69 16.00
  Ionic Valenz
   ZVAL   =  11.00 16.00  6.00
  Atomic Wigner-Seitz radii
   RWIGS  =  -1.00 -1.00 -1.00
  virtual crystal weights 
   VCA    =   1.00  1.00  1.00
   NELECT =      62.0000    total number of electrons
   NUPDOWN=      -1.0000    fix difference up-down

 DOS related values:
   EMIN   =  10.00;   EMAX   =-10.00  energy-range for DOS
   EFERMI =   0.00
   ISMEAR =    -5;   SIGMA  =   0.05  broadening in eV -4-tet -1-fermi 0-gaus

 Electronic relaxation 2 (details)
   IALGO  =     68    algorithm
   LDIAG  =      T    sub-space diagonalisation (order eigenvalues)
   LSUBROT=      F    optimize rotation matrix (better conditioning)
   TURBO    =      0    0=normal 1=particle mesh
   IRESTART =      0    0=no restart 2=restart with 2 vectors
   NREBOOT  =      0    no. of reboots
   NMIN     =      0    reboot dimension
   EREF     =   0.00    reference energy to select bands
   IMIX   =      4    mixing-type and parameters
     AMIX     =   0.40;   BMIX     =  1.00
     AMIX_MAG =   1.60;   BMIX_MAG =  1.00
     AMIN     =   0.10
     WC   =   100.;   INIMIX=   1;  MIXPRE=   1;  MAXMIX= -45

 Intra band minimization:
   WEIMIN = 0.0000     energy-eigenvalue tresh-hold
   EBREAK =  0.18E-05  absolut break condition
   DEPER  =   0.30     relativ break condition  

   TIME   =   0.40     timestep for ELM

  volume/ion in A,a.u.               =      14.05        94.79
  Fermi-wavevector in a.u.,A,eV,Ry     =   1.403838  2.652869 26.813831  1.970761
  Thomas-Fermi vector in A             =   2.526460

 Write flags
   LWAVE        =      F    write WAVECAR
   LDOWNSAMPLE  =      F    k-point downsampling of WAVECAR
   LCHARG       =      T    write CHGCAR
   LVTOT        =      F    write LOCPOT, total local potential
   LVHAR        =      F    write LOCPOT, Hartree potential only
   LELF         =      F    write electronic localiz. function (ELF)
   LORBIT       =     11    0 simple, 1 ext, 2 COOP (PROOUT), +10 PAW based schemes


 Dipole corrections
   LMONO  =      F    monopole corrections only (constant potential shift)
   LDIPOL =      F    correct potential (dipole corrections)
   IDIPOL =      0    1-x, 2-y, 3-z, 4-all directions 
   EPSILON=  1.0000000 bulk dielectric constant

 LDA+U is selected, type is set to LDAUTYPE =  2
   angular momentum for each species LDAUL =     0    2    0
   U (eV)           for each species LDAUU =   0.0  6.2  0.0
   J (eV)           for each species LDAUJ =   0.0  0.0  0.0
 Exchange correlation treatment:
   GGA     =    --    GGA type
   LEXCH   =     8    internal setting for exchange type
   VOSKOWN=      0    Vosko Wilk Nusair interpolation
   LHFCALC =     F    Hartree Fock is set to
   LHFONE  =     F    Hartree Fock one center treatment
   AEXX    =    0.0000 exact exchange contribution

 Linear response parameters
   LEPSILON=     F    determine dielectric tensor
   LRPA    =     F    only Hartree local field effects (RPA)
   LNABLA  =     F    use nabla operator in PAW spheres
   LVEL    =     F    velocity operator in full k-point grid
   LINTERFAST=   F  fast interpolation
   KINTER  =     0    interpolate to denser k-point grid
   CSHIFT  =0.1000    complex shift for real part using Kramers Kronig
   OMEGAMAX=  -1.0    maximum frequency
   DEG_THRESHOLD= 0.2000000E-02 threshold for treating states as degnerate
   RTIME   =   -0.100 relaxation time in fs
  (WPLASMAI=    0.000 imaginary part of plasma frequency in eV, 0.658/RTIME)
   DFIELD  = 0.0000000 0.0000000 0.0000000 field for delta impulse in time

 Orbital magnetization related:
   ORBITALMAG=     F  switch on orbital magnetization
   LCHIMAG   =     F  perturbation theory with respect to B field
   DQ        =  0.001000  dq finite difference perturbation B field
   LLRAUG    =     F  two centre corrections for induced B field



--------------------------------------------------------------------------------------------------------


 Static calculation
 charge density and potential will be updated during run
 spin polarized calculation
 RMM-DIIS sequential band-by-band and
  variant of blocked Davidson during initial phase
 perform sub-space diagonalisation
    before iterative eigenvector-optimisation
 modified Broyden-mixing scheme, WC =      100.0
 initial mixing is a Kerker type mixing with AMIX =  0.4000 and BMIX =      1.0000
 Hartree-type preconditioning will be used
 using additional bands           17
 reciprocal scheme for non local part
 use partial core corrections
 calculate Harris-corrections to forces   (improved forces if not selfconsistent)
 use gradient corrections 
 use of overlap-Matrix (Vanderbilt PP)
 Fermi weights with tetrahedron method with Bloechl corrections


--------------------------------------------------------------------------------------------------------


  energy-cutoff  :      520.00
  volume of cell :       98.33
      direct lattice vectors                 reciprocal lattice vectors
     3.950078108  0.000000000  0.000000000     0.253159551 -0.000000000  0.079344369
     0.000000000  3.950078108  0.000000000    -0.000000000  0.253159551  0.079344369
    -1.975039054 -1.975039054  6.301644387     0.000000000  0.000000000  0.158688739

  length of vectors
     3.950078108  3.950078108  6.892915240     0.265302256  0.265302256  0.158688739



 k-points in units of 2pi/SCALE and weight: # Generated by Masgent for EOS calculati
   0.00000000  0.00000000  0.00000000       0.005
   0.03616565  0.00000000  0.01133491       0.020
   0.07233130  0.00000000  0.02266982       0.020
   0.10849695  0.00000000  0.03400473       0.020
   0.03616565  0.03616565  0.02266982       0.010
   0.07233130  0.03616565  0.03400473       0.020
   0.10849695  0.03616565  0.04533964       0.020
  -0.10849695  0.03616565 -0.02266982       0.020
  -0.07233130  0.03616565 -0.01133491       0.020
  -0.03616565  0.03616565  0.00000000       0.010
   0.07233130  0.07233130  0.04533964       0.010
   0.10849695  0.07233130  0.05667455       0.020
  -0.10849695  0.07233130 -0.01133491       0.020
  -0.07233130  0.07233130  0.00000000       0.010
   0.10849695  0.10849695  0.06800946       0.010
  -0.10849695  0.10849695  0.00000000       0.010
   0.00000000  0.00000000  0.03967218       0.010
   0.03616565  0.00000000  0.05100709       0.020
   0.07233130  0.00000000  0.06234200       0.020
   0.10849695  0.00000000  0.07367691       0.020
  -0.10849695  0.00000000  0.00566745       0.020
  -0.07233130  0.00000000  0.01700236       0.020
  -0.03616565  0.00000000  0.02833727       0.020
   0.03616565  0.03616565  0.06234200       0.010
   0.07233130  0.03616565  0.07367691       0.020
   0.10849695  0.03616565  0.08501182       0.020
  -0.10849695  0.03616565  0.01700236       0.020
  -0.07233130  0.03616565  0.02833727       0.020
  -0.03616565  0.03616565  0.03967218       0.020
   0.07233130  0.07233130  0.08501182       0.010
   0.10849695  0.07233130  0.09634673       0.020
  -0.10849695  0.07233130  0.02833727       0.020
  -0.07233130  0.07233130  0.03967218       0.020
  -0.03616565  0.07233130  0.05100709       0.020
   0.10849695  0.10849695  0.10768164       0.010
  -0.10849695  0.10849695  0.03967218       0.020
  -0.07233130  0.10849695  0.05100709       0.020
  -0.03616565  0.10849695  0.06234200       0.020
  -0.10849695 -0.10849695 -0.02833727       0.010
  -0.07233130 -0.10849695 -0.01700236       0.020
  -0.03616565 -0.10849695 -0.00566745       0.020
  -0.07233130 -0.07233130 -0.00566745       0.010
  -0.03616565 -0.07233130  0.00566745       0.020
  -0.03616565 -0.03616565  0.01700236       0.010
   0.00000000  0.00000000  0.07934437       0.005
   0.03616565  0.00000000  0.09067928       0.020
   0.07233130  0.00000000  0.10201419       0.020
   0.10849695  0.00000000  0.11334910       0.020
   0.03616565  0.03616565  0.10201419       0.010
   0.07233130  0.03616565  0.11334910       0.020
   0.10849695  0.03616565  0.12468401       0.020
  -0.10849695  0.03616565  0.05667455       0.020
  -0.07233130  0.03616565  0.06800946       0.020
  -0.03616565  0.03616565  0.07934437       0.010
   0.07233130  0.07233130  0.12468401       0.010
   0.10849695  0.07233130  0.13601892       0.020
  -0.10849695  0.07233130  0.06800946       0.020
  -0.07233130  0.07233130  0.07934437       0.010
   0.10849695  0.10849695  0.14735383       0.010
  -0.10849695  0.10849695  0.07934437       0.010

 k-points in reciprocal lattice and weights: # Generated by Masgent for EOS calculati
   0.00000000  0.00000000  0.00000000       0.005
   0.14285714  0.00000000  0.00000000       0.020
   0.28571429  0.00000000  0.00000000       0.020
   0.42857143  0.00000000  0.00000000       0.020
   0.14285714  0.14285714  0.00000000       0.010
   0.28571429  0.14285714  0.00000000       0.020
   0.42857143  0.14285714  0.00000000       0.020
  -0.42857143  0.14285714  0.00000000       0.020
  -0.28571429  0.14285714  0.00000000       0.020
  -0.14285714  0.14285714  0.00000000       0.010
   0.28571429  0.28571429  0.00000000       0.010
   0.42857143  0.28571429  0.00000000       0.020
  -0.42857143  0.28571429  0.00000000       0.020
  -0.28571429  0.28571429  0.00000000       0.010
   0.42857143  0.42857143  0.00000000       0.010
  -0.42857143  0.42857143  0.00000000       0.010
   0.00000000  0.00000000  0.25000000       0.010
   0.14285714  0.00000000  0.25000000       0.020
   0.28571429  0.00000000  0.25000000       0.020
   0.42857143  0.00000000  0.25000000       0.020
  -0.42857143  0.00000000  0.25000000       0.020
  -0.28571429  0.00000000  0.25000000       0.020
  -0.14285714  0.00000000  0.25000000       0.020
   0.14285714  0.14285714  0.25000000       0.010
   0.28571429  0.14285714  0.25000000       0.020
   0.42857143  0.14285714  0.25000000       0.020
  -0.42857143  0.14285714  0.25000000       0.020
  -0.28571429  0.14285714  0.25000000       0.020
  -0.14285714  0.14285714  0.25000000       0.020
   0.28571429  0.28571429  0.25000000       0.010
   0.42857143  0.28571429  0.25000000       0.020
  -0.42857143  0.28571429  0.25000000       0.020
  -0.28571429  0.28571429  0.25000000       0.020
  -0.14285714  0.28571429  0.25000000       0.020
   0.42857143  0.42857143  0.25000000       0.010
  -0.42857143  0.42857143  0.25000000       0.020
  -0.28571429  0.42857143  0.25000000       0.020
  -0.14285714  0.42857143  0.25000000       0.020
  -0.42857143 -0.42857143  0.25000000       0.010
  -0.28571429 -0.42857143  0.25000000       0.020
  -0.14285714 -0.42857143  0.25000000       0.020
  -0.28571429 -0.28571429  0.25000000       0.010
  -0.14285714 -0.28571429  0.25000000       0.020
  -0.14285714 -0.14285714  0.25000000       0.010
   0.00000000  0.00000000  0.50000000       0.005
   0.14285714  0.00000000  0.50000000       0.020
   0.28571429  0.00000000  0.50000000       0.020
   0.42857143  0.00000000  0.50000000       0.020
   0.14285714  0.14285714  0.50000000       0.010
   0.28571429  0.14285714  0.50000000       0.020
   0.42857143  0.14285714  0.50000000       0.020
  -0.42857143  0.14285714  0.50000000       0.020
  -0.28571429  0.14285714  0.50000000       0.020
  -0.14285714  0.14285714  0.50000000       0.010
   0.28571429  0.28571429  0.50000000       0.010
   0.42857143  0.28571429  0.50000000       0.020
  -0.42857143  0.28571429  0.50000000       0.020
  -0.28571429  0.28571429  0.50000000       0.010
   0.42857143  0.42857143  0.50000000       0.010
  -0.42857143  0.42857143  0.50000000       0.010

 position of ions in fractional coordinates (direct lattice) 
   0.36347300  0.36347300  0.72694600
   0.63652700  0.63652700  0.27305400
   0.00000000  0.00000000  0.00000000
   0.17899300  0.17899300  0.35798600
   0.82100700  0.82100700  0.64201400
   0.50000000  0.00000000  0.00000000
   0.00000000  0.50000000  0.00000000

 position of ions in cartesian coordinates  (Angst):
   0.00000000  0.00000000  4.58095518
   1.97503905  1.97503905  1.72068921
   0.00000000  0.00000000  0.00000000
   0.00000000  0.00000000  2.25590047
   1.97503905  1.97503905  4.04574392
   1.97503905  0.00000000  0.00000000
   0.00000000  1.97503905  0.00000000



--------------------------------------------------------------------------------------------------------


 k-point   1 :   0.0000 0.0000 0.0000  plane waves:    2719
 k-point   2 :   0.1429 0.0000 0.0000  plane waves:    2663
 k-point   3 :   0.2857 0.0000 0.0000  plane waves:    2631
 k-point   4 :   0.4286 0.0000 0.0000  plane waves:    2639
 k-point   5 :   0.1429 0.1429 0.0000  plane waves:    2653
 k-point   6 :   0.2857 0.1429 0.0000  plane waves:    2649
 k-point   7 :   0.4286 0.1429 0.0000  plane waves:    2647
 k-point   8 :  -0.4286 0.1429 0.0000  plane waves:    2644
 k-point   9 :  -0.2857 0.1429 0.0000  plane waves:    2639
 k-point  10 :  -0.1429 0.1429 0.0000  plane waves:    2667
 k-point  11 :   0.2857 0.2857 0.0000  plane waves:    2651
 k-point  12 :   0.4286 0.2857 0.0000  plane waves:    2650
 k-point  13 :  -0.4286 0.2857 0.0000  plane waves:    2648
 k-point  14 :  -0.2857 0.2857 0.0000  plane waves:    2642
 k-point  15 :   0.4286 0.4286 0.0000  plane waves:    2642
 k-point  16 :  -0.4286 0.4286 0.0000  plane waves:    2644
 k-point  17 :   0.0000 0.0000 0.2500  plane waves:    2655
 k-point  18 :   0.1429 0.0000 0.2500  plane waves:    2659
 k-point  19 :   0.2857 0.0000 0.2500  plane waves:    2649
 k-point  20 :   0.4286 0.0000 0.2500  plane waves:    2654
 k-point  21 :  -0.4286 0.0000 0.2500  plane waves:    2638
 k-point  22 :  -0.2857 0.0000 0.2500  plane waves:    2637
 k-point  23 :  -0.1429 0.0000 0.2500  plane waves:    2663
 k-point  24 :   0.1429 0.1429 0.2500  plane waves:    2658
 k-point  25 :   0.2857 0.1429 0.2500  plane waves:    2649
 k-point  26 :   0.4286 0.1429 0.2500  plane waves:    2655
 k-point  27 :  -0.4286 0.1429 0.2500  plane waves:    2637
 k-point  28 :  -0.2857 0.1429 0.2500  plane waves:    2644
 k-point  29 :  -0.1429 0.1429 0.2500  plane waves:    2654
 k-point  30 :   0.2857 0.2857 0.2500  plane waves:    2645
 k-point  31 :   0.4286 0.2857 0.2500  plane waves:    2651
 k-point  32 :  -0.4286 0.2857 0.2500  plane waves:    2639
 k-point  33 :  -0.2857 0.2857 0.2500  plane waves:    2651
 k-point  34 :  -0.1429 0.2857 0.2500  plane waves:    2642
 k-point  35 :   0.4286 0.4286 0.2500  plane waves:    2651
 k-point  36 :  -0.4286 0.4286 0.2500  plane waves:    2638
 k-point  37 :  -0.2857 0.4286 0.2500  plane waves:    2644
 k-point  38 :  -0.1429 0.4286 0.2500  plane waves:    2654
 k-point  39 :  -0.4286-0.4286 0.2500  plane waves:    2636
 k-point  40 :  -0.2857-0.4286 0.2500  plane waves:    2645
 k-point  41 :  -0.1429-0.4286 0.2500  plane waves:    2639
 k-point  42 :  -0.2857-0.2857 0.2500  plane waves:    2645
 k-point  43 :  -0.1429-0.2857 0.2500  plane waves:    2643
 k-point  44 :  -0.1429-0.1429 0.2500  plane waves:    2655
 k-point  45 :   0.0000 0.0000 0.5000  plane waves:    2640
 k-point  46 :   0.1429 0.0000 0.5000  plane waves:    2664
 k-point  47 :   0.2857 0.0000 0.5000  plane waves:    2646
 k-point  48 :   0.4286 0.0000 0.5000  plane waves:    2639
 k-point  49 :   0.1429 0.1429 0.5000  plane waves:    2659
 k-point  50 :   0.2857 0.1429 0.5000  plane waves:    2645
 k-point  51 :   0.4286 0.1429 0.5000  plane waves:    2648
 k-point  52 :  -0.4286 0.1429 0.5000  plane waves:    2651
 k-point  53 :  -0.2857 0.1429 0.5000  plane waves:    2648
 k-point  54 :  -0.1429 0.1429 0.5000  plane waves:    2658
 k-point  55 :   0.2857 0.2857 0.5000  plane waves:    2649
 k-point  56 :   0.4286 0.2857 0.5000  plane waves:    2638
 k-point  57 :  -0.4286 0.2857 0.5000  plane waves:    2653
 k-point  58 :  -0.2857 0.2857 0.5000  plane waves:    2644
 k-point  59 :   0.4286 0.4286 0.5000  plane waves:    2646
 k-point  60 :  -0.4286 0.4286 0.5000  plane waves:    2648

 maximum and minimum number of plane-waves per node :      2719     2631

 maximum number of plane-waves:      2719
 maximum index in each direction: 
   IXMAX=    7   IYMAX=    7   IZMAX=   12
   IXMIN=   -7   IYMIN=   -7   IZMIN=  -13


 serial   3D FFT for wavefunctions
 parallel 3D FFT for charge:
    minimum data exchange during FFTs selected (reduces bandwidth)


 total amount of memory used by VASP MPI-rank0   168280. kBytes
=======================================================================

   base      :      30000. kBytes
   nonl-proj :     126381. kBytes
   fftplans  :        608. kBytes
   grid      :       5074. kBytes
   one-center:        688. kBytes
   wavefun   :       5529. kBytes

     INWAV:  cpu time    0.0000: real time    0.0003
 Broyden mixing: mesh for mixing (old mesh)
   NGX = 15   NGY = 15   NGZ = 25
  (NGX  = 60   NGY  = 60   NGZ  =108)
  gives a total of   5625 points

 initial charge density was supplied:
 charge density of overlapping atoms calculated
 number of electron      62.0000000 magnetization       8.6000000
 keeping initial charge density in first step


--------------------------------------------------------------------------------------------------------


 Maximum index for augmentation-charges          737 (set IRDMAX)


--------------------------------------------------------------------------------------------------------


 First call to EWALD:  gamma=   0.384
 Maximum number of real-space cells 3x 3x 2
 Maximum number of reciprocal cells 2x 2x 4

    FEWALD:  cpu time    0.0008: real time    0.0009


--------------------------------------- Iteration      1(   1)  ---------------------------------------


    POTLOK:  cpu time    0.0312: real time    0.0315
    SETDIJ:  cpu time    0.9135: real time    0.9137
atom =   1  type =  1  l = 0

 onsite density matrix

spin component  1

  1.1588

spin component  2

  1.0390

 occupancies and eigenvectors

  o =  1.0390  v =  0.0000  1.0000      0.0000  0.0000
  o =  1.1588  v =  1.0000  0.0000      0.0000  0.0000

atom =   2  type =  1  l = 0

 onsite density matrix

spin component  1

  1.1588

spin component  2

  1.0390

 occupancies and eigenvectors

  o =  1.0390  v =  0.0000  1.0000      0.0000  0.0000
  o =  1.1588  v =  1.0000  0.0000      0.0000  0.0000

atom =   3  type =  2  l = 2

 onsite density matrix

spin component  1

  1.0776  0.0000  0.0000  0.0000  0.0000
  0.0000  1.0776  0.0000  0.0000  0.0000
  0.0000  0.0000  1.0776  0.0000  0.0000
  0.0000  0.0000  0.0000  1.0776  0.0000
  0.0000  0.0000  0.0000  0.0000  1.0776

spin component  2

  0.5645  0.0000  0.0000  0.0000  0.0000
  0.0000  0.5645  0.0000  0.0000  0.0000
  0.0000  0.0000  0.5645  0.0000  0.0000
  0.0000  0.0000  0.0000  0.5645  0.0000
  0.0000  0.0000  0.0000  0.0000  0.5645

 occupancies and eigenvectors

  o =  0.5645  v =  0.0000  0.0000  0.0000  0.0000  0.0000  0.0000  0.0000  1.0000  0.0000  0.0000      0.0000  0.0000  0.0000  0.0000  0.0000  0.0000  0.0000  0.0000  0.0000  0.0000
  o =  0.5645  v =  0.0000  0.0000  0.0000  0.0000  0.0000  1.0000  0.0000  0.0000  0.0000  0.0000      0.0000  0.0000  0.0000  0.0000  0.0000  0.0000  0.0000  0.0000  0.0000  0.0000
  o =  0.5645  v =  0.0000  0.0000  0.0000  0.0000  0.0000  0.0000  0.0000  0.0000  0.0000  1.0000      0.0000  0.0000  0.0000  0.0000  0.0000  0.0000  0.0000  0.0000  0.0000  0.0000
  o =  0.5645  v =  0.0000  0.0000  0.0000  0.0000  0.0000  0.0000  1.0000  0.0000  0.0000  0.0000      0.0000  0.0000  0.0000  0.0000  0.0000  0.0000  0.0000  0.0000  0.0000  0.0000
  o =  0.5645  v =  0.0000  0.0000  0.0000  0.0000  0.0000  0.0000  0.0000  0.0000  1.0000  0.0000      0.0000  0.0000  0.0000  0.0000  0.0000  0.0000  0.0000  0.0000  0.0000  0.0000
  o =  1.0776  v =  0.0000  0.0000  1.0000  0.0000  0.0000  0.0000  0.0000  0.0000  0.0000  0.0000      0.0000  0.0000  0.0000  0.0000  0.0000  0.0000  0.0000  0.0000  0.0000  0.0000
  o =  1.0776  v =  0.0000  0.0000  0.0000  1.0000  0.0000  0.0000  0.0000  0.0000  0.0000  0.0000      0.0000  0.0000  0.0000  0.0000  0.0000  0.0000  0.0000  0.0000  0.0000  0.0000
  o =  1.0776  v =  1.0000  0.0000  0.0000  0.0000  0.0000  0.0000  0.0000  0.0000  0.0000  0.0000      0.0000  0.0000  0.0000  0.0000  0.0000  0.0000  0.0000  0.0000  0.0000  0.0000
  o =  1.0776  v =  0.0000  0.0000  0.0000  0.0000  1.0000  0.0000  0.0000  0.0000  0.0000  0.0000      0.0000  0.0000  0.0000  0.0000  0.0000  0.0000  0.0000  0.0000  0.0000  0.0000
  o =  1.0776  v =  0.0000  1.0000  0.0000  0.0000  0.0000  0.0000  0.0000  0.0000  0.0000  0.0000      0.0000  0.0000  0.0000  0.0000  0.0000  0.0000  0.0000  0.0000  0.0000  0.0000

atom =   4  type =  3  l = 0

 onsite density matrix

spin component  1

  0.9009

spin component  2

  0.7371

 occupancies and eigenvectors

  o =  0.7371  v =  0.0000  1.0000      0.0000  0.0000
  o =  0.9009  v =  1.0000  0.0000      0.0000  0.0000

atom =   5  type =  3  l = 0

 onsite density matrix

spin component  1

  0.9009

spin component  2

  0.7371

 occupancies and eigenvectors

  o =  0.7371  v =  0.0000  1.0000      0.0000  0.0000
  o =  0.9009  v =  1.0000  0.0000      0.0000  0.0000

atom =   6  type =  3  l = 0

 onsite density matrix

spin component  1

  0.9009

spin component  2

  0.7371

 occupancies and eigenvectors

  o =  0.7371  v =  0.0000  1.0000      0.0000  0.0000
  o =  0.9009  v =  1.0000  0.0000      0.0000  0.0000

atom =   7  type =  3  l = 0

 onsite density matrix

spin component  1

  0.9009

spin component  2

  0.7371

 occupancies and eigenvectors

  o =  0.7371  v =  0.0000  1.0000      0.0000  0.0000
  o =  0.9009  v =  1.0000  0.0000      0.0000  0.0000

     EDDAV:  cpu time    6.0339: real time    6.0344
 BZINTS: Fermi energy:   13.067366;   62.000000 electrons
         Band energy:-0.656398E+02;  BLOECHL correction:   -0.029608
       DOS:  cpu time    0.0744: real time    0.0747
    --------------------------------------------
      LOOP:  cpu time    7.0530: real time    7.0543

 eigenvalue-minimisations  : 11520
 total energy-change (2. order) : 0.3627505E+03  (-0.3376650E+04)
 number of electron      62.0000000 magnetization       8.6000000
 augmentation part       62.0000000 magnetization       8.6000000

 Free energy of the ion-electron system (eV)
  ---------------------------------------------------
  alpha Z        PSCENC =       277.90460138
  Ewald energy   TEWEN  =     -4661.52234650
  -Hartree energ DENC   =     -2292.43336181
  -exchange      EXHF   =         0.00000000
  -V(xc)+E(xc)   XCENC  =       264.34288949
  PAW double counting   =      5585.27909985    -5707.62878593
  entropy T*S    EENTRO =         0.00000000
  eigenvalues    EBANDS =       -65.63981359
  atomic energy  EATOM  =      6962.44817098
  Solvation  Ediel_sol  =         0.00000000
  ---------------------------------------------------
  free energy    TOTEN  =       362.75045388 eV

  energy without entropy =      362.75045388  energy(sigma->0) =      362.75045388


--------------------------------------------------------------------------------------------------------




--------------------------------------- Iteration      1(   2)  ---------------------------------------


     EDDAV:  cpu time   12.4798: real time   12.4804
 BZINTS: Fermi energy:   10.636605;   62.000000 electrons
         Band energy:-0.477335E+03;  BLOECHL correction:   -0.034437
       DOS:  cpu time    0.0764: real time    0.0767
    --------------------------------------------
      LOOP:  cpu time   12.5562: real time   12.5570

 eigenvalue-minimisations  : 17232
 total energy-change (2. order) :-0.4116950E+03  (-0.4113632E+03)
 number of electron      62.0000000 magnetization       8.6000000
 augmentation part       62.0000000 magnetization       8.6000000

 Free energy of the ion-electron system (eV)
  ---------------------------------------------------
  alpha Z        PSCENC =       277.90460138
  Ewald energy   TEWEN  =     -4661.52234650
  -Hartree energ DENC   =     -2292.43336181
  -exchange      EXHF   =         0.00000000
  -V(xc)+E(xc)   XCENC  =       264.34288949
  PAW double counting   =      5585.27909985    -5707.62878593
  entropy T*S    EENTRO =         0.00000000
  eigenvalues    EBANDS =      -477.33483162
  atomic energy  EATOM  =      6962.44817098
  Solvation  Ediel_sol  =         0.00000000
  ---------------------------------------------------
  free energy    TOTEN  =       -48.94456415 eV

  energy without entropy =      -48.94456415  energy(sigma->0) =      -48.94456415


--------------------------------------------------------------------------------------------------------




--------------------------------------- Iteration      1(   3)  ---------------------------------------


     EDDAV:  cpu time    5.8155: real time    5.8157
 BZINTS: Fermi energy:   10.533840;   62.000000 electrons
         Band energy:-0.485450E+03;  BLOECHL correction:   -0.030565
       DOS:  cpu time    0.0748: real time    0.0750
    --------------------------------------------
      LOOP:  cpu time    5.8903: real time    5.8907

 eigenvalue-minimisations  : 11520
 total energy-change (2. order) :-0.8115602E+01  (-0.8110639E+01)
 number of electron      62.0000000 magnetization       8.6000000
 augmentation part       62.0000000 magnetization       8.6000000

 Free energy of the ion-electron system (eV)
  ---------------------------------------------------
  alpha Z        PSCENC =       277.90460138
  Ewald energy   TEWEN  =     -4661.52234650
  -Hartree energ DENC   =     -2292.43336181
  -exchange      EXHF   =         0.00000000
  -V(xc)+E(xc)   XCENC  =       264.34288949
  PAW double counting   =      5585.27909985    -5707.62878593
  entropy T*S    EENTRO =         0.00000000
  eigenvalues    EBANDS =      -485.45043379
  atomic energy  EATOM  =      6962.44817098
  Solvation  Ediel_sol  =         0.00000000
  ---------------------------------------------------
  free energy    TOTEN  =       -57.06016632 eV

  energy without entropy =      -57.06016632  energy(sigma->0) =      -57.06016632


--------------------------------------------------------------------------------------------------------




--------------------------------------- Iteration      1(   4)  ---------------------------------------


     EDDAV:  cpu time   23.1818: real time   23.1819
 BZINTS: Fermi energy:   10.517889;   62.000000 electrons
         Band energy:-0.485758E+03;  BLOECHL correction:   -0.029678
       DOS:  cpu time    0.0820: real time    0.0822
    --------------------------------------------
      LOOP:  cpu time   23.2638: real time   23.2641

 eigenvalue-minimisations  : 22944
 total energy-change (2. order) :-0.3073617E+00  (-0.3061613E+00)
 number of electron      62.0000000 magnetization       8.6000000
 augmentation part       62.0000000 magnetization       8.6000000

 Free energy of the ion-electron system (eV)
  ---------------------------------------------------
  alpha Z        PSCENC =       277.90460138
  Ewald energy   TEWEN  =     -4661.52234650
  -Hartree energ DENC   =     -2292.43336181
  -exchange      EXHF   =         0.00000000
  -V(xc)+E(xc)   XCENC  =       264.34288949
  PAW double counting   =      5585.27909985    -5707.62878593
  entropy T*S    EENTRO =         0.00000000
  eigenvalues    EBANDS =      -485.75779553
  atomic energy  EATOM  =      6962.44817098
  Solvation  Ediel_sol  =         0.00000000
  ---------------------------------------------------
  free energy    TOTEN  =       -57.36752806 eV

  energy without entropy =      -57.36752806  energy(sigma->0) =      -57.36752806


--------------------------------------------------------------------------------------------------------




--------------------------------------- Iteration      1(   5)  ---------------------------------------


     EDDAV:  cpu time    5.8103: real time    5.8104
 BZINTS: Fermi energy:   10.517801;   62.000000 electrons
         Band energy:-0.485759E+03;  BLOECHL correction:   -0.029662
       DOS:  cpu time    0.0806: real time    0.0809
    CHARGE:  cpu time    0.1545: real time    0.1547
    MIXING:  cpu time    0.0009: real time    0.0010
    --------------------------------------------
      LOOP:  cpu time    6.0463: real time    6.0471

 eigenvalue-minimisations  : 11520
 total energy-change (2. order) :-0.8280032E-03  (-0.8344457E-03)
 number of electron      61.9999969 magnetization       6.1207356
 augmentation part        8.0138365 magnetization       4.1178288

 Broyden mixing:
  rms(total) = 0.35584E+01    rms(broyden)= 0.35581E+01
  rms(prec ) = 0.61526E+01
  weight for this iteration     100.00

 Free energy of the ion-electron system (eV)
  ---------------------------------------------------
  alpha Z        PSCENC =       277.90460138
  Ewald energy   TEWEN  =     -4661.52234650
  -Hartree energ DENC   =     -2292.43336181
  -exchange      EXHF   =         0.00000000
  -V(xc)+E(xc)   XCENC  =       264.34288949
  PAW double counting   =      5585.27909985    -5707.62878593
  entropy T*S    EENTRO =         0.00000000
  eigenvalues    EBANDS =      -485.75862353
  atomic energy  EATOM  =      6962.44817098
  Solvation  Ediel_sol  =         0.00000000
  ---------------------------------------------------
  free energy    TOTEN  =       -57.36835607 eV

  energy without entropy =      -57.36835607  energy(sigma->0) =      -57.36835607


--------------------------------------------------------------------------------------------------------




--------------------------------------- Iteration      1(   6)  ---------------------------------------


    POTLOK:  cpu time    0.0217: real time    0.0220
    SETDIJ:  cpu time    0.9228: real time    0.9228
atom =   1  type =  1  l = 0

 onsite density matrix

spin component  1

  1.0276

spin component  2

  1.0970

 occupancies and eigenvectors

  o =  1.0276  v =  1.0000  0.0000      0.0000  0.0000
  o =  1.0970  v =  0.0000  1.0000      0.0000  0.0000

atom =   2  type =  1  l = 0

 onsite density matrix

spin component  1

  1.0276

spin component  2

  1.0970

 occupancies and eigenvectors

  o =  1.0276  v =  1.0000  0.0000      0.0000  0.0000
  o =  1.0970  v =  0.0000  1.0000      0.0000  0.0000

atom =   3  type =  2  l = 2

 onsite density matrix

spin component  1

  1.2164  0.0000  0.0000  0.0000  0.0000
  0.0000  1.2394  0.0000  0.0000 -0.0000
  0.0000  0.0000  1.2779  0.0000 -0.0000
  0.0000  0.0000  0.0000  1.2394  0.0000
  0.0000 -0.0000 -0.0000  0.0000  1.2849

spin component  2

  0.1934 -0.0000  0.0000 -0.0000 -0.0000
 -0.0000  0.1507 -0.0000  0.0000  0.0000
  0.0000 -0.0000  0.1178 -0.0000 -0.0000
 -0.0000  0.0000 -0.0000  0.1507 -0.0000
 -0.0000  0.0000 -0.0000 -0.0000  0.1339

 occupancies and eigenvectors

  o =  0.1178  v = -0.0000 -0.0000 -0.0000 -0.0000 -0.0000  0.0000  0.0000  1.0000  0.0000  0.0000      0.0000  0.0000  0.0000  0.0000  0.0000  0.0000 -0.0000 -0.0000 -0.0000  0.0000
  o =  0.1339  v =  0.0000  0.0000  0.0000  0.0000  0.0000  0.0000 -0.0000 -0.0000  0.0000  1.0000      0.0000  0.0000  0.0000  0.0000  0.0000  0.0000  0.0000  0.0000  0.0000  0.0000
  o =  0.1507  v =  0.0000  0.0000  0.0000  0.0000  0.0000 -0.0000 -0.9470  0.0000 -0.3211 -0.0000      0.0000  0.0000  0.0000  0.0000  0.0000  0.0000  0.0000  0.0000  0.0000  0.0000
  o =  0.1507  v =  0.0000  0.0000  0.0000  0.0000  0.0000  0.0000 -0.3211 -0.0000  0.9470 -0.0000      0.0000  0.0000  0.0000  0.0000  0.0000  0.0000  0.0000  0.0000  0.0000  0.0000
  o =  0.1934  v =  0.0000  0.0000  0.0000  0.0000  0.0000  1.0000 -0.0000  0.0000 -0.0000 -0.0000      0.0000  0.0000  0.0000  0.0000  0.0000  0.0000  0.0000  0.0000  0.0000  0.0000
  o =  1.2164  v =  1.0000 -0.0000  0.0000 -0.0000 -0.0000  0.0000  0.0000  0.0000  0.0000  0.0000      0.0000  0.0000  0.0000  0.0000  0.0000  0.0000  0.0000  0.0000  0.0000  0.0000
  o =  1.2394  v = -0.0000 -0.7741  0.0000 -0.6331 -0.0000 -0.0000 -0.0000 -0.0000 -0.0000 -0.0000      0.0000  0.0000  0.0000  0.0000  0.0000  0.0000  0.0000  0.0000  0.0000  0.0000
  o =  1.2394  v = -0.0000  0.6331  0.0000 -0.7741  0.0000  0.0000  0.0000  0.0000  0.0000  0.0000      0.0000  0.0000  0.0000  0.0000  0.0000  0.0000  0.0000  0.0000  0.0000  0.0000
  o =  1.2779  v =  0.0000  0.0000  1.0000  0.0000 -0.0000  0.0000  0.0000  0.0000  0.0000  0.0000      0.0000  0.0000 -0.0000 -0.0000  0.0000  0.0000  0.0000  0.0000  0.0000  0.0000
  o =  1.2849  v = -0.0000  0.0000 -0.0000 -0.0000 -1.0000 -0.0000 -0.0000 -0.0000 -0.0000 -0.0000      0.0000 -0.0000  0.0000  0.0000  0.0000  0.0000  0.0000  0.0000  0.0000  0.0000

atom =   4  type =  3  l = 0

 onsite density matrix

spin component  1

  0.7744

spin component  2

  0.8583

 occupancies and eigenvectors

  o =  0.7744  v =  1.0000  0.0000      0.0000  0.0000
  o =  0.8583  v =  0.0000  1.0000      0.0000  0.0000

atom =   5  type =  3  l = 0

 onsite density matrix

spin component  1

  0.7744

spin component  2

  0.8583

 occupancies and eigenvectors

  o =  0.7744  v =  1.0000  0.0000      0.0000  0.0000
  o =  0.8583  v =  0.0000  1.0000      0.0000  0.0000

atom =   6  type =  3  l = 0

 onsite density matrix

spin component  1

  0.7741

spin component  2

  0.8552

 occupancies and eigenvectors

  o =  0.7741  v =  1.0000  0.0000      0.0000  0.0000
  o =  0.8552  v =  0.0000  1.0000      0.0000  0.0000

atom =   7  type =  3  l = 0

 onsite density matrix

spin component  1

  0.7741

spin component  2

  0.8552

 occupancies and eigenvectors

  o =  0.7741  v =  1.0000  0.0000      0.0000  0.0000
  o =  0.8552  v =  0.0000  1.0000      0.0000  0.0000

    EDDIAG:  cpu time    0.6526: real time    0.6546
  RMM-DIIS:  cpu time    1.8669: real time    1.8670
    ORTHCH:  cpu time    0.0526: real time    0.0526
 BZINTS: Fermi energy:    6.757365;   62.000000 electrons
         Band energy:-0.673742E+03;  BLOECHL correction:   -0.083913
       DOS:  cpu time    0.0732: real time    0.0737
    CHARGE:  cpu time    0.1539: real time    0.1539
    MIXING:  cpu time    0.0007: real time    0.0007
    --------------------------------------------
      LOOP:  cpu time    3.7444: real time    3.7473

 eigenvalue-minimisations  : 18222
 total energy-change (2. order) :-0.3966861E+01  (-0.2517487E+02)
 number of electron      61.9999954 magnetization       5.3898887
 augmentation part       10.2821527 magnetization       4.5902597

 Broyden mixing:
  rms(total) = 0.12294E+02    rms(broyden)= 0.12293E+02
  rms(prec ) = 0.12799E+02
  weight for this iteration     100.00

 eigenvalues of (default mixing * dielectric matrix)
  average eigenvalue GAMMA=   0.0195
  0.0195

 Free energy of the ion-electron system (eV)
  ---------------------------------------------------
  alpha Z        PSCENC =       277.90460138
  Ewald energy   TEWEN  =     -4661.52234650
  -Hartree energ DENC   =     -2122.80941576
  -exchange      EXHF   =         0.00000000
  -V(xc)+E(xc)   XCENC  =       262.87688181
  PAW double counting   =      5642.26045243    -5748.75113699
  entropy T*S    EENTRO =         0.00000000
  eigenvalues    EBANDS =      -673.74242413
  atomic energy  EATOM  =      6962.44817098
  Solvation  Ediel_sol  =         0.00000000
  ---------------------------------------------------
  free energy    TOTEN  =       -61.33521679 eV

  energy without entropy =      -61.33521679  energy(sigma->0) =      -61.33521679


--------------------------------------------------------------------------------------------------------




--------------------------------------- Iteration      1(   7)  ---------------------------------------


    POTLOK:  cpu time    0.0225: real time    0.0228
    SETDIJ:  cpu time    0.9121: real time    0.9121
atom =   1  type =  1  l = 0

 onsite density matrix

spin component  1

  1.0350

spin component  2

  1.0796

 occupancies and eigenvectors

  o =  1.0350  v =  1.0000  0.0000      0.0000  0.0000
  o =  1.0796  v =  0.0000  1.0000      0.0000  0.0000

atom =   2  type =  1  l = 0

 onsite density matrix

spin component  1

  1.0350

spin component  2

  1.0796

 occupancies and eigenvectors

  o =  1.0350  v =  1.0000  0.0000      0.0000  0.0000
  o =  1.0796  v =  0.0000  1.0000      0.0000  0.0000

atom =   3  type =  2  l = 2

 onsite density matrix

spin component  1

  1.0734  0.0000  0.0000  0.0000 -0.0000
  0.0000  1.0854  0.0000  0.0000 -0.0000
  0.0000  0.0000  1.1527  0.0000  0.0000
  0.0000  0.0000  0.0000  1.0854  0.0000
 -0.0000 -0.0000  0.0000  0.0000  1.2241

spin component  2

  0.3791 -0.0000  0.0000 -0.0000 -0.0000
 -0.0000  0.3489 -0.0000  0.0000  0.0000
  0.0000 -0.0000  0.2664 -0.0000  0.0000
 -0.0000  0.0000 -0.0000  0.3489 -0.0000
 -0.0000  0.0000  0.0000 -0.0000  0.1810

 occupancies and eigenvectors

  o =  0.1810  v =  0.0000  0.0000  0.0000  0.0000  0.0000  0.0000 -0.0000 -0.0000  0.0000  1.0000      0.0000  0.0000  0.0000  0.0000  0.0000  0.0000  0.0000  0.0000  0.0000  0.0000
  o =  0.2664  v =  0.0000  0.0000  0.0000  0.0000  0.0000 -0.0000 -0.0000 -1.0000 -0.0000 -0.0000      0.0000  0.0000  0.0000  0.0000  0.0000  0.0000  0.0000  0.0000  0.0000  0.0000
  o =  0.3489  v =  0.0000  0.0000  0.0000  0.0000  0.0000  0.0000 -0.0540 -0.0000  0.9985 -0.0000      0.0000  0.0000  0.0000  0.0000  0.0000  0.0000  0.0000  0.0000  0.0000  0.0000
  o =  0.3489  v =  0.0000  0.0000  0.0000  0.0000  0.0000  0.0000  0.9985 -0.0000  0.0540  0.0000      0.0000  0.0000  0.0000  0.0000  0.0000  0.0000  0.0000  0.0000  0.0000  0.0000
  o =  0.3791  v =  0.0000  0.0000  0.0000  0.0000  0.0000  1.0000 -0.0000  0.0000 -0.0000 -0.0000      0.0000  0.0000  0.0000  0.0000  0.0000  0.0000  0.0000  0.0000  0.0000  0.0000
  o =  1.0734  v =  1.0000 -0.0000  0.0000 -0.0000  0.0000  0.0000  0.0000  0.0000  0.0000  0.0000      0.0000  0.0000  0.0000  0.0000  0.0000  0.0000  0.0000  0.0000  0.0000  0.0000
  o =  1.0854  v =  0.0000 -0.4711 -0.0000  0.8821 -0.0000 -0.0000 -0.0000 -0.0000 -0.0000 -0.0000      0.0000  0.0000 -0.0000 -0.0000  0.0000  0.0000  0.0000  0.0000  0.0000  0.0000
  o =  1.0854  v =  0.0000  0.8821 -0.0000  0.4711  0.0000  0.0000  0.0000  0.0000  0.0000  0.0000      0.0000  0.0000  0.0000  0.0000  0.0000  0.0000  0.0000  0.0000  0.0000  0.0000
  o =  1.1527  v = -0.0000 -0.0000 -1.0000 -0.0000  0.0000 -0.0000 -0.0000 -0.0000 -0.0000 -0.0000      0.0000  0.0000  0.0000  0.0000  0.0000  0.0000  0.0000  0.0000  0.0000  0.0000
  o =  1.2241  v = -0.0000 -0.0000  0.0000  0.0000  1.0000  0.0000  0.0000  0.0000  0.0000  0.0000      0.0000  0.0000  0.0000  0.0000  0.0000  0.0000  0.0000  0.0000  0.0000  0.0000

atom =   4  type =  3  l = 0

 onsite density matrix

spin component  1

  0.7844

spin component  2

  0.8435

 occupancies and eigenvectors

  o =  0.7844  v =  1.0000  0.0000      0.0000  0.0000
  o =  0.8435  v =  0.0000  1.0000      0.0000  0.0000

atom =   5  type =  3  l = 0

 onsite density matrix

spin component  1

  0.7844

spin component  2

  0.8435

 occupancies and eigenvectors

  o =  0.7844  v =  1.0000  0.0000      0.0000  0.0000
  o =  0.8435  v =  0.0000  1.0000      0.0000  0.0000

atom =   6  type =  3  l = 0

 onsite density matrix

spin component  1

  0.7847

spin component  2

  0.8382

 occupancies and eigenvectors

  o =  0.7847  v =  1.0000  0.0000      0.0000  0.0000
  o =  0.8382  v =  0.0000  1.0000      0.0000  0.0000

atom =   7  type =  3  l = 0

 onsite density matrix

spin component  1

  0.7847

spin component  2

  0.8382

 occupancies and eigenvectors

  o =  0.7847  v =  1.0000  0.0000      0.0000  0.0000
  o =  0.8382  v =  0.0000  1.0000      0.0000  0.0000

    EDDIAG:  cpu time    0.6770: real time    0.6770
  RMM-DIIS:  cpu time    1.9190: real time    1.9196
    ORTHCH:  cpu time    0.0534: real time    0.0534
 BZINTS: Fermi energy:    6.544132;   62.000000 electrons
         Band energy:-0.624510E+03;  BLOECHL correction:   -0.100932
       DOS:  cpu time    0.0788: real time    0.0791
    CHARGE:  cpu time    0.1530: real time    0.1530
    MIXING:  cpu time    0.0006: real time    0.0006
    --------------------------------------------
      LOOP:  cpu time    3.8164: real time    3.8177

 eigenvalue-minimisations  : 20068
 total energy-change (2. order) : 0.6301687E+00  (-0.4560740E+01)
 number of electron      61.9999954 magnetization       4.0380254
 augmentation part        9.9449666 magnetization       3.0639337

 Broyden mixing:
  rms(total) = 0.68362E+01    rms(broyden)= 0.68361E+01
  rms(prec ) = 0.75408E+01
  weight for this iteration     100.00

 eigenvalues of (default mixing * dielectric matrix)
  average eigenvalue GAMMA=   0.3804
  0.3804  0.3804

 Free energy of the ion-electron system (eV)
  ---------------------------------------------------
  alpha Z        PSCENC =       277.90460138
  Ewald energy   TEWEN  =     -4661.52234650
  -Hartree energ DENC   =     -2160.61176242
  -exchange      EXHF   =         0.00000000
  -V(xc)+E(xc)   XCENC  =       263.13108605
  PAW double counting   =      5905.60544959    -6023.14981623
  entropy T*S    EENTRO =         0.00000000
  eigenvalues    EBANDS =      -624.51043096
  atomic energy  EATOM  =      6962.44817098
  Solvation  Ediel_sol  =         0.00000000
  ---------------------------------------------------
  free energy    TOTEN  =       -60.70504811 eV

  energy without entropy =      -60.70504811  energy(sigma->0) =      -60.70504811


--------------------------------------------------------------------------------------------------------




--------------------------------------- Iteration      1(   8)  ---------------------------------------


    POTLOK:  cpu time    0.0226: real time    0.0229
    SETDIJ:  cpu time    0.9012: real time    0.9013
atom =   1  type =  1  l = 0

 onsite density matrix

spin component  1

  1.0391

spin component  2

  1.0517

 occupancies and eigenvectors

  o =  1.0391  v =  1.0000  0.0000      0.0000  0.0000
  o =  1.0517  v =  0.0000  1.0000      0.0000  0.0000

atom =   2  type =  1  l = 0

 onsite density matrix

spin component  1

  1.0391

spin component  2

  1.0517

 occupancies and eigenvectors

  o =  1.0391  v =  1.0000  0.0000      0.0000  0.0000
  o =  1.0517  v =  0.0000  1.0000      0.0000  0.0000

atom =   3  type =  2  l = 2

 onsite density matrix

spin component  1

  0.9385  0.0000  0.0000  0.0000  0.0000
  0.0000  0.9423  0.0000 -0.0000 -0.0000
  0.0000  0.0000  0.9839  0.0000 -0.0000
  0.0000 -0.0000  0.0000  0.9423  0.0000
  0.0000 -0.0000 -0.0000  0.0000  1.1227

spin component  2

  0.6259  0.0000 -0.0000  0.0000  0.0000
  0.0000  0.6061  0.0000  0.0000 -0.0000
 -0.0000  0.0000  0.5195 -0.0000 -0.0000
  0.0000  0.0000 -0.0000  0.6061  0.0000
  0.0000 -0.0000 -0.0000  0.0000  0.2492

 occupancies and eigenvectors

  o =  0.2492  v =  0.0000  0.0000  0.0000  0.0000  0.0000  0.0000  0.0000  0.0000 -0.0000  1.0000      0.0000  0.0000  0.0000  0.0000  0.0000  0.0000  0.0000  0.0000  0.0000  0.0000
  o =  0.5195  v =  0.0000  0.0000  0.0000  0.0000  0.0000  0.0000  0.0000 -1.0000 -0.0000  0.0000      0.0000  0.0000  0.0000  0.0000  0.0000  0.0000  0.0000  0.0000  0.0000  0.0000
  o =  0.6061  v =  0.0000  0.0000  0.0000  0.0000  0.0000  0.0000  0.9981  0.0000 -0.0611 -0.0000      0.0000  0.0000  0.0000  0.0000  0.0000  0.0000  0.0000  0.0000  0.0000  0.0000
  o =  0.6061  v =  0.0000  0.0000  0.0000  0.0000  0.0000  0.0000 -0.0611  0.0000 -0.9981 -0.0000      0.0000  0.0000  0.0000  0.0000  0.0000  0.0000  0.0000  0.0000  0.0000  0.0000
  o =  0.6259  v =  0.0000  0.0000  0.0000  0.0000  0.0000  1.0000  0.0000  0.0000  0.0000  0.0000      0.0000  0.0000  0.0000  0.0000  0.0000  0.0000  0.0000  0.0000  0.0000  0.0000
  o =  0.9385  v =  1.0000 -0.0000  0.0000 -0.0000 -0.0000  0.0000  0.0000  0.0000  0.0000  0.0000      0.0000  0.0000  0.0000  0.0000  0.0000  0.0000  0.0000  0.0000  0.0000  0.0000
  o =  0.9423  v =  0.0000  0.9976 -0.0000  0.0697  0.0000  0.0000  0.0000  0.0000  0.0000  0.0000      0.0000  0.0000  0.0000  0.0000  0.0000  0.0000  0.0000  0.0000  0.0000  0.0000
  o =  0.9423  v = -0.0000  0.0697  0.0000 -0.9976  0.0000  0.0000  0.0000  0.0000  0.0000  0.0000      0.0000  0.0000  0.0000  0.0000  0.0000  0.0000  0.0000  0.0000  0.0000  0.0000
  o =  0.9839  v =  0.0000  0.0000  1.0000  0.0000 -0.0000  0.0000  0.0000  0.0000  0.0000  0.0000      0.0000  0.0000 -0.0000 -0.0000  0.0000  0.0000  0.0000  0.0000  0.0000  0.0000
  o =  1.1227  v = -0.0000  0.0000 -0.0000 -0.0000 -1.0000 -0.0000 -0.0000 -0.0000 -0.0000 -0.0000      0.0000 -0.0000  0.0000  0.0000  0.0000  0.0000  0.0000  0.0000  0.0000  0.0000

atom =   4  type =  3  l = 0

 onsite density matrix

spin component  1

  0.8006

spin component  2

  0.8149

 occupancies and eigenvectors

  o =  0.8006  v =  1.0000  0.0000      0.0000  0.0000
  o =  0.8149  v =  0.0000  1.0000      0.0000  0.0000

atom =   5  type =  3  l = 0

 onsite density matrix

spin component  1

  0.8006

spin component  2

  0.8149

 occupancies and eigenvectors

  o =  0.8006  v =  1.0000  0.0000      0.0000  0.0000
  o =  0.8149  v =  0.0000  1.0000      0.0000  0.0000

atom =   6  type =  3  l = 0

 onsite density matrix

spin component  1

  0.7955

spin component  2

  0.8128

 occupancies and eigenvectors

  o =  0.7955  v =  1.0000  0.0000      0.0000  0.0000
  o =  0.8128  v =  0.0000  1.0000      0.0000  0.0000

atom =   7  type =  3  l = 0

 onsite density matrix

spin component  1

  0.7955

spin component  2

  0.8128

 occupancies and eigenvectors

  o =  0.7955  v =  1.0000  0.0000      0.0000  0.0000
  o =  0.8128  v =  0.0000  1.0000      0.0000  0.0000

    EDDIAG:  cpu time    0.6761: real time    0.6761
  RMM-DIIS:  cpu time    1.6425: real time    1.6426
    ORTHCH:  cpu time    0.0536: real time    0.0536
[...]
 -0.000   0.000  -0.000  -0.000   0.000  -0.000  -0.000   0.000
  0.000  -0.000   0.000  -0.000   0.000   0.000  -0.000   0.000
  0.000  -0.000   0.005   0.000  -0.000  -0.004   0.000  -0.000
  0.005   0.004  -0.000   0.012  -0.000  -0.000  -0.001  -0.000
  0.000  -0.000  -0.000   0.000   0.005  -0.000   0.000  -0.004
 -0.000   0.000  -0.000  -0.000   0.000  -0.000  -0.000   0.000
 -0.000   0.000   0.002   0.000  -0.000  -0.001  -0.000   0.000
  0.000  -0.000  -0.000   0.000  -0.000   0.000   0.000   0.000
  0.000  -0.000   0.008  -0.000   0.000  -0.005   0.000  -0.000
 -0.006  -0.002   0.000   0.013   0.000  -0.000  -0.008  -0.000
  0.000  -0.000   0.000  -0.000   0.008  -0.000   0.000  -0.005
  0.000  -0.000   0.000   0.000  -0.000  -0.000  -0.000   0.000
  0.000  -0.000   0.000  -0.000  -0.002  -0.000   0.000   0.001
 -0.000   0.000   0.002   0.000  -0.000  -0.001  -0.000   0.000
  0.000  -0.000  -0.000   0.000  -0.000   0.000   0.000   0.000
  0.000  -0.000   0.008  -0.000   0.000  -0.005   0.000  -0.000
 -0.006  -0.002   0.000   0.012   0.000  -0.000  -0.008  -0.000
  0.000  -0.000   0.000  -0.000   0.008  -0.000   0.000  -0.005
  0.000  -0.000   0.000   0.000  -0.000  -0.000  -0.000   0.000
  0.000  -0.000   0.000  -0.000  -0.002  -0.000   0.000   0.001
 total augmentation occupancy for first ion, spin component:           1
  1.992   0.028   0.000   0.001   0.000   0.000   0.001   0.000   0.000   0.000   0.008   0.000   0.000   0.000  -0.000  -0.013
  0.028   0.521   0.000   0.008   0.000  -0.000  -0.003  -0.000   0.000   0.000   0.325   0.000   0.000   0.000  -0.000  -0.155
  0.000   0.000   2.026   0.000   0.000  -0.002  -0.000  -0.000  -0.000  -0.061   0.000   0.000   0.000   0.000   0.026  -0.000
  0.001   0.008   0.000   2.033   0.000  -0.000  -0.013  -0.000   0.000   0.000   0.146   0.000   0.000   0.000  -0.000  -0.055
  0.000   0.000   0.000   0.000   2.026   0.000  -0.000  -0.002  -0.000  -0.000   0.000  -0.061  -0.000   0.000   0.000  -0.000
  0.000  -0.000  -0.002  -0.000   0.000   0.011   0.000  -0.000   0.000   0.028  -0.000  -0.000  -0.000  -0.000  -0.014   0.000
  0.001  -0.003  -0.000  -0.013  -0.000   0.000   0.018   0.000   0.000  -0.000  -0.075  -0.000   0.000   0.000   0.000   0.035
  0.000  -0.000  -0.000  -0.000  -0.002  -0.000   0.000   0.011   0.000   0.000  -0.000   0.028   0.000  -0.000   0.000   0.000
  0.000   0.000  -0.000   0.000  -0.000   0.000   0.000   0.000   1.037   0.000   0.000   0.000   0.000  -0.478  -0.000   0.000
  0.000   0.000  -0.061   0.000   0.000   0.028  -0.000   0.000   0.000   1.385   0.000   0.000  -0.000  -0.000  -0.642  -0.000
  0.008   0.325   0.000   0.146   0.000  -0.000  -0.075  -0.000   0.000   0.000   2.061   0.000   0.000   0.000  -0.000  -0.968
  0.000   0.000  -0.000   0.000  -0.061   0.000  -0.000   0.028   0.000   0.000   0.000   1.385   0.000  -0.000   0.000  -0.000
  0.000   0.000   0.000   0.000  -0.000  -0.000   0.000   0.000   0.000  -0.000   0.000   0.000   0.973  -0.000   0.000   0.000
  0.000   0.000   0.000   0.000   0.000  -0.000   0.000  -0.000  -0.478  -0.000   0.000  -0.000   0.000   0.222   0.000   0.000
 -0.000  -0.000   0.026  -0.000   0.000  -0.014   0.000   0.000  -0.000  -0.642  -0.000   0.000   0.000   0.000   0.300   0.000
 -0.013  -0.155  -0.000  -0.055  -0.000   0.000   0.035   0.000   0.000  -0.000  -0.968  -0.000   0.000   0.000   0.000   0.461
 -0.000  -0.000   0.000  -0.000   0.026   0.000   0.000  -0.014  -0.000   0.000  -0.000  -0.642  -0.000   0.000  -0.000   0.000
  0.000   0.000  -0.000   0.000   0.000   0.000   0.000  -0.000   0.000   0.000  -0.000  -0.000  -0.436   0.000  -0.000  -0.000
 -0.000   0.000   0.018   0.000   0.000  -0.003  -0.000   0.000   0.000   0.143  -0.000  -0.000  -0.000  -0.000  -0.065   0.000
  0.000  -0.000   0.000   0.000   0.000  -0.000   0.000  -0.000   0.022  -0.000   0.000  -0.000  -0.000  -0.005   0.000   0.000
 -0.000   0.000   0.030   0.000   0.000  -0.013  -0.000  -0.000  -0.000  -0.109   0.000  -0.000  -0.000   0.000   0.055  -0.000
 -0.027   0.198   0.000   0.036   0.000  -0.000  -0.036  -0.000  -0.000   0.000   0.643   0.000   0.000   0.000  -0.000  -0.304
 -0.000   0.000   0.000   0.000   0.030  -0.000  -0.000  -0.013  -0.000   0.000   0.000  -0.109   0.000   0.000  -0.000  -0.000
  0.000   0.000  -0.000   0.000   0.000   0.000  -0.000  -0.000   0.000   0.000   0.000  -0.000  -0.355   0.000  -0.000   0.000
  0.000   0.000   0.000  -0.000  -0.018  -0.000  -0.000   0.003  -0.000  -0.000   0.000  -0.143  -0.000   0.000   0.000  -0.000
 -0.000   0.000  -0.022  -0.000  -0.000   0.004   0.000  -0.000  -0.000  -0.196   0.000   0.000   0.000   0.000   0.088  -0.000
  0.000  -0.000  -0.000   0.000  -0.000   0.000   0.000   0.000  -0.043   0.000   0.000   0.000   0.000   0.013  -0.000   0.000
  0.000  -0.000  -0.044  -0.000   0.000   0.018   0.000   0.000   0.000   0.140  -0.000   0.000   0.000  -0.000  -0.070   0.000
  0.034  -0.258  -0.000  -0.063  -0.000   0.000   0.049   0.000   0.000  -0.000  -0.854  -0.000   0.000  -0.000   0.000   0.401
  0.000  -0.000  -0.000  -0.000  -0.044  -0.000   0.000   0.018   0.000   0.000  -0.000   0.140  -0.000  -0.000  -0.000   0.000
  0.000   0.000   0.000   0.000  -0.000  -0.000   0.000   0.000  -0.000  -0.000   0.000   0.000   0.469  -0.000   0.000   0.000
 -0.000   0.000   0.000   0.000   0.022  -0.000   0.000  -0.004   0.000   0.000  -0.000   0.196   0.000  -0.000   0.000   0.000
 total augmentation occupancy for first ion, spin component:           2
 -0.000  -0.001   0.000   0.000   0.000   0.000   0.000   0.000   0.000   0.000   0.001   0.000   0.000   0.000  -0.000  -0.001
 -0.001   0.007   0.000   0.002   0.000  -0.000  -0.001  -0.000   0.000   0.000   0.009   0.000   0.000   0.000  -0.000  -0.004
  0.000   0.000  -0.000   0.000  -0.000   0.000  -0.000   0.000   0.000   0.001   0.000  -0.000  -0.000  -0.000  -0.001  -0.000
  0.000   0.002   0.000   0.000   0.000  -0.000  -0.000  -0.000   0.000   0.000   0.004   0.000   0.000   0.000  -0.000  -0.001
  0.000   0.000  -0.000   0.000  -0.000   0.000  -0.000   0.000   0.000   0.000   0.000   0.001   0.000  -0.000   0.000  -0.000
  0.000  -0.000   0.000  -0.000   0.000  -0.000   0.000   0.000  -0.000  -0.000  -0.000  -0.000   0.000   0.000   0.000   0.000
  0.000  -0.001  -0.000  -0.000  -0.000   0.000   0.000   0.000   0.000  -0.000  -0.003  -0.000   0.000  -0.000   0.000   0.001
  0.000  -0.000   0.000  -0.000   0.000   0.000   0.000  -0.000  -0.000   0.000  -0.000  -0.000  -0.000   0.000  -0.000   0.000
  0.000   0.000   0.000   0.000   0.000  -0.000   0.000  -0.000  -0.009  -0.000   0.000  -0.000   0.000   0.004   0.000  -0.000
  0.000   0.000   0.001   0.000   0.000  -0.000  -0.000   0.000  -0.000  -0.006   0.000   0.000   0.000   0.000   0.003  -0.000
  0.001   0.009   0.000   0.004   0.000  -0.000  -0.003  -0.000   0.000   0.000   0.030   0.000   0.000   0.000  -0.000  -0.010
  0.000   0.000  -0.000   0.000   0.001  -0.000  -0.000  -0.000  -0.000   0.000   0.000  -0.006  -0.000   0.000   0.000  -0.000
  0.000   0.000  -0.000   0.000   0.000   0.000   0.000  -0.000   0.000   0.000   0.000  -0.000  -0.007  -0.000  -0.000   0.000
 -0.000   0.000  -0.000   0.000  -0.000   0.000  -0.000   0.000   0.004   0.000   0.000   0.000  -0.000  -0.002  -0.000   0.000
 -0.000  -0.000  -0.001  -0.000   0.000   0.000   0.000  -0.000   0.000   0.003  -0.000  -0.000  -0.000  -0.000  -0.001   0.000
 -0.001  -0.004  -0.000  -0.001  -0.000   0.000   0.001   0.000  -0.000  -0.000  -0.010  -0.000   0.000   0.000   0.000   0.004
 -0.000  -0.000   0.000  -0.000  -0.001   0.000   0.000   0.000   0.000   0.000  -0.000   0.003   0.000  -0.000  -0.000   0.000
  0.000   0.000   0.000   0.000  -0.000  -0.000   0.000   0.000   0.000  -0.000   0.000   0.000   0.002  -0.000   0.000   0.000
  0.000   0.000  -0.000  -0.000  -0.000   0.000   0.000  -0.000   0.000  -0.000   0.000  -0.000   0.000  -0.000   0.000  -0.000
 -0.000   0.000   0.000   0.000   0.000  -0.000   0.000  -0.000   0.003   0.000   0.000   0.000  -0.000  -0.001  -0.000   0.000
  0.000   0.000   0.000  -0.000  -0.000  -0.000  -0.000   0.000  -0.000   0.000   0.000   0.000   0.000   0.000  -0.000  -0.000
  0.000   0.003  -0.000  -0.000  -0.000  -0.000  -0.001  -0.000  -0.000   0.000   0.009   0.000   0.000   0.000  -0.000  -0.004
  0.000   0.000  -0.000  -0.000   0.000  -0.000  -0.000  -0.000  -0.000  -0.000   0.000   0.000  -0.000   0.000  -0.000  -0.000
  0.000   0.000  -0.000   0.000   0.000   0.000   0.000  -0.000  -0.000  -0.000   0.000   0.000   0.001   0.000   0.000   0.000
  0.000  -0.000   0.000   0.000   0.000  -0.000   0.000  -0.000  -0.000   0.000  -0.000   0.000   0.000   0.000  -0.000   0.000
  0.000  -0.000   0.000  -0.000   0.000   0.000   0.000  -0.000  -0.000   0.001  -0.000   0.000  -0.000   0.000  -0.000   0.000
 -0.000  -0.000  -0.000   0.000  -0.000   0.000   0.000   0.000  -0.004  -0.000  -0.000  -0.000  -0.000   0.002   0.000   0.000
  0.000  -0.000  -0.000  -0.000  -0.000   0.000   0.000  -0.000   0.000  -0.000  -0.000   0.000  -0.000  -0.000   0.000   0.000
  0.000  -0.006  -0.000  -0.001  -0.000   0.000   0.001   0.000  -0.000  -0.000  -0.020  -0.000   0.000   0.000   0.000   0.007
  0.000  -0.000   0.000  -0.000  -0.000   0.000   0.000   0.000   0.000   0.000  -0.000  -0.000   0.000  -0.000   0.000   0.000
 -0.000   0.000   0.000   0.000  -0.000  -0.000   0.000   0.000  -0.000   0.000   0.000  -0.000  -0.002  -0.000  -0.000   0.000
 -0.000  -0.000  -0.000   0.000  -0.000   0.000   0.000  -0.000   0.000   0.000   0.000  -0.001  -0.000  -0.000  -0.000  -0.000


------------------------ aborting loop because EDIFF is reached ----------------------------------------





 total charge

# of ion       s       p       d       f       tot
--------------------------------------------------
    1        2.005   5.692   0.574   0.218   8.490
    2        2.005   5.692   0.574   0.218   8.490
    3        0.236   6.226   7.907   0.000  14.369
    4        1.560   3.390   0.000   0.000   4.949
    5        1.560   3.390   0.000   0.000   4.949
    6        1.555   3.481   0.000   0.000   5.036
    7        1.555   3.481   0.000   0.000   5.036
--------------------------------------------------
tot         10.476  31.351   9.056   0.437  51.319



 magnetization (x)

# of ion       s       p       d       f       tot
--------------------------------------------------
    1        0.001   0.000   0.001  -0.011  -0.008
    2        0.001   0.000   0.001  -0.011  -0.008
    3        0.014   0.012   1.772   0.000   1.798
    4        0.003   0.034   0.000   0.000   0.037
    5        0.003   0.034   0.000   0.000   0.037
    6        0.009   0.076   0.000   0.000   0.084
    7        0.009   0.076   0.000   0.000   0.084
--------------------------------------------------
tot          0.039   0.231   1.774  -0.021   2.023

    CHARGE:  cpu time    0.1487: real time    0.1487
    FORLOC:  cpu time    0.0007: real time    0.0007
    FORNL :  cpu time    0.4766: real time    0.4767
    STRESS:  cpu time    3.9215: real time    3.9216
    FORCOR:  cpu time    0.0177: real time    0.0178
    FORHAR:  cpu time    0.0025: real time    0.0025
    MIXING:  cpu time    0.0017: real time    0.0017
    OFIELD:  cpu time    0.0000: real time    0.0000

  FORCE on cell =-STRESS in cart. coord.  units (eV):
  Direction    XX          YY          ZZ          XY          YZ          ZX
  --------------------------------------------------------------------------------------
  Alpha Z   277.90460   277.90460   277.90460
  Ewald   -1239.99050 -1239.99050 -2181.54660     0.00000     0.00000     0.00000
  Hartree  1062.53950  1062.53950   168.62869     0.00001    -0.00000    -0.00000
  E(xc)    -317.76164  -317.76164  -317.28745    -0.00000     0.00001     0.00001
  Local   -1124.79742 -1124.79742   706.53152     0.00002    -0.00014    -0.00014
  n-local   127.63492   124.80012   114.26132    -0.00094    -0.02990     0.03484
  augment   121.20316   121.20316   120.87802    -0.00024     0.00058     0.00058
  Kinetic  1085.81139  1100.87041  1108.87945    -0.00110     0.07641    -0.07812
  Fock        0.00000     0.00000     0.00000     0.00000     0.00000     0.00000
  -------------------------------------------------------------------------------------
  Total      -1.34387    -1.34387    -1.75043    -0.00000    -0.00000    -0.00000
  in kB     -21.89792   -21.89792   -28.52268    -0.00000    -0.00000    -0.00000
  external pressure =      -24.11 kB  Pullay stress =        0.00 kB


 VOLUME and BASIS-vectors are now :
 -----------------------------------------------------------------------------
  energy-cutoff  :      520.00
  volume of cell :       98.33
      direct lattice vectors                 reciprocal lattice vectors
     3.950078108  0.000000000  0.000000000     0.253159551 -0.000000000  0.079344369
     0.000000000  3.950078108  0.000000000    -0.000000000  0.253159551  0.079344369
    -1.975039054 -1.975039054  6.301644387     0.000000000  0.000000000  0.158688739

  length of vectors
     3.950078108  3.950078108  6.892915240     0.265302256  0.265302256  0.158688739


 FORCES acting on ions
    electron-ion (+dipol)            ewald-force                    non-local-force                 convergence-correction
 -----------------------------------------------------------------------------------------------
   0.608E-05 0.608E-05 0.335E+03   0.426E-11 0.426E-11 -.335E+03   0.451E-16 0.451E-16 0.238E+00   -.320E-06 -.320E-06 -.521E-01
   -.608E-05 -.608E-05 -.335E+03   -.425E-11 -.425E-11 0.335E+03   -.442E-16 -.451E-16 -.238E+00   0.320E-06 0.320E-06 0.521E-01
   0.291E-13 0.354E-14 -.133E-13   -.807E-14 0.231E-13 -.142E-12   0.000E+00 0.000E+00 0.000E+00   0.110E-13 0.396E-13 -.361E-13
   0.469E-04 0.469E-04 -.210E+03   0.473E-12 0.479E-12 0.209E+03   0.971E-16 0.971E-16 0.566E+00   -.124E-06 -.124E-06 0.269E-01
   -.469E-04 -.469E-04 0.210E+03   -.471E-12 -.483E-12 -.209E+03   -.971E-16 -.971E-16 -.566E+00   0.124E-06 0.124E-06 -.269E-01
   -.132E-12 -.676E-12 0.332E-11   -.110E-14 -.233E-14 -.284E-13   0.000E+00 0.000E+00 0.000E+00   -.327E-13 0.196E-13 -.349E-13
   -.545E-14 0.874E-13 0.221E-13   0.233E-14 -.239E-13 -.426E-13   0.000E+00 0.000E+00 0.000E+00   0.124E-13 -.701E-14 -.349E-13
 -----------------------------------------------------------------------------------------------
   0.944E-12 0.515E-11 0.553E-11   0.193E-14 0.117E-14 -.142E-13   0.867E-18 0.000E+00 0.000E+00   -.262E-13 0.438E-14 -.211E-13


 POSITION                                       TOTAL-FORCE (eV/Angst)
 -----------------------------------------------------------------------------------
      0.00000      0.00000      4.58096        -0.000000     -0.000000     -0.256062
      1.97504      1.97504      1.72069         0.000000      0.000000      0.256062
      0.00000      0.00000      0.00000        -0.000000      0.000000      0.000000
      0.00000      0.00000      2.25590        -0.000000     -0.000000     -0.029864
      1.97504      1.97504      4.04574         0.000000      0.000000      0.029864
      1.97504      0.00000      0.00000         0.000000      0.000000      0.000000
      0.00000      1.97504      0.00000        -0.000000      0.000000      0.000000
 -----------------------------------------------------------------------------------
    total drift:                                0.000000      0.000000      0.000000


--------------------------------------------------------------------------------------------------------



  FREE ENERGIE OF THE ION-ELECTRON SYSTEM (eV)
  ---------------------------------------------------
  free  energy   TOTEN  =       -50.66909684 eV

  energy  without entropy=      -50.66909684  energy(sigma->0) =      -50.66909684



--------------------------------------------------------------------------------------------------------


    POTLOK:  cpu time    0.9006: real time    0.9006


--------------------------------------------------------------------------------------------------------


 stress matrix after NEB project (eV)
     -1.34387      0.00000     -0.00000
     -0.00000     -1.34387     -0.00000
     -0.00000     -0.00000     -1.75043
  FORCES: max atom, RMS     0.256062    0.137798
  FORCE total and by dimension    0.364580    0.256062
  Stress total and by dimension    2.583793    1.750431
     LOOP+:  cpu time  124.4054: real time  124.4305
 -----------------------------------------------------------------------------
|                                                                             |
|           W    W    AA    RRRRR   N    N  II  N    N   GGGG   !!!           |
|           W    W   A  A   R    R  NN   N  II  NN   N  G    G  !!!           |
|           W    W  A    A  R    R  N N  N  II  N N  N  G       !!!           |
|           W WW W  AAAAAA  RRRRR   N  N N  II  N  N N  G  GGG   !            |
|           WW  WW  A    A  R   R   N   NN  II  N   NN  G    G                |
|           W    W  A    A  R    R  N    N  II  N    N   GGGG   !!!           |
|                                                                             |
|     Tetrahedron method does not include variations of the Fermi             |
|     occupations, so forces and stress will be inaccurate. We suggest        |
|     using a different smearing scheme ISMEAR = 1 or 2 for metals in         |
|     relaxations.                                                            |
|                                                                             |
 -----------------------------------------------------------------------------

    4ORBIT:  cpu time    0.0000: real time    0.0000



 total charge

# of ion       s       p       d       f       tot
--------------------------------------------------
    1        2.005   5.692   0.574   0.218   8.490
    2        2.005   5.692   0.574   0.218   8.490
    3        0.236   6.226   7.907   0.000  14.369
    4        1.560   3.390   0.000   0.000   4.949
    5        1.560   3.390   0.000   0.000   4.949
    6        1.555   3.481   0.000   0.000   5.036
    7        1.555   3.481   0.000   0.000   5.036
--------------------------------------------------
tot         10.476  31.351   9.056   0.437  51.319



 magnetization (x)

# of ion       s       p       d       f       tot
--------------------------------------------------
    1        0.001   0.000   0.001  -0.011  -0.008
    2        0.001   0.000   0.001  -0.011  -0.008
    3        0.014   0.012   1.772   0.000   1.798
    4        0.003   0.034   0.000   0.000   0.037
    5        0.003   0.034   0.000   0.000   0.037
    6        0.009   0.076   0.000   0.000   0.084
    7        0.009   0.076   0.000   0.000   0.084
--------------------------------------------------
tot          0.039   0.231   1.774  -0.021   2.023

 BZINTS: Fermi energy:    9.378368;   62.000000 electrons
         Band energy:-0.470083E+03;  BLOECHL correction:   -0.051831

 total amount of memory used by VASP MPI-rank0   168280. kBytes
=======================================================================

   base      :      30000. kBytes
   nonl-proj :     126381. kBytes
   fftplans  :        608. kBytes
   grid      :       5074. kBytes
   one-center:        688. kBytes
   wavefun   :       5529. kBytes

  
  
 General timing and accounting informations for this job:
 ========================================================
  
                  Total CPU time used (sec):      130.865
                            User time (sec):      128.401
                          System time (sec):        2.464
                         Elapsed time (sec):      130.656
  
                   Maximum memory used (kb):      144744.
                   Average memory used (kb):          N/A
  
                          Minor page faults:       125322
                          Major page faults:          523
                 Voluntary context switches:         3217
