 vasp.6.2.1 16May21 (build Aug 15 2022 14:47:30) complex                         
 executed on             LinuxGNU date 2025.12.30  16:12:29
 running on    4 total cores
 distrk:  each k-point on    4 cores,    1 groups
 distr:  one band on NCORE=   1 cores,    4 groups


--------------------------------------------------------------------------------------------------------


 INCAR:
   ALGO = Fast
   EDIFF = 1e-6
   ENCUT = 520.0
   ISMEAR = 1
   LASPH = True
   LCHARG = False
   LREAL = False
   LWAVE = False
   NELM = 100
   NSW = 0
   PREC = Accurate

 POTCAR:   PAW_PBE Si 05Jan2001                   
 POTCAR:   PAW_PBE Si 05Jan2001                   
   VRHFIN =Si: s2p2                                                                                 
   LEXCH  = PE                                                                                      
   EATOM  =   103.0669 eV,    7.5752 Ry                                                             
                                                                                                    
   TITEL  = PAW_PBE Si 05Jan2001                                                                    
   LULTRA =        F    use ultrasoft PP ?                                                          
   IUNSCR =        1    unscreen: 0-lin 1-nonlin 2-no                                               
   RPACOR =    1.500    partial core radius                                                         
   POMASS =   28.085; ZVAL   =    4.000    mass and valenz                                          
   RCORE  =    1.900    outmost cutoff radius                                                       
   RWIGS  =    2.480; RWIGS  =    1.312    wigner-seitz radius (au A)                               
   ENMAX  =  245.345; ENMIN  =  184.009 eV                                                          
   ICORE  =        2    local potential                                                             
   LCOR   =        T    correct aug charges                                                         
   LPAW   =        T    paw PP                                                                      
   EAUG   =  322.069                                                                                
   DEXC   =    -.007                                                                                
   RMAX   =    2.944    core radius for proj-oper                                                   
   RAUG   =    1.300    factor for augmentation sphere                                              
   RDEP   =    1.993    radius for radial grids                                                     
   QCUT   =   -4.246; QGAM   =    8.493    optimization parameters                                  
                                                                                                    
   Description                                                                                      
     l     E      TYP  RCUT    TYP  RCUT                                                            
     0   .000     23  1.900                                                                         
     0   .000     23  1.900                                                                         
     1   .000     23  1.900                                                                         
     1   .000     23  1.900                                                                         
     2   .000      7  1.900                                                                         
  local pseudopotential read in
  partial core-charges read in
  atomic valenz-charges read in
  non local Contribution for L=           0  read in
    real space projection operators read in
  non local Contribution for L=           0  read in
    real space projection operators read in
  non local Contribution for L=           1  read in
    real space projection operators read in
  non local Contribution for L=           1  read in
    real space projection operators read in
    PAW grid and wavefunctions read in

   number of l-projection  operators is LMAX  =           4
   number of lm-projection operators is LMMAX =           8

 PAW_PBE Si 05Jan2001                   :
 energy of atom  1       EATOM= -103.0669
 kinetic energy error for atom=    0.0005 (will be added to EATOM!!)


 POSCAR: # Generated by Masgent for EOS calculati
  positions in direct lattice
  No initial velocities read in
 exchange correlation table for  LEXCH =        8
   RHO(1)=    0.500       N(1)  =     2000
   RHO(2)=  100.500       N(2)  =     4000

 VTST: version 4.2, (08/11/21)

 CHAIN: initializing optimizer
 
 OPT: Using VASP Dynamics algorithm
 CHAIN: Read ICHAIN            0

 POSCAR: # Generated by Masgent for EOS calculati
  positions in direct lattice
  No initial velocities read in



--------------------------------------------------------------------------------------------------------


 ion  position               nearest neighbor table
   1  0.750  0.750  0.250-   2 2.37   4 2.37   8 2.37   6 2.37
   2  0.000  0.500  0.500-   1 2.37   3 2.37   7 2.37   5 2.37
   3  0.750  0.250  0.750-   2 2.37   4 2.37   6 2.37   8 2.37
   4  0.000  0.000  0.000-   1 2.37   3 2.37   5 2.37   7 2.37
   5  0.250  0.750  0.750-   4 2.37   6 2.37   8 2.37   2 2.37
   6  0.500  0.500  0.000-   3 2.37   5 2.37   7 2.37   1 2.37
   7  0.250  0.250  0.250-   2 2.37   6 2.37   8 2.37   4 2.37
   8  0.500  0.000  0.500-   1 2.37   5 2.37   7 2.37   3 2.37

  LATTYP: Found a simple cubic cell.
 ALAT       =     5.4797544327
  
  Lattice vectors:
  
 A1 = (   5.4797544327,   0.0000000000,   0.0000000000)
 A2 = (   0.0000000000,   5.4797544327,   0.0000000000)
 A3 = (   0.0000000000,   0.0000000000,   5.4797544327)


Analysis of symmetry for initial positions (statically):
=====================================================================
 Subroutine PRICEL returns following result:
 
  LATTYP: Found a face centered cubic cell.
 ALAT       =     5.4797544327
  
  Lattice vectors:
  
 A1 = (   2.7398772163,  -2.7398772163,   0.0000000000)
 A2 = (   2.7398772163,   0.0000000000,   2.7398772163)
 A3 = (   0.0000000000,  -2.7398772163,   2.7398772163)
 
   4 primitive cells build up your supercell.
 

 Routine SETGRP: Setting up the symmetry group for a 
 simple cubic supercell.


 Subroutine GETGRP returns: Found 48 space group operations
 (whereof 24 operations were pure point group operations)
 out of a pool of 48 trial point group operations.


The static configuration has the point symmetry T_d .
 The point group associated with its full space group is O_h .


Analysis of symmetry for dynamics (positions and initial velocities):
=====================================================================
 Subroutine PRICEL returns following result:
 
  LATTYP: Found a face centered cubic cell.
 ALAT       =     5.4797544327
  
  Lattice vectors:
  
 A1 = (   2.7398772163,  -2.7398772163,   0.0000000000)
 A2 = (   2.7398772163,   0.0000000000,   2.7398772163)
 A3 = (   0.0000000000,  -2.7398772163,   2.7398772163)
 
   4 primitive cells build up your supercell.
 

 Routine SETGRP: Setting up the symmetry group for a 
 simple cubic supercell.


 Subroutine GETGRP returns: Found 48 space group operations
 (whereof 24 operations were pure point group operations)
 out of a pool of 48 trial point group operations.


The dynamic configuration has the point symmetry T_d .
 The point group associated with its full space group is O_h .


 Subroutine INISYM returns: Found 48 space group operations
 (whereof 24 operations are pure point group operations),
 and found     4 'primitive' translations


----------------------------------------------------------------------------------------

                                     Primitive cell                                     

  volume of cell :      41.1361

  direct lattice vectors                    reciprocal lattice vectors
     2.739877216 -2.739877216  0.000000000     0.182489929 -0.182489929 -0.182489929
     2.739877216  0.000000000  2.739877216     0.182489929  0.182489929  0.182489929
     0.000000000 -2.739877216  2.739877216    -0.182489929 -0.182489929  0.182489929

  length of vectors
     3.874771519  3.874771519  3.874771519     0.316081830  0.316081830  0.316081830

  position of ions in fractional coordinates (direct lattice)
     0.750000000  0.750000000  0.750000000
     0.000000000  0.000000000  0.000000000

  ion indices of the primitive-cell ions
   primitive index   ion index
                 1           1
                 2           2

----------------------------------------------------------------------------------------



 KPOINTS: # Generated by Masgent for EOS calculati

Automatic generation of k-mesh.
 Grid dimensions read from file:
 generate k-points for:    5    5    5

 Generating k-lattice:

  Cartesian coordinates                     Fractional coordinates (reciprocal lattice)
     0.036497986 -0.000000000  0.000000000     0.200000000  0.000000000  0.000000000
     0.000000000  0.036497986  0.000000000     0.000000000  0.200000000  0.000000000
    -0.000000000 -0.000000000  0.036497986     0.000000000 -0.000000000  0.200000000

  Length of vectors
     0.036497986  0.036497986  0.036497986

  Shift w.r.t. Gamma in fractional coordinates (k-lattice)
     0.000000000  0.000000000  0.000000000

 
 Subroutine IBZKPT returns following result:
 ===========================================
 
 Found     10 irreducible k-points:
 
 Following reciprocal coordinates:
            Coordinates               Weight
  0.000000  0.000000  0.000000      1.000000
  0.200000  0.000000  0.000000      6.000000
  0.400000  0.000000  0.000000      6.000000
  0.200000  0.200000  0.000000     12.000000
  0.400000  0.200000  0.000000     24.000000
  0.400000  0.400000  0.000000     12.000000
  0.200000  0.200000  0.200000      8.000000
  0.400000  0.200000  0.200000     24.000000
  0.400000  0.400000  0.200000     24.000000
  0.400000  0.400000  0.400000      8.000000
 
 Following cartesian coordinates:
            Coordinates               Weight
  0.000000  0.000000  0.000000      1.000000
  0.036498  0.000000  0.000000      6.000000
  0.072996  0.000000  0.000000      6.000000
  0.036498  0.036498  0.000000     12.000000
  0.072996  0.036498  0.000000     24.000000
  0.072996  0.072996  0.000000     12.000000
  0.036498  0.036498  0.036498      8.000000
  0.072996  0.036498  0.036498     24.000000
  0.072996  0.072996  0.036498     24.000000
  0.072996  0.072996  0.072996      8.000000
 


--------------------------------------------------------------------------------------------------------




 Dimension of arrays:
   k-points           NKPTS =     10   k-points in BZ     NKDIM =     10   number of bands    NBANDS=     24
   number of dos      NEDOS =    301   number of ions     NIONS =      8
   non local maximal  LDIM  =      4   non local SUM 2l+1 LMDIM =      8
   total plane-waves  NPLWV =  74088
   max r-space proj   IRMAX =      1   max aug-charges    IRDMAX=  15252
   dimension x,y,z NGX =    42 NGY =   42 NGZ =   42
   dimension x,y,z NGXF=    84 NGYF=   84 NGZF=   84
   support grid    NGXF=    84 NGYF=   84 NGZF=   84
   ions per type =               8
   NGX,Y,Z   is equivalent  to a cutoff of  12.74, 12.74, 12.74 a.u.
   NGXF,Y,Z  is equivalent  to a cutoff of  25.48, 25.48, 25.48 a.u.

 SYSTEM =  unknown system                          
 POSCAR =  # Generated by Masgent for EOS calculati

 Startparameter for this run:
   NWRITE =      2    write-flag & timer
   PREC   = accura    normal or accurate (medium, high low for compatibility)
   ISTART =      0    job   : 0-new  1-cont  2-samecut
   ICHARG =      2    charge: 1-file 2-atom 10-const
   ISPIN  =      1    spin polarized calculation?
   LNONCOLLINEAR =      F non collinear calculations
   LSORBIT =      F    spin-orbit coupling
   INIWAV =      1    electr: 0-lowe 1-rand  2-diag
   LASPH  =      T    aspherical Exc in radial PAW
 Electronic Relaxation 1
   ENCUT  =  520.0 eV  38.22 Ry    6.18 a.u.  10.19 10.19 10.19*2*pi/ulx,y,z
   ENINI  =  520.0     initial cutoff
   ENAUG  =  322.1 eV  augmentation charge cutoff
   NELM   =    100;   NELMIN=  2; NELMDL=  0     # of ELM steps 
   EDIFF  = 0.1E-05   stopping-criterion for ELM
   LREAL  =      F    real-space projection
   NLSPLINE    = F    spline interpolate recip. space projectors
   LCOMPAT=      F    compatible to vasp.4.4
   GGA_COMPAT  = T    GGA compatible to vasp.4.4-vasp.4.6
   LMAXPAW     = -100 max onsite density
   LMAXMIX     =    2 max onsite mixed and CHGCAR
   VOSKOWN=      0    Vosko Wilk Nusair interpolation
   ROPT   =    0.00000
 Ionic relaxation
   EDIFFG = 0.1E-04   stopping-criterion for IOM
   NSW    =      0    number of steps for IOM
   NBLOCK =      1;   KBLOCK =      1    inner block; outer block 
   IBRION =     -1    ionic relax: 0-MD 1-quasi-New 2-CG
   NFREE  =      0    steps in history (QN), initial steepest desc. (CG)
   ISIF   =      2    stress and relaxation
   IWAVPR =     10    prediction:  0-non 1-charg 2-wave 3-comb
   ISYM   =      2    0-nonsym 1-usesym 2-fastsym
   LCORR  =      T    Harris-Foulkes like correction to forces

   POTIM  = 0.5000    time-step for ionic-motion
   TEIN   =    0.0    initial temperature
   TEBEG  =    0.0;   TEEND  =   0.0 temperature during run
   SMASS  =  -3.00    Nose mass-parameter (am)
   estimated Nose-frequenzy (Omega)   =  0.10E-29 period in steps = 0.13E+47 mass=  -0.686E-27a.u.
   SCALEE = 1.0000    scale energy and forces
   NPACO  =    256;   APACO  = 16.0  distance and # of slots for P.C.
   PSTRESS=    0.0 pullay stress

  Mass of Ions in am
   POMASS =  28.09
  Ionic Valenz
   ZVAL   =   4.00
  Atomic Wigner-Seitz radii
   RWIGS  =  -1.00
  virtual crystal weights 
   VCA    =   1.00
   NELECT =      32.0000    total number of electrons
   NUPDOWN=      -1.0000    fix difference up-down

 DOS related values:
   EMIN   =  10.00;   EMAX   =-10.00  energy-range for DOS
   EFERMI =   0.00
   ISMEAR =     1;   SIGMA  =   0.20  broadening in eV -4-tet -1-fermi 0-gaus

 Electronic relaxation 2 (details)
   IALGO  =     68    algorithm
   LDIAG  =      T    sub-space diagonalisation (order eigenvalues)
   LSUBROT=      F    optimize rotation matrix (better conditioning)
   TURBO    =      0    0=normal 1=particle mesh
   IRESTART =      0    0=no restart 2=restart with 2 vectors
   NREBOOT  =      0    no. of reboots
   NMIN     =      0    reboot dimension
   EREF     =   0.00    reference energy to select bands
   IMIX   =      4    mixing-type and parameters
     AMIX     =   0.40;   BMIX     =  1.00
     AMIX_MAG =   1.60;   BMIX_MAG =  1.00
     AMIN     =   0.10
     WC   =   100.;   INIMIX=   1;  MIXPRE=   1;  MAXMIX= -45

 Intra band minimization:
   WEIMIN = 0.0000     energy-eigenvalue tresh-hold
   EBREAK =  0.10E-07  absolut break condition
   DEPER  =   0.30     relativ break condition  

   TIME   =   0.40     timestep for ELM

  volume/ion in A,a.u.               =      20.57       138.80
  Fermi-wavevector in a.u.,A,eV,Ry     =   0.948485  1.792376 12.240121  0.899623
  Thomas-Fermi vector in A             =   2.076678

 Write flags
   LWAVE        =      F    write WAVECAR
   LDOWNSAMPLE  =      F    k-point downsampling of WAVECAR
   LCHARG       =      F    write CHGCAR
   LVTOT        =      F    write LOCPOT, total local potential
   LVHAR        =      F    write LOCPOT, Hartree potential only
   LELF         =      F    write electronic localiz. function (ELF)
   LORBIT       =      0    0 simple, 1 ext, 2 COOP (PROOUT), +10 PAW based schemes


 Dipole corrections
   LMONO  =      F    monopole corrections only (constant potential shift)
   LDIPOL =      F    correct potential (dipole corrections)
   IDIPOL =      0    1-x, 2-y, 3-z, 4-all directions 
   EPSILON=  1.0000000 bulk dielectric constant

 Exchange correlation treatment:
   GGA     =    --    GGA type
   LEXCH   =     8    internal setting for exchange type
   VOSKOWN=      0    Vosko Wilk Nusair interpolation
   LHFCALC =     F    Hartree Fock is set to
   LHFONE  =     F    Hartree Fock one center treatment
   AEXX    =    0.0000 exact exchange contribution

 Linear response parameters
   LEPSILON=     F    determine dielectric tensor
   LRPA    =     F    only Hartree local field effects (RPA)
   LNABLA  =     F    use nabla operator in PAW spheres
   LVEL    =     F    velocity operator in full k-point grid
   LINTERFAST=   F  fast interpolation
   KINTER  =     0    interpolate to denser k-point grid
   CSHIFT  =0.1000    complex shift for real part using Kramers Kronig
   OMEGAMAX=  -1.0    maximum frequency
   DEG_THRESHOLD= 0.2000000E-02 threshold for treating states as degnerate
   RTIME   =   -0.100 relaxation time in fs
  (WPLASMAI=    0.000 imaginary part of plasma frequency in eV, 0.658/RTIME)
   DFIELD  = 0.0000000 0.0000000 0.0000000 field for delta impulse in time

 Orbital magnetization related:
   ORBITALMAG=     F  switch on orbital magnetization
   LCHIMAG   =     F  perturbation theory with respect to B field
   DQ        =  0.001000  dq finite difference perturbation B field
   LLRAUG    =     F  two centre corrections for induced B field



--------------------------------------------------------------------------------------------------------


 Static calculation
 charge density and potential will be updated during run
 non-spin polarized calculation
 RMM-DIIS sequential band-by-band and
  variant of blocked Davidson during initial phase
 perform sub-space diagonalisation
    before iterative eigenvector-optimisation
 modified Broyden-mixing scheme, WC =      100.0
 initial mixing is a Kerker type mixing with AMIX =  0.4000 and BMIX =      1.0000
 Hartree-type preconditioning will be used
 using additional bands            8
 reciprocal scheme for non local part
 use partial core corrections
 calculate Harris-corrections to forces   (improved forces if not selfconsistent)
 use gradient corrections 
 use of overlap-Matrix (Vanderbilt PP)
 Methfessel and Paxton  Order N= 1 SIGMA  =   0.20


--------------------------------------------------------------------------------------------------------


  energy-cutoff  :      520.00
  volume of cell :      164.54
      direct lattice vectors                 reciprocal lattice vectors
     5.479754433  0.000000000  0.000000000     0.182489929 -0.000000000  0.000000000
     0.000000000  5.479754433  0.000000000     0.000000000  0.182489929  0.000000000
     0.000000000  0.000000000  5.479754433    -0.000000000 -0.000000000  0.182489929

  length of vectors
     5.479754433  5.479754433  5.479754433     0.182489929  0.182489929  0.182489929



 k-points in units of 2pi/SCALE and weight: # Generated by Masgent for EOS calculati
   0.00000000  0.00000000  0.00000000       0.008
   0.03649799  0.00000000  0.00000000       0.048
   0.07299597  0.00000000  0.00000000       0.048
   0.03649799  0.03649799  0.00000000       0.096
   0.07299597  0.03649799  0.00000000       0.192
   0.07299597  0.07299597  0.00000000       0.096
   0.03649799  0.03649799  0.03649799       0.064
   0.07299597  0.03649799  0.03649799       0.192
   0.07299597  0.07299597  0.03649799       0.192
   0.07299597  0.07299597  0.07299597       0.064

 k-points in reciprocal lattice and weights: # Generated by Masgent for EOS calculati
   0.00000000  0.00000000  0.00000000       0.008
   0.20000000  0.00000000  0.00000000       0.048
   0.40000000  0.00000000  0.00000000       0.048
   0.20000000  0.20000000  0.00000000       0.096
   0.40000000  0.20000000  0.00000000       0.192
   0.40000000  0.40000000  0.00000000       0.096
   0.20000000  0.20000000  0.20000000       0.064
   0.40000000  0.20000000  0.20000000       0.192
   0.40000000  0.40000000  0.20000000       0.192
   0.40000000  0.40000000  0.40000000       0.064

 position of ions in fractional coordinates (direct lattice) 
   0.75000000  0.75000000  0.25000000
   0.00000000  0.50000000  0.50000000
   0.75000000  0.25000000  0.75000000
   0.00000000  0.00000000  0.00000000
   0.25000000  0.75000000  0.75000000
   0.50000000  0.50000000  0.00000000
   0.25000000  0.25000000  0.25000000
   0.50000000  0.00000000  0.50000000

 position of ions in cartesian coordinates  (Angst):
   4.10981582  4.10981582  1.36993861
   0.00000000  2.73987722  2.73987722
   4.10981582  1.36993861  4.10981582
   0.00000000  0.00000000  0.00000000
   1.36993861  4.10981582  4.10981582
   2.73987722  2.73987722  0.00000000
   1.36993861  1.36993861  1.36993861
   2.73987722  0.00000000  2.73987722



--------------------------------------------------------------------------------------------------------


 k-point   1 :   0.0000 0.0000 0.0000  plane waves:    4385
 k-point   2 :   0.2000 0.0000 0.0000  plane waves:    4428
 k-point   3 :   0.4000 0.0000 0.0000  plane waves:    4432
 k-point   4 :   0.2000 0.2000 0.0000  plane waves:    4419
 k-point   5 :   0.4000 0.2000 0.0000  plane waves:    4431
 k-point   6 :   0.4000 0.4000 0.0000  plane waves:    4426
 k-point   7 :   0.2000 0.2000 0.2000  plane waves:    4419
 k-point   8 :   0.4000 0.2000 0.2000  plane waves:    4413
 k-point   9 :   0.4000 0.4000 0.2000  plane waves:    4447
 k-point  10 :   0.4000 0.4000 0.4000  plane waves:    4428

 maximum and minimum number of plane-waves per node :      4447     4385

 maximum number of plane-waves:      4447
 maximum index in each direction: 
   IXMAX=   10   IYMAX=   10   IZMAX=   10
   IXMIN=  -10   IYMIN=  -10   IZMIN=  -10


 serial   3D FFT for wavefunctions
 parallel 3D FFT for charge:
    minimum data exchange during FFTs selected (reduces bandwidth)


 total amount of memory used by VASP MPI-rank0    53389. kBytes
=======================================================================

   base      :      30000. kBytes
   nonl-proj :       3416. kBytes
   fftplans  :       5401. kBytes
   grid      :      10217. kBytes
   one-center:         24. kBytes
   wavefun   :       4331. kBytes

     INWAV:  cpu time    0.0000: real time    0.0002
 Broyden mixing: mesh for mixing (old mesh)
   NGX = 21   NGY = 21   NGZ = 21
  (NGX  = 84   NGY  = 84   NGZ  = 84)
  gives a total of   9261 points

 initial charge density was supplied:
 charge density of overlapping atoms calculated
 number of electron      32.0000000 magnetization 
 keeping initial charge density in first step


--------------------------------------------------------------------------------------------------------


 Maximum index for augmentation-charges         3659 (set IRDMAX)


--------------------------------------------------------------------------------------------------------


 First call to EWALD:  gamma=   0.323
 Maximum number of real-space cells 3x 3x 3
 Maximum number of reciprocal cells 3x 3x 3

    FEWALD:  cpu time    0.0005: real time    0.0005


--------------------------------------- Iteration      1(   1)  ---------------------------------------


    POTLOK:  cpu time    0.0495: real time    0.0502
    SETDIJ:  cpu time    0.0525: real time    0.0525
     EDDAV:  cpu time    0.4253: real time    0.4255
       DOS:  cpu time    0.0003: real time    0.0003
    --------------------------------------------
      LOOP:  cpu time    0.5276: real time    0.5285

 eigenvalue-minimisations  :   480
 total energy-change (2. order) : 0.6794192E+02  (-0.1190144E+04)
 number of electron      32.0000000 magnetization 
 augmentation part       32.0000000 magnetization 

 Free energy of the ion-electron system (eV)
  ---------------------------------------------------
  alpha Z        PSCENC =        13.09334202
  Ewald energy   TEWEN  =      -905.95299492
  -Hartree energ DENC   =       -45.66234021
  -exchange      EXHF   =         0.00000000
  -V(xc)+E(xc)   XCENC  =       -74.83437952
  PAW double counting   =       263.82083246     -123.07410713
  entropy T*S    EENTRO =        -0.00168685
  eigenvalues    EBANDS =       116.02243984
  atomic energy  EATOM  =       824.53081094
  Solvation  Ediel_sol  =         0.00000000
  ---------------------------------------------------
  free energy    TOTEN  =        67.94191663 eV

  energy without entropy =       67.94360348  energy(sigma->0) =       67.94247891


--------------------------------------------------------------------------------------------------------




--------------------------------------- Iteration      1(   2)  ---------------------------------------


     EDDAV:  cpu time    0.5303: real time    0.5305
       DOS:  cpu time    0.0002: real time    0.0003
    --------------------------------------------
      LOOP:  cpu time    0.5305: real time    0.5308

 eigenvalue-minimisations  :   664
 total energy-change (2. order) :-0.1068995E+03  (-0.9998727E+02)
 number of electron      32.0000000 magnetization 
 augmentation part       32.0000000 magnetization 

 Free energy of the ion-electron system (eV)
  ---------------------------------------------------
  alpha Z        PSCENC =        13.09334202
  Ewald energy   TEWEN  =      -905.95299492
  -Hartree energ DENC   =       -45.66234021
  -exchange      EXHF   =         0.00000000
  -V(xc)+E(xc)   XCENC  =       -74.83437952
  PAW double counting   =       263.82083246     -123.07410713
  entropy T*S    EENTRO =         0.00215393
  eigenvalues    EBANDS =         9.11912948
  atomic energy  EATOM  =       824.53081094
  Solvation  Ediel_sol  =         0.00000000
  ---------------------------------------------------
  free energy    TOTEN  =       -38.95755295 eV

  energy without entropy =      -38.95970688  energy(sigma->0) =      -38.95827093


--------------------------------------------------------------------------------------------------------




--------------------------------------- Iteration      1(   3)  ---------------------------------------


     EDDAV:  cpu time    0.4949: real time    0.4951
       DOS:  cpu time    0.0002: real time    0.0003
    --------------------------------------------
      LOOP:  cpu time    0.4952: real time    0.4953

 eigenvalue-minimisations  :   616
 total energy-change (2. order) :-0.5005625E+01  (-0.4938629E+01)
 number of electron      32.0000000 magnetization 
 augmentation part       32.0000000 magnetization 

 Free energy of the ion-electron system (eV)
  ---------------------------------------------------
  alpha Z        PSCENC =        13.09334202
  Ewald energy   TEWEN  =      -905.95299492
  -Hartree energ DENC   =       -45.66234021
  -exchange      EXHF   =         0.00000000
  -V(xc)+E(xc)   XCENC  =       -74.83437952
  PAW double counting   =       263.82083246     -123.07410713
  entropy T*S    EENTRO =         0.00178363
  eigenvalues    EBANDS =         4.11387445
  atomic energy  EATOM  =       824.53081094
  Solvation  Ediel_sol  =         0.00000000
  ---------------------------------------------------
  free energy    TOTEN  =       -43.96317828 eV

  energy without entropy =      -43.96496191  energy(sigma->0) =      -43.96377282


--------------------------------------------------------------------------------------------------------




--------------------------------------- Iteration      1(   4)  ---------------------------------------


     EDDAV:  cpu time    0.4700: real time    0.4703
       DOS:  cpu time    0.0002: real time    0.0003
    --------------------------------------------
      LOOP:  cpu time    0.4702: real time    0.4705

 eigenvalue-minimisations  :   584
 total energy-change (2. order) :-0.8767064E-01  (-0.8752372E-01)
 number of electron      32.0000000 magnetization 
 augmentation part       32.0000000 magnetization 

 Free energy of the ion-electron system (eV)
  ---------------------------------------------------
  alpha Z        PSCENC =        13.09334202
  Ewald energy   TEWEN  =      -905.95299492
  -Hartree energ DENC   =       -45.66234021
  -exchange      EXHF   =         0.00000000
  -V(xc)+E(xc)   XCENC  =       -74.83437952
  PAW double counting   =       263.82083246     -123.07410713
  entropy T*S    EENTRO =         0.00178844
  eigenvalues    EBANDS =         4.02619901
  atomic energy  EATOM  =       824.53081094
  Solvation  Ediel_sol  =         0.00000000
  ---------------------------------------------------
  free energy    TOTEN  =       -44.05084891 eV

  energy without entropy =      -44.05263735  energy(sigma->0) =      -44.05144506


--------------------------------------------------------------------------------------------------------




--------------------------------------- Iteration      1(   5)  ---------------------------------------


     EDDAV:  cpu time    0.4944: real time    0.4945
       DOS:  cpu time    0.0002: real time    0.0003
    CHARGE:  cpu time    0.0623: real time    0.0624
    MIXING:  cpu time    0.0015: real time    0.0016
    --------------------------------------------
      LOOP:  cpu time    0.5585: real time    0.5588

 eigenvalue-minimisations  :   632
 total energy-change (2. order) :-0.2118747E-02  (-0.2117934E-02)
 number of electron      31.9999994 magnetization 
 augmentation part       -1.8771279 magnetization 

 Broyden mixing:
  rms(total) = 0.58871E+00    rms(broyden)= 0.58871E+00
  rms(prec ) = 0.10902E+01
  weight for this iteration     100.00

 Free energy of the ion-electron system (eV)
  ---------------------------------------------------
  alpha Z        PSCENC =        13.09334202
  Ewald energy   TEWEN  =      -905.95299492
  -Hartree energ DENC   =       -45.66234021
  -exchange      EXHF   =         0.00000000
  -V(xc)+E(xc)   XCENC  =       -74.83437952
  PAW double counting   =       263.82083246     -123.07410713
  entropy T*S    EENTRO =         0.00178833
  eigenvalues    EBANDS =         4.02408037
  atomic energy  EATOM  =       824.53081094
  Solvation  Ediel_sol  =         0.00000000
  ---------------------------------------------------
  free energy    TOTEN  =       -44.05296766 eV

  energy without entropy =      -44.05475599  energy(sigma->0) =      -44.05356377


--------------------------------------------------------------------------------------------------------




--------------------------------------- Iteration      1(   6)  ---------------------------------------


    POTLOK:  cpu time    0.0479: real time    0.0480
    SETDIJ:  cpu time    0.0528: real time    0.0528
    EDDIAG:  cpu time    0.0930: real time    0.0931
  RMM-DIIS:  cpu time    0.3436: real time    0.3436
    ORTHCH:  cpu time    0.0041: real time    0.0041
       DOS:  cpu time    0.0003: real time    0.0004
    CHARGE:  cpu time    0.0565: real time    0.0565
    MIXING:  cpu time    0.0010: real time    0.0010
    --------------------------------------------
      LOOP:  cpu time    0.5991: real time    0.5995

 eigenvalue-minimisations  :   480
 total energy-change (2. order) : 0.4556677E+00  (-0.2161031E-01)
 number of electron      31.9999994 magnetization 
 augmentation part       -1.8563018 magnetization 

 Broyden mixing:
  rms(total) = 0.35320E+00    rms(broyden)= 0.35320E+00
  rms(prec ) = 0.65119E+00
  weight for this iteration     100.00

 eigenvalues of (default mixing * dielectric matrix)
  average eigenvalue GAMMA=   2.4848
  2.4848

 Free energy of the ion-electron system (eV)
  ---------------------------------------------------
  alpha Z        PSCENC =        13.09334202
  Ewald energy   TEWEN  =      -905.95299492
  -Hartree energ DENC   =       -51.47970887
  -exchange      EXHF   =         0.00000000
  -V(xc)+E(xc)   XCENC  =       -73.92091910
  PAW double counting   =       278.32192105     -137.97632434
  entropy T*S    EENTRO =         0.00177641
  eigenvalues    EBANDS =         9.78479685
  atomic energy  EATOM  =       824.53081094
  Solvation  Ediel_sol  =         0.00000000
  ---------------------------------------------------
  free energy    TOTEN  =       -43.59729998 eV

  energy without entropy =      -43.59907638  energy(sigma->0) =      -43.59789211


--------------------------------------------------------------------------------------------------------




--------------------------------------- Iteration      1(   7)  ---------------------------------------


    POTLOK:  cpu time    0.0458: real time    0.0459
    SETDIJ:  cpu time    0.0523: real time    0.0523
    EDDIAG:  cpu time    0.0936: real time    0.0936
  RMM-DIIS:  cpu time    0.3514: real time    0.3514
    ORTHCH:  cpu time    0.0040: real time    0.0040
       DOS:  cpu time    0.0002: real time    0.0004
    CHARGE:  cpu time    0.0565: real time    0.0566
    MIXING:  cpu time    0.0010: real time    0.0010
    --------------------------------------------
      LOOP:  cpu time    0.6048: real time    0.6052

 eigenvalue-minimisations  :   509
 total energy-change (2. order) : 0.2140361E+00  (-0.5347728E-01)
 number of electron      31.9999994 magnetization 
 augmentation part       -1.8273687 magnetization 

 Broyden mixing:
  rms(total) = 0.29226E-01    rms(broyden)= 0.29226E-01
  rms(prec ) = 0.50446E-01
  weight for this iteration     100.00

 eigenvalues of (default mixing * dielectric matrix)
  average eigenvalue GAMMA=   2.7618
  2.7618  2.7618

 Free energy of the ion-electron system (eV)
  ---------------------------------------------------
  alpha Z        PSCENC =        13.09334202
  Ewald energy   TEWEN  =      -905.95299492
  -Hartree energ DENC   =       -61.21600645
  -exchange      EXHF   =         0.00000000
  -V(xc)+E(xc)   XCENC  =       -72.36684477
  PAW double counting   =       297.93748005     -158.12141128
  entropy T*S    EENTRO =         0.00182807
  eigenvalues    EBANDS =        18.71053244
  atomic energy  EATOM  =       824.53081094
  Solvation  Ediel_sol  =         0.00000000
  ---------------------------------------------------
  free energy    TOTEN  =       -43.38326391 eV

  energy without entropy =      -43.38509198  energy(sigma->0) =      -43.38387327


--------------------------------------------------------------------------------------------------------




--------------------------------------- Iteration      1(   8)  ---------------------------------------


    POTLOK:  cpu time    0.0440: real time    0.0442
    SETDIJ:  cpu time    0.0520: real time    0.0520
    EDDIAG:  cpu time    0.0967: real time    0.0967
  RMM-DIIS:  cpu time    0.3416: real time    0.3416
    ORTHCH:  cpu time    0.0041: real time    0.0041
       DOS:  cpu time    0.0002: real time    0.0004
    CHARGE:  cpu time    0.0568: real time    0.0568
    MIXING:  cpu time    0.0010: real time    0.0010
    --------------------------------------------
      LOOP:  cpu time    0.5964: real time    0.5967

 eigenvalue-minimisations  :   504
 total energy-change (2. order) :-0.8658138E-02  (-0.5022549E-02)
 number of electron      31.9999994 magnetization 
 augmentation part       -1.8325878 magnetization 

 Broyden mixing:
  rms(total) = 0.82195E-02    rms(broyden)= 0.82195E-02
  rms(prec ) = 0.19783E-01
  weight for this iteration     100.00

 eigenvalues of (default mixing * dielectric matrix)
  average eigenvalue GAMMA=   2.1087
  2.7316  1.7972  1.7972

 Free energy of the ion-electron system (eV)
  ---------------------------------------------------
  alpha Z        PSCENC =        13.09334202
  Ewald energy   TEWEN  =      -905.95299492
  -Hartree energ DENC   =       -60.69469465
  -exchange      EXHF   =         0.00000000
  -V(xc)+E(xc)   XCENC  =       -72.39172471
  PAW double counting   =       292.91280664     -152.94177971
  entropy T*S    EENTRO =         0.00178674
  eigenvalues    EBANDS =        18.05052560
  atomic energy  EATOM  =       824.53081094
  Solvation  Ediel_sol  =         0.00000000
  ---------------------------------------------------
  free energy    TOTEN  =       -43.39192205 eV

  energy without entropy =      -43.39370879  energy(sigma->0) =      -43.39251763


--------------------------------------------------------------------------------------------------------




--------------------------------------- Iteration      1(   9)  ---------------------------------------


    POTLOK:  cpu time    0.0463: real time    0.0465
    SETDIJ:  cpu time    0.0520: real time    0.0520
    EDDIAG:  cpu time    0.0966: real time    0.0966
  RMM-DIIS:  cpu time    0.3598: real time    0.3600
    ORTHCH:  cpu time    0.0044: real time    0.0044
       DOS:  cpu time    0.0002: real time    0.0004
    CHARGE:  cpu time    0.0609: real time    0.0609
    MIXING:  cpu time    0.0017: real time    0.0017
    --------------------------------------------
      LOOP:  cpu time    0.6219: real time    0.6225

 eigenvalue-minimisations  :   547
 total energy-change (2. order) :-0.1015901E-02  (-0.1287484E-02)
 number of electron      31.9999994 magnetization 
 augmentation part       -1.8310562 magnetization 

 Broyden mixing:
  rms(total) = 0.78343E-02    rms(broyden)= 0.78343E-02
  rms(prec ) = 0.12769E-01
  weight for this iteration     100.00

 eigenvalues of (default mixing * dielectric matrix)
  average eigenvalue GAMMA=   2.1536
  2.9761  2.9761  0.9493  1.7131

 Free energy of the ion-electron system (eV)
  ---------------------------------------------------
  alpha Z        PSCENC =        13.09334202
  Ewald energy   TEWEN  =      -905.95299492
  -Hartree energ DENC   =       -61.09310737
  -exchange      EXHF   =         0.00000000
  -V(xc)+E(xc)   XCENC  =       -72.33663741
  PAW double counting   =       294.07803798     -154.14124057
  entropy T*S    EENTRO =         0.00179234
  eigenvalues    EBANDS =        18.42705906
  atomic energy  EATOM  =       824.53081094
  Solvation  Ediel_sol  =         0.00000000
  ---------------------------------------------------
  free energy    TOTEN  =       -43.39293795 eV

  energy without entropy =      -43.39473029  energy(sigma->0) =      -43.39353539


--------------------------------------------------------------------------------------------------------




--------------------------------------- Iteration      1(  10)  ---------------------------------------


    POTLOK:  cpu time    0.0570: real time    0.0572
    SETDIJ:  cpu time    0.0522: real time    0.0522
    EDDIAG:  cpu time    0.0977: real time    0.0977
  RMM-DIIS:  cpu time    0.3424: real time    0.3424
    ORTHCH:  cpu time    0.0043: real time    0.0043
       DOS:  cpu time    0.0003: real time    0.0004
    CHARGE:  cpu time    0.0586: real time    0.0587
    MIXING:  cpu time    0.0013: real time    0.0013
    --------------------------------------------
      LOOP:  cpu time    0.6138: real time    0.6142

 eigenvalue-minimisations  :   517
 total energy-change (2. order) :-0.3828553E-03  (-0.3087656E-03)
 number of electron      31.9999994 magnetization 
 augmentation part       -1.8326704 magnetization 

 Broyden mixing:
  rms(total) = 0.45591E-02    rms(broyden)= 0.45591E-02
  rms(prec ) = 0.93226E-02
  weight for this iteration     100.00

 eigenvalues of (default mixing * dielectric matrix)
  average eigenvalue GAMMA=   2.0548
  3.3371  2.7222  2.2749  1.0897  0.8502

 Free energy of the ion-electron system (eV)
  ---------------------------------------------------
  alpha Z        PSCENC =        13.09334202
  Ewald energy   TEWEN  =      -905.95299492
  -Hartree energ DENC   =       -60.84488158
  -exchange      EXHF   =         0.00000000
  -V(xc)+E(xc)   XCENC  =       -72.36842219
  PAW double counting   =       293.20417750     -153.24258779
  entropy T*S    EENTRO =         0.00178351
  eigenvalues    EBANDS =        18.18545170
  atomic energy  EATOM  =       824.53081094
  Solvation  Ediel_sol  =         0.00000000
  ---------------------------------------------------
  free energy    TOTEN  =       -43.39332080 eV

  energy without entropy =      -43.39510432  energy(sigma->0) =      -43.39391531


--------------------------------------------------------------------------------------------------------




--------------------------------------- Iteration      1(  11)  ---------------------------------------


    POTLOK:  cpu time    0.0479: real time    0.0481
    SETDIJ:  cpu time    0.0521: real time    0.0521
    EDDIAG:  cpu time    0.0933: real time    0.0933
  RMM-DIIS:  cpu time    0.3880: real time    0.3881
    ORTHCH:  cpu time    0.0041: real time    0.0041
       DOS:  cpu time    0.0002: real time    0.0005
    CHARGE:  cpu time    0.0580: real time    0.0580
    MIXING:  cpu time    0.0014: real time    0.0014
    --------------------------------------------
      LOOP:  cpu time    0.6452: real time    0.6457

 eigenvalue-minimisations  :   564
 total energy-change (2. order) :-0.9731926E-05  (-0.9209821E-04)
 number of electron      31.9999994 magnetization 
 augmentation part       -1.8322595 magnetization 

 Broyden mixing:
  rms(total) = 0.42392E-03    rms(broyden)= 0.42390E-03
  rms(prec ) = 0.59276E-03
  weight for this iteration     100.00

 eigenvalues of (default mixing * dielectric matrix)
  average eigenvalue GAMMA=   2.1586
  4.0137  2.8403  2.4070  1.8902  0.9002  0.9002

 Free energy of the ion-electron system (eV)
  ---------------------------------------------------
  alpha Z        PSCENC =        13.09334202
  Ewald energy   TEWEN  =      -905.95299492
  -Hartree energ DENC   =       -60.99731152
  -exchange      EXHF   =         0.00000000
  -V(xc)+E(xc)   XCENC  =       -72.34853604
  PAW double counting   =       293.75757611     -153.81271237
  entropy T*S    EENTRO =         0.00178621
  eigenvalues    EBANDS =        18.33470904
  atomic energy  EATOM  =       824.53081094
  Solvation  Ediel_sol  =         0.00000000
  ---------------------------------------------------
  free energy    TOTEN  =       -43.39333054 eV

  energy without entropy =      -43.39511675  energy(sigma->0) =      -43.39392594


--------------------------------------------------------------------------------------------------------




--------------------------------------- Iteration      1(  12)  ---------------------------------------


    POTLOK:  cpu time    0.0463: real time    0.0464
    SETDIJ:  cpu time    0.0520: real time    0.0520
    EDDIAG:  cpu time    0.0920: real time    0.0920
  RMM-DIIS:  cpu time    0.3981: real time    0.3981
    ORTHCH:  cpu time    0.0040: real time    0.0041
       DOS:  cpu time    0.0002: real time    0.0004
    CHARGE:  cpu time    0.0570: real time    0.0570
    MIXING:  cpu time    0.0011: real time    0.0011
    --------------------------------------------
      LOOP:  cpu time    0.6507: real time    0.6511

 eigenvalue-minimisations  :   585
 total energy-change (2. order) :-0.2356342E-04  (-0.2192966E-04)
 number of electron      31.9999994 magnetization 
 augmentation part       -1.8324682 magnetization 

 Broyden mixing:
  rms(total) = 0.41508E-03    rms(broyden)= 0.41508E-03
  rms(prec ) = 0.60812E-03
  weight for this iteration     100.00

 eigenvalues of (default mixing * dielectric matrix)
  average eigenvalue GAMMA=   2.1545
  4.7129  2.6590  2.1158  1.8512  1.8512  0.8535  1.0376

 Free energy of the ion-electron system (eV)
  ---------------------------------------------------
  alpha Z        PSCENC =        13.09334202
  Ewald energy   TEWEN  =      -905.95299492
  -Hartree energ DENC   =       -61.00203291
  -exchange      EXHF   =         0.00000000
  -V(xc)+E(xc)   XCENC  =       -72.34850754
  PAW double counting   =       293.77662059     -153.83278102
  entropy T*S    EENTRO =         0.00178623
  eigenvalues    EBANDS =        18.34040253
  atomic energy  EATOM  =       824.53081094
  Solvation  Ediel_sol  =         0.00000000
  ---------------------------------------------------
  free energy    TOTEN  =       -43.39335410 eV

  energy without entropy =      -43.39514033  energy(sigma->0) =      -43.39394951


--------------------------------------------------------------------------------------------------------




--------------------------------------- Iteration      1(  13)  ---------------------------------------


    POTLOK:  cpu time    0.0434: real time    0.0435
    SETDIJ:  cpu time    0.0520: real time    0.0520
    EDDIAG:  cpu time    0.0945: real time    0.0945
  RMM-DIIS:  cpu time    0.3488: real time    0.3488
    ORTHCH:  cpu time    0.0040: real time    0.0040
       DOS:  cpu time    0.0002: real time    0.0004
    CHARGE:  cpu time    0.0568: real time    0.0568
    MIXING:  cpu time    0.0011: real time    0.0011
    --------------------------------------------
      LOOP:  cpu time    0.6008: real time    0.6011

 eigenvalue-minimisations  :   537
 total energy-change (2. order) :-0.1312383E-05  (-0.5018442E-05)
 number of electron      31.9999994 magnetization 
 augmentation part       -1.8325095 magnetization 

 Broyden mixing:
  rms(total) = 0.50647E-03    rms(broyden)= 0.50647E-03
  rms(prec ) = 0.84920E-03
  weight for this iteration     100.00

 eigenvalues of (default mixing * dielectric matrix)
  average eigenvalue GAMMA=   1.9186
  3.3682  3.1057  2.6237  2.3686  0.9380  0.8809  1.0319  1.0319

 Free energy of the ion-electron system (eV)
  ---------------------------------------------------
  alpha Z        PSCENC =        13.09334202
  Ewald energy   TEWEN  =      -905.95299492
  -Hartree energ DENC   =       -61.00139917
  -exchange      EXHF   =         0.00000000
  -V(xc)+E(xc)   XCENC  =       -72.34935377
  PAW double counting   =       293.72601653     -153.78146516
  entropy T*S    EENTRO =         0.00178568
  eigenvalues    EBANDS =        18.33990244
  atomic energy  EATOM  =       824.53081094
  Solvation  Ediel_sol  =         0.00000000
  ---------------------------------------------------
  free energy    TOTEN  =       -43.39335541 eV

  energy without entropy =      -43.39514109  energy(sigma->0) =      -43.39395064


--------------------------------------------------------------------------------------------------------




--------------------------------------- Iteration      1(  14)  ---------------------------------------


    POTLOK:  cpu time    0.0438: real time    0.0439
    SETDIJ:  cpu time    0.0519: real time    0.0520
    EDDIAG:  cpu time    0.0928: real time    0.0928
  RMM-DIIS:  cpu time    0.3066: real time    0.3066
    ORTHCH:  cpu time    0.0040: real time    0.0040
       DOS:  cpu time    0.0002: real time    0.0004
    CHARGE:  cpu time    0.0565: real time    0.0565
    MIXING:  cpu time    0.0011: real time    0.0011
    --------------------------------------------
      LOOP:  cpu time    0.5570: real time    0.5573

 eigenvalue-minimisations  :   501
 total energy-change (2. order) :-0.1896213E-05  (-0.9531652E-06)
 number of electron      31.9999994 magnetization 
 augmentation part       -1.8325557 magnetization 

 Broyden mixing:
  rms(total) = 0.23154E-03    rms(broyden)= 0.23154E-03
  rms(prec ) = 0.39946E-03
  weight for this iteration     100.00

 eigenvalues of (default mixing * dielectric matrix)
  average eigenvalue GAMMA=   1.7146
  3.4747  2.9719  2.6059  2.3719  0.9149  0.9092  1.0146  1.0146  0.1537

 Free energy of the ion-electron system (eV)
  ---------------------------------------------------
  alpha Z        PSCENC =        13.09334202
  Ewald energy   TEWEN  =      -905.95299492
  -Hartree energ DENC   =       -60.99679080
  -exchange      EXHF   =         0.00000000
  -V(xc)+E(xc)   XCENC  =       -72.34969969
  PAW double counting   =       293.71657481     -153.77140147
  entropy T*S    EENTRO =         0.00178601
  eigenvalues    EBANDS =        18.33501580
  atomic energy  EATOM  =       824.53081094
  Solvation  Ediel_sol  =         0.00000000
  ---------------------------------------------------
  free energy    TOTEN  =       -43.39335731 eV

  energy without entropy =      -43.39514332  energy(sigma->0) =      -43.39395264


--------------------------------------------------------------------------------------------------------




--------------------------------------- Iteration      1(  15)  ---------------------------------------


    POTLOK:  cpu time    0.0430: real time    0.0431
    SETDIJ:  cpu time    0.0520: real time    0.0520
    EDDIAG:  cpu time    0.0910: real time    0.0910
  RMM-DIIS:  cpu time    0.2595: real time    0.2595
    ORTHCH:  cpu time    0.0049: real time    0.0049
       DOS:  cpu time    0.0002: real time    0.0003
    --------------------------------------------
      LOOP:  cpu time    0.4506: real time    0.4508

 eigenvalue-minimisations  :   388
 total energy-change (2. order) :-0.9194343E-07  (-0.2440310E-06)
 number of electron      31.9999994 magnetization 
 augmentation part       -1.8325557 magnetization 

 Free energy of the ion-electron system (eV)
  ---------------------------------------------------
  alpha Z        PSCENC =        13.09334202
  Ewald energy   TEWEN  =      -905.95299492
  -Hartree energ DENC   =       -60.99538917
  -exchange      EXHF   =         0.00000000
  -V(xc)+E(xc)   XCENC  =       -72.34994112
  PAW double counting   =       293.71258771     -153.76736468
  entropy T*S    EENTRO =         0.00178601
  eigenvalues    EBANDS =        18.33380581
  atomic energy  EATOM  =       824.53081094
  Solvation  Ediel_sol  =         0.00000000
  ---------------------------------------------------
  free energy    TOTEN  =       -43.39335740 eV

  energy without entropy =      -43.39514341  energy(sigma->0) =      -43.39395273


--------------------------------------------------------------------------------------------------------




 average (electrostatic) potential at core
  the test charge radii are     0.9892
  (the norm of the test charge is              1.0000)
       1 -83.5490       2 -83.5490       3 -83.5490       4 -83.5490       5 -83.5490
       6 -83.5490       7 -83.5490       8 -83.5490



 E-fermi :   5.6570     XC(G=0):  -9.3034     alpha+bet :-11.6610

 Fermi energy:         5.6569657351

 k-point     1 :       0.0000    0.0000    0.0000
  band No.  band energies     occupation 
      1      -6.2173      2.00000
      2      -2.1705      2.00000
      3      -2.1705      2.00000
      4      -2.1705      2.00000
      5      -2.1705      2.00000
      6      -2.1705      2.00000
      7      -2.1705      2.00000
      8       2.7783      2.00000
      9       2.7783      2.00000
     10       2.7783      2.00000
     11       2.7783      2.00000
     12       2.7783      2.00000
     13       2.7783      2.00000
     14       5.5567      1.74151
     15       5.5567      1.74151
     16       5.5567      1.74151
     17       6.3197     -0.00003
     18       6.3197     -0.00003
     19       6.3197     -0.00003
     20       6.3197     -0.00003
     21       6.3197     -0.00003
     22       6.3197     -0.00003
     23       8.1108     -0.00000
     24       8.1108     -0.00000

 k-point     2 :       0.2000    0.0000    0.0000
  band No.  band energies     occupation 
      1      -6.0465      2.00000
      2      -3.5684      2.00000
      3      -2.1210      2.00000
      4      -2.1210      2.00000
      5      -2.1210      2.00000
      6      -2.1210      2.00000
      7      -0.5699      2.00000
      8       2.3872      2.00000
      9       2.3872      2.00000
     10       2.3872      2.00000
     11       2.3872      2.00000
     12       2.9324      2.00000
     13       2.9324      2.00000
     14       4.5954      2.00000
     15       4.9993      2.00003
     16       4.9993      2.00003
     17       6.1846     -0.00122
     18       6.9166     -0.00000
     19       7.1490     -0.00000
     20       7.1490     -0.00000
     21       7.1490     -0.00000
     22       7.1490     -0.00000
     23       7.7412     -0.00000
     24       8.8781     -0.00000

 k-point     3 :       0.4000    0.0000    0.0000
  band No.  band energies     occupation 
      1      -5.5378      2.00000
      2      -4.7039      2.00000
      3      -2.0343      2.00000
      4      -2.0343      2.00000
      5      -2.0343      2.00000
      6      -2.0343      2.00000
      7       1.1548      2.00000
      8       1.8949      2.00000
      9       1.8949      2.00000
     10       1.8949      2.00000
     11       1.8949      2.00000
     12       2.9179      2.00000
     13       3.3872      2.00000
     14       3.3872      2.00000
     15       4.1115      2.00000
     16       4.1115      2.00000
     17       6.4534     -0.00000
     18       7.0364     -0.00000
     19       7.9983     -0.00000
     20       8.9800     -0.00000
     21       8.9800     -0.00000
     22       8.9800     -0.00000
     23       8.9800     -0.00000
     24       9.3972     -0.00000

 k-point     4 :       0.2000    0.2000    0.0000
  band No.  band energies     occupation 
      1      -5.8778      2.00000
      2      -3.4544      2.00000
      3      -3.4544      2.00000
      4      -2.4014      2.00000
      5      -1.7988      2.00000
      6      -0.6550      2.00000
      7      -0.6550      2.00000
      8       1.6137      2.00000
      9       2.4276      2.00000
     10       2.4276      2.00000
     11       2.7472      2.00000
     12       2.7472      2.00000
     13       3.0475      2.00000
     14       3.5299      2.00000
     15       4.4336      2.00000
     16       5.3816      2.06518
     17       6.6297     -0.00000
     18       7.0646     -0.00000
     19       7.0646     -0.00000
     20       7.6587     -0.00000
     21       7.6587     -0.00000
     22       8.4453     -0.00000
     23       8.4632     -0.00000
     24       8.6392     -0.00000

 k-point     5 :       0.4000    0.2000    0.0000
  band No.  band energies     occupation 
      1      -5.3767      2.00000
      2      -4.5585      2.00000
      3      -3.1455      2.00000
      4      -2.7481      2.00000
      5      -1.3815      2.00000
      6      -0.9453      2.00000
      7       0.8117      2.00000
      8       1.3493      2.00000
      9       1.6926      2.00000
     10       2.1975      2.00000
     11       2.6540      2.00000
     12       2.8279      2.00000
     13       2.9203      2.00000
     14       3.5278      2.00000
     15       3.5369      2.00000
     16       4.6055      2.00000
     17       7.3454     -0.00000
     18       7.7337     -0.00000
     19       7.9001     -0.00000
     20       8.6238     -0.00000
     21       8.9350     -0.00000
     22       9.1800     -0.00000
     23       9.3388     -0.00000
     24       9.9119     -0.00000

 k-point     6 :       0.4000    0.4000    0.0000
  band No.  band energies     occupation 
      1      -4.9010      2.00000
      2      -4.1377      2.00000
      3      -4.1377      2.00000
      4      -3.4965      2.00000
      5      -0.6924      2.00000
      6       0.0777      2.00000
      7       0.0777      2.00000
      8       1.1173      2.00000
      9       1.4149      2.00000
     10       1.9761      2.00000
     11       1.9761      2.00000
     12       2.6417      2.00000
     13       3.7873      2.00000
     14       3.8154      2.00000
     15       3.8154      2.00000
     16       4.7295      2.00000
     17       7.4773     -0.00000
     18       8.3939     -0.00000
     19       8.7084     -0.00000
     20       8.7084     -0.00000
     21       9.1877     -0.00000
     22       9.1877     -0.00000
     23       9.5133     -0.00000
     24       9.8142     -0.00000

 k-point     7 :       0.2000    0.2000    0.2000
  band No.  band energies     occupation 
      1      -5.7120      2.00000
      2      -3.3769      2.00000
      3      -3.3769      2.00000
      4      -3.3769      2.00000
      5      -0.8087      2.00000
      6      -0.8087      2.00000
      7      -0.8087      2.00000
      8       1.9759      2.00000
      9       1.9759      2.00000
     10       1.9759      2.00000
     11       2.5814      2.00000
     12       3.1921      2.00000
     13       3.1921      2.00000
     14       3.1921      2.00000
     15       4.9923      2.00003
     16       4.9923      2.00003
     17       6.8226     -0.00000
     18       6.8226     -0.00000
     19       6.8226     -0.00000
     20       7.6884     -0.00000
     21       8.8950     -0.00000
     22       8.8977     -0.00000
     23       8.9311     -0.00000
     24       8.9311     -0.00000

 k-point     8 :       0.4000    0.2000    0.2000
  band No.  band energies     occupation 
      1      -5.2207      2.00000
      2      -4.4252      2.00000
      3      -3.2296      2.00000
      4      -3.2296      2.00000
      5      -1.0959      2.00000
      6      -1.0959      2.00000
      7       0.3048      2.00000
      8       1.3948      2.00000
      9       1.8217      2.00000
     10       1.8217      2.00000
     11       2.9927      2.00000
     12       3.1574      2.00000
     13       3.1574      2.00000
     14       3.6135      2.00000
     15       4.2621      2.00000
     16       4.3030      2.00000
     17       7.3464     -0.00000
     18       7.8941     -0.00000
     19       7.9044     -0.00000
     20       7.9044     -0.00000
     21       8.8837     -0.00000
     22       9.6201     -0.00000
     23       9.8138     -0.00000
     24       9.8872     -0.00000

 k-point     9 :       0.4000    0.4000    0.2000
  band No.  band energies     occupation 
      1      -4.7648      2.00000
      2      -4.0555      2.00000
      3      -4.0555      2.00000
      4      -3.5710      2.00000
      5      -1.0436      2.00000
      6      -0.5017      2.00000
      7      -0.5017      2.00000
      8       0.3406      2.00000
      9       2.2046      2.00000
     10       2.7199      2.00000
     11       2.7199      2.00000
     12       3.5571      2.00000
     13       3.8859      2.00000
     14       3.9043      2.00000
     15       3.9043      2.00000
     16       4.6653      2.00000
     17       7.6144     -0.00000
     18       7.8876     -0.00000
     19       8.2694     -0.00000
     20       8.2694     -0.00000
     21       8.8321     -0.00000
     22       8.8321     -0.00000
     23       9.1633     -0.00000
     24       9.2420     -0.00000

 k-point    10 :       0.4000    0.4000    0.4000
  band No.  band energies     occupation 
      1      -4.3873      2.00000
      2      -3.8988      2.00000
      3      -3.8988      2.00000
      4      -3.8988      2.00000
      5      -1.1470      2.00000
      6      -1.1470      2.00000
      7      -1.1470      2.00000
      8      -0.6089      2.00000
      9       3.6168      2.00000
     10       3.6168      2.00000
     11       3.6168      2.00000
     12       4.1459      2.00000
     13       4.1459      2.00000
     14       4.1459      2.00000
     15       4.4543      2.00000
     16       4.4543      2.00000
     17       7.0845     -0.00000
     18       7.6374     -0.00000
     19       7.6374     -0.00000
     20       7.6374     -0.00000
     21       8.8659     -0.00000
     22       8.8659     -0.00000
     23       8.8667     -0.00000
     24       8.9781     -0.00000


--------------------------------------------------------------------------------------------------------


 soft charge-density along one line, spin component           1
         0         1         2         3         4         5         6         7         8         9
 total charge-density along one line

 pseudopotential strength for first ion, spin component:           1
 18.444  -0.001   0.000  -0.000  -0.000  -0.000   0.000  -0.000
 -0.001   0.006  -0.000   0.000   0.000   0.000  -0.000  -0.000
  0.000  -0.000   4.181   0.000  -0.000  -0.004  -0.000   0.000
 -0.000   0.000   0.000   4.181   0.000  -0.000  -0.004  -0.000
 -0.000   0.000  -0.000   0.000   4.181   0.000  -0.000  -0.004
 -0.000   0.000  -0.004  -0.000   0.000   0.005   0.000   0.000
  0.000  -0.000  -0.000  -0.004  -0.000   0.000   0.005  -0.000
 -0.000  -0.000   0.000  -0.000  -0.004   0.000  -0.000   0.005
 total augmentation occupancy for first ion, spin component:           1
  1.496  -0.750   0.000   0.000   0.000  -0.000  -0.000  -0.000
 -0.750   0.736   0.000  -0.000   0.000   0.000   0.000   0.000
  0.000   0.000   1.012   0.000   0.000  -0.542  -0.000  -0.000
 -0.000  -0.000   0.000   1.012   0.000  -0.000  -0.542  -0.000
  0.000  -0.000   0.000   0.000   1.012  -0.000  -0.000  -0.542
  0.000   0.000  -0.542  -0.000  -0.000   0.344   0.000   0.000
 -0.000   0.000  -0.000  -0.542  -0.000   0.000   0.344   0.000
 -0.000   0.000  -0.000  -0.000  -0.542   0.000   0.000   0.344


------------------------ aborting loop because EDIFF is reached ----------------------------------------


    CHARGE:  cpu time    0.0585: real time    0.0585
    FORLOC:  cpu time    0.0025: real time    0.0025
    FORNL :  cpu time    0.1003: real time    0.1004
    STRESS:  cpu time    0.1816: real time    0.1816
    FORCOR:  cpu time    0.0442: real time    0.0442
    FORHAR:  cpu time    0.0110: real time    0.0110
    MIXING:  cpu time    0.0014: real time    0.0014
    OFIELD:  cpu time    0.0000: real time    0.0000

  FORCE on cell =-STRESS in cart. coord.  units (eV):
  Direction    XX          YY          ZZ          XY          YZ          ZX
  --------------------------------------------------------------------------------------
  Alpha Z    13.09334    13.09334    13.09334
  Ewald    -301.98485  -301.98485  -301.98485    -0.00000    -0.00000    -0.00000
  Hartree    20.32960    20.32960    20.32960    -0.00000    -0.00000    -0.00000
  E(xc)    -100.84876  -100.84876  -100.84876     0.00000     0.00000    -0.00000
  Local    -118.38056  -118.38056  -118.38056     0.00000     0.00000    -0.00000
  n-local   309.29379   312.40594   306.38430    -3.16128    -1.93491    -1.56717
  augment   -46.58436   -46.58436   -46.58436     0.00000    -0.00000     0.00000
  Kinetic   217.90175   228.48076   227.00202    -4.18956    -4.20440    -2.67871
  Fock        0.00000     0.00000     0.00000     0.00000     0.00000     0.00000
  -------------------------------------------------------------------------------------
  Total      -0.55273    -0.55273    -0.55273     0.00000     0.00000     0.00000
  in kB      -5.38199    -5.38199    -5.38199     0.00000     0.00000     0.00000
  external pressure =       -5.38 kB  Pullay stress =        0.00 kB


 VOLUME and BASIS-vectors are now :
 -----------------------------------------------------------------------------
  energy-cutoff  :      520.00
  volume of cell :      164.54
      direct lattice vectors                 reciprocal lattice vectors
     5.479754433  0.000000000  0.000000000     0.182489929 -0.000000000  0.000000000
     0.000000000  5.479754433  0.000000000     0.000000000  0.182489929  0.000000000
     0.000000000  0.000000000  5.479754433    -0.000000000 -0.000000000  0.182489929

  length of vectors
     5.479754433  5.479754433  5.479754433     0.182489929  0.182489929  0.182489929


 FORCES acting on ions
    electron-ion (+dipol)            ewald-force                    non-local-force                 convergence-correction
 -----------------------------------------------------------------------------------------------
   -.681E-13 0.122E-12 -.571E-12   -.284E-13 -.213E-13 -.249E-13   0.110E-16 0.299E-16 -.781E-17   0.218E-14 0.515E-14 -.423E-14
   0.467E-13 -.136E-13 0.103E-13   0.175E-13 0.683E-14 0.284E-13   -.926E-17 -.169E-16 0.867E-18   -.534E-14 0.884E-15 -.464E-14
   -.687E-13 -.483E-12 -.285E-13   -.284E-13 -.142E-13 -.426E-13   -.289E-16 0.564E-17 0.147E-16   0.220E-14 0.475E-14 -.321E-14
   0.499E-13 0.183E-14 0.229E-13   0.175E-13 0.142E-13 0.103E-13   0.306E-16 0.121E-16 -.121E-16   -.604E-14 -.823E-15 -.397E-14
   -.525E-13 0.593E-13 -.175E-12   -.178E-13 -.142E-13 -.107E-13   0.127E-16 0.160E-16 0.434E-17   0.919E-15 0.436E-14 -.319E-14
   0.324E-13 -.233E-12 0.289E-12   0.248E-13 0.151E-13 0.423E-13   -.926E-17 -.152E-16 0.113E-16   0.470E-14 0.103E-14 -.422E-14
   -.519E-13 0.953E-13 -.162E-12   -.107E-13 -.711E-14 -.284E-13   -.272E-16 -.911E-17 0.260E-17   0.769E-15 0.521E-14 -.404E-14
   0.311E-13 -.543E-15 0.868E-13   0.320E-13 0.213E-13 0.248E-13   0.168E-16 0.260E-16 0.000E+00   0.522E-14 -.810E-15 -.467E-14
 -----------------------------------------------------------------------------------------------
   -.810E-13 -.452E-12 -.527E-12   0.650E-14 0.581E-15 -.746E-15   -.347E-17 0.486E-16 0.139E-16   0.460E-14 0.198E-13 -.322E-13


 POSITION                                       TOTAL-FORCE (eV/Angst)
 -----------------------------------------------------------------------------------
      4.10982      4.10982      1.36994         0.000000      0.000000      0.000000
      0.00000      2.73988      2.73988        -0.000000     -0.000000     -0.000000
      4.10982      1.36994      4.10982         0.000000     -0.000000     -0.000000
      0.00000      0.00000      0.00000        -0.000000      0.000000      0.000000
      1.36994      4.10982      4.10982        -0.000000     -0.000000     -0.000000
      2.73988      2.73988      0.00000         0.000000      0.000000      0.000000
      1.36994      1.36994      1.36994         0.000000      0.000000      0.000000
      2.73988      0.00000      2.73988        -0.000000      0.000000     -0.000000
 -----------------------------------------------------------------------------------
    total drift:                               -0.000000     -0.000000     -0.000000


--------------------------------------------------------------------------------------------------------



  FREE ENERGIE OF THE ION-ELECTRON SYSTEM (eV)
  ---------------------------------------------------
  free  energy   TOTEN  =       -43.39335740 eV

  energy  without entropy=      -43.39514341  energy(sigma->0) =      -43.39395273



--------------------------------------------------------------------------------------------------------


    POTLOK:  cpu time    0.0957: real time    0.0957


--------------------------------------------------------------------------------------------------------


 stress matrix after NEB project (eV)
     -0.55273      0.00000      0.00000
      0.00000     -0.55273     -0.00000
      0.00000      0.00000     -0.55273
  FORCES: max atom, RMS     0.000000    0.000000
  FORCE total and by dimension    0.000000    0.000000
  Stress total and by dimension    0.957361    0.552733
     LOOP+:  cpu time    9.0728: real time    9.0811
    4ORBIT:  cpu time    0.0000: real time    0.0000

 total amount of memory used by VASP MPI-rank0    53389. kBytes
=======================================================================

   base      :      30000. kBytes
   nonl-proj :       3416. kBytes
   fftplans  :       5401. kBytes
   grid      :      10217. kBytes
   one-center:         24. kBytes
   wavefun   :       4331. kBytes

  
  
 General timing and accounting informations for this job:
 ========================================================
  
                  Total CPU time used (sec):        9.661
                            User time (sec):        9.269
                          System time (sec):        0.392
                         Elapsed time (sec):        9.743
  
                   Maximum memory used (kb):       62920.
                   Average memory used (kb):          N/A
  
                          Minor page faults:        86482
                          Major page faults:          425
                 Voluntary context switches:          715
