 running on    4 total cores
 distrk:  each k-point on    4 cores,    1 groups
 distr:  one band on    1 cores,    4 groups
 vasp.6.2.1 16May21 (build Aug 15 2022 14:47:30) complex                         
 POSCAR found type information on POSCAR Si
 POSCAR found :  1 types and       8 ions
 scaLAPACK will be used
 LDA part: xc-table for Pade appr. of Perdew
 POSCAR found type information on POSCAR Si
 POSCAR found :  1 types and       8 ions
 POSCAR, INCAR and KPOINTS ok, starting setup
 FFT: planning ...
 WAVECAR not read
 WARNING: random wavefunctions but no delay for mixing, default for NELMDL
 entering main loop
       N       E                     dE             d eps       ncg     rms          rms(c)
DAV:   1     0.679419166312E+02    0.67942E+02   -0.11901E+04   480   0.108E+03
DAV:   2    -0.389575529547E+02   -0.10690E+03   -0.99987E+02   664   0.150E+02
DAV:   3    -0.439631782799E+02   -0.50056E+01   -0.49386E+01   616   0.309E+01
DAV:   4    -0.440508489150E+02   -0.87671E-01   -0.87524E-01   584   0.530E+00
DAV:   5    -0.440529676616E+02   -0.21187E-02   -0.21179E-02   632   0.727E-01    0.589E+00
RMM:   6    -0.435972999779E+02    0.45567E+00   -0.21610E-01   480   0.182E+00    0.353E+00
RMM:   7    -0.433832639085E+02    0.21404E+00   -0.53477E-01   509   0.302E+00    0.292E-01
RMM:   8    -0.433919220466E+02   -0.86581E-02   -0.50225E-02   504   0.109E+00    0.822E-02
RMM:   9    -0.433929379478E+02   -0.10159E-02   -0.12875E-02   547   0.502E-01    0.783E-02
RMM:  10    -0.433933208031E+02   -0.38286E-03   -0.30877E-03   517   0.281E-01    0.456E-02
RMM:  11    -0.433933305350E+02   -0.97319E-05   -0.92098E-04   564   0.155E-01    0.424E-03
RMM:  12    -0.433933540984E+02   -0.23563E-04   -0.21930E-04   585   0.804E-02    0.415E-03
RMM:  13    -0.433933554108E+02   -0.13124E-05   -0.50184E-05   537   0.381E-02    0.506E-03
RMM:  14    -0.433933573070E+02   -0.18962E-05   -0.95317E-06   501   0.174E-02    0.232E-03
RMM:  15    -0.433933573990E+02   -0.91943E-07   -0.24403E-06   388   0.859E-03
   1 F= -.43393357E+02 E0= -.43393953E+02  d E =0.178601E-02
