   57   57  200    2
  0.1345814E+02  0.7794895E-09  0.7794895E-09  0.1262523E-08  0.0000000E+00
   1.0000000000000000E-004
  CAR 
 Al                                      
    454     21    310

  0.1262379E-14  0.1262379E-14  0.1262379E-14  0.2083333E-01
    1      -24.072241    -24.070430   1.000000   1.000000
    2      -24.002656    -24.001099   1.000000   1.000000
    3      -24.002364    -24.000812   1.000000   1.000000
    4      -23.950686    -23.949211   1.000000   1.000000
    5      -23.909847    -23.906434   1.000000   1.000000
    6      -23.878666    -23.877058   1.000000   1.000000
    7      -23.840544    -23.839499   1.000000   1.000000
    8      -23.800624    -23.798755   1.000000   1.000000
    9      -23.736274    -23.734891   1.000000   1.000000
   10      -23.735641    -23.734257   1.000000   1.000000
   11      -23.730915    -23.729822   1.000000   1.000000
   12      -23.683554    -23.682229   1.000000   1.000000
   13      -23.582906    -23.580756   1.000000   1.000000
   14      -23.568024    -23.565743   1.000000   1.000000
   15      -23.445590    -23.443756   1.000000   1.000000
   16      -23.433109    -23.429483   1.000000   1.000000
   17      -15.717212    -15.658056   1.000000   1.000000
   18      -11.800263    -11.667994   1.000000   1.000000
   19      -11.592241    -11.441579   1.000000   1.000000
   20      -11.498985    -11.336434   1.000000   1.000000
   21      -11.444211    -11.313142   1.000000   1.000000
   22      -11.434387    -11.284304   1.000000   1.000000
   23      -11.344336    -11.207493   1.000000   1.000000
   24      -10.988162    -10.861041   1.000000   1.000000
   25      -10.966714    -10.832348   1.000000   1.000000
   26      -10.893040    -10.788501   1.000000   1.000000
   27      -10.856188    -10.704172   1.000000   1.000000
   28      -10.819510    -10.694549   1.000000   1.000000
   29      -10.789343    -10.667168   1.000000   1.000000
   30      -10.720915    -10.600670   1.000000   1.000000
   31      -10.678873    -10.546570   1.000000   1.000000
   32      -10.652293    -10.511659   1.000000   1.000000
   33      -10.452972    -10.384195   1.000000   1.000000
   34      -10.354865    -10.297777   1.000000   1.000000
   35      -10.324147    -10.265226   1.000000   1.000000
   36      -10.277273    -10.208947   1.000000   1.000000
   37      -10.176824    -10.093955   1.000000   1.000000
   38      -10.124903    -10.050110   1.000000   1.000000
   39      -10.106262     -9.978412   1.000000   1.000000
   40      -10.045615     -9.803102   1.000000   1.000000
   41       -9.954094     -9.785328   1.000000   1.000000
   42       -9.928658     -9.724674   1.000000   1.000000
   43       -9.868441     -9.704554   1.000000   1.000000
   44       -9.824637     -9.675513   1.000000   1.000000
   45       -9.808626     -9.588483   1.000000   1.000000
   46       -9.763465     -9.582672   1.000000   1.000000
   47       -9.750546     -9.504444   1.000000   1.000000
   48       -9.565540     -9.438769   1.000000   1.000000
   49       -9.371863     -9.254838   1.000000   1.000000
   50       -8.162761     -8.158891   1.000000   1.000000
   51       -8.113648     -8.105346   1.000000   1.000000
   52       -7.851641     -7.849666   1.000000   1.000000
   53       -7.823135     -7.818024   1.000000   1.000000
   54       -7.752646     -7.737400   1.000000   1.000000
   55       -7.730386     -7.728548   1.000000   1.000000
   56       -7.723793     -7.720856   1.000000   1.000000
   57       -7.678454     -7.665203   1.000000   1.000000
   58       -7.660355     -7.651971   1.000000   1.000000
   59       -7.616419     -7.611377   1.000000   1.000000
   60       -7.597109     -7.596375   1.000000   1.000000
   61       -7.592328     -7.586540   1.000000   1.000000
   62       -7.530033     -7.528405   1.000000   1.000000
   63       -7.527472     -7.525288   1.000000   1.000000
   64       -7.524760     -7.497525   1.000000   1.000000
   65       -7.481943     -7.474514   1.000000   1.000000
   66       -7.472466     -7.464205   1.000000   1.000000
   67       -7.367107     -7.361042   1.000000   1.000000
   68       -7.360320     -7.357254   1.000000   1.000000
   69       -7.354003     -7.344757   1.000000   1.000000
   70       -7.349204     -7.328806   1.000000   1.000000
   71       -7.333572     -7.327859   1.000000   1.000000
   72       -7.329479     -7.318746   1.000000   1.000000
   73       -7.325555     -7.312532   1.000000   1.000000
   74       -7.225364     -7.220996   1.000000   1.000000
   75       -7.219873     -7.197980   1.000000   1.000000
   76       -7.204128     -7.174870   1.000000   1.000000
   77       -7.187052     -7.149447   1.000000   1.000000
   78       -7.150787     -7.088739   1.000000   1.000000
   79       -7.119794     -7.055925   1.000000   1.000000
   80       -7.062080     -7.013095   1.000000   1.000000
   81       -7.014932     -6.953828   1.000000   1.000000
   82       -6.929568     -6.900046   1.000000   1.000000
   83       -6.716370     -6.694051   1.000000   1.000000
   84       -6.705331     -6.675845   1.000000   1.000000
   85       -6.669393     -6.635066   1.000000   1.000000
   86       -6.653380     -6.618164   1.000000   1.000000
   87       -6.643405     -6.607663   1.000000   1.000000
   88       -6.578354     -6.536725   1.000000   1.000000
   89       -6.529289     -6.494789   1.000000   1.000000
   90       -6.483449     -6.437836   1.000000   1.000000
   91       -6.412094     -6.381967   1.000000   1.000000
   92       -6.389037     -6.359233   1.000000   1.000000
   93       -6.355400     -6.304336   1.000000   1.000000
   94       -6.310861     -6.224897   1.000000   1.000000
   95       -6.280268     -6.192871   1.000000   1.000000
   96       -6.248177     -6.191756   1.000000   1.000000
   97       -5.820740     -5.710777   1.000000   1.000000
   98       -0.160602      0.174513   1.000000   1.000000
   99       -0.051979      0.912867   1.000000   1.000000
  100       -0.019686      1.188227   1.000000   1.000000
  101       -0.007533      1.286872   1.000000   1.000000
  102        0.005079      1.291462   1.000000   1.000000
  103        0.078046      2.295347   1.000000   1.000000
  104        0.114811      2.308485   1.000000   1.000000
  105        0.166314      2.311960   1.000000   1.000000
  106        0.179369      2.332087   1.000000   1.000000
  107        1.157949      2.332829   1.000000   1.000000
  108        1.162869      2.420142   1.000000   1.000000
  109        1.623733      2.431597   1.000000   1.000000
  110        1.649156      2.434598   1.000000   1.000000
  111        1.755098      2.463645   1.000000   1.000000
  112        1.825771      2.596069   1.000000   1.000000
  113        1.832694      2.760742   1.000000   1.000000
  114        1.841860      2.762116   1.000000   1.000000
  115        1.850077      2.831466   1.000000   1.000000
  116        1.856520      2.863673   1.000000   1.000000
  117        1.888520      2.869753   1.000000   1.000000
  118        2.028460      2.880183   1.000000   1.000000
  119        2.031255      2.931249   1.000000   1.000000
  120        2.055218      2.947049   1.000000   1.000000
  121        2.169349      3.045242   1.000000   1.000000
  122        2.183517      3.047552   1.000000   1.000000
  123        2.249216      3.127231   1.000000   1.000000
  124        2.257425      3.159736   1.000000   1.000000
  125        2.345771      3.292095   1.000000   1.000000
  126        2.345824      3.293832   1.000000   1.000000
  127        2.358103      3.390718   1.000000   1.000000
  128        2.372569      3.424243   1.000000   1.000000
  129        2.377468      3.429510   1.000000   1.000000
  130        2.508852      3.529567   1.000000   1.000000
  131        2.654876      3.540350   1.000000   1.000000
  132        2.658102      3.674019   1.000000   1.000000
  133        2.719319      3.681269   1.000000   1.000000
  134        2.721115      3.687713   1.000000   1.000000
  135        2.738048      3.735844   1.000000   1.000000
  136        2.752332      3.800909   1.000000   1.000000
  137        2.782313      3.872685   1.000000   1.000000
  138        2.790467      3.900701   1.000000   1.000000
  139        2.815216      3.944693   1.000000   1.000000
  140        2.830225      3.958105   1.000000   1.000000
  141        2.977458      3.966746   1.000000   1.000000
  142        2.978258      3.980945   1.000000   1.000000
  143        3.012491      3.985638   1.000000   1.000000
  144        3.095289      4.008011   1.000000   1.000000
  145        3.102387      4.018966   1.000000   1.000000
  146        3.104210      4.046380   1.000000   1.000000
  147        3.173326      4.084102   1.000000   1.000000
  148        3.259298      4.107738   1.000000   1.000000
  149        3.292868      4.157434   1.000000   1.000000
  150        3.304205      4.192422   1.000000   1.000000
  151        3.327103      4.220911   1.000000   1.000000
  152        3.628218      4.240428   1.000000   1.000000
  153        3.722188      4.283811   1.000000   1.000000
  154        3.860329      4.340703   1.000000   1.000000
  155        3.873306      4.345832   1.000000   1.000000
  156        3.880501      4.368908   1.000000   1.000000
  157        3.992406      4.437441   1.000000   1.000000
  158        4.017537      4.449729   1.000000   1.000000
  159        4.074071      4.465766   1.000000   1.000000
  160        4.122955      4.591918   1.000000   1.000000
  161        4.137956      4.597138   1.000000   1.000000
  162        4.251773      4.615920   1.000000   1.000000
  163        4.274902      4.736323   1.000000   1.000000
  164        4.276649      4.754986   1.000000   1.000000
  165        4.316019      4.759078   1.000000   1.000000
  166        4.335560      4.760940   1.000000   1.000000
  167        4.372640      4.825260   1.000000   1.000000
  168        4.387757      4.908902   1.000000   1.000000
  169        4.477119      4.929867   1.000000   1.000000
  170        4.517762      4.930891   1.000000   1.000000
  171        4.524790      4.936085   1.000000   1.000000
  172        4.570730      5.031440   1.000000   1.000000
  173        4.579364      5.033413   1.000000   1.000000
  174        4.582732      5.041116   1.000000   1.000000
  175        4.604160      5.064201   1.000000   1.000000
  176        4.620677      5.097265   1.000000   1.000000
  177        4.627546      5.127550   1.000000   1.000000
  178        4.639767      5.140427   1.000000   1.000000
  179        4.789079      5.165091   1.000000   1.000000
  180        4.829390      5.204760   1.000000   1.000000
  181        4.836273      5.245078   1.000000   1.000000
  182        4.846678      5.279542   1.000000   1.000000
  183        4.873273      5.294487   1.000000   1.000000
  184        4.898390      5.351517   1.000000   1.000000
  185        4.901240      5.357949   1.000000   1.000000
  186        4.911478      5.385406   1.000000   1.000000
  187        4.961401      5.439128   1.000000   1.000000
  188        4.963645      5.489146   1.000000   1.000000
  189        4.984362      5.502189   1.000000   1.000000
  190        5.005828      5.595462   1.000000   1.000000
  191        5.052153      5.603488   1.000000   1.000000
  192        5.083149      5.615566   1.000000   1.000000
  193        5.158656      5.697461   1.000000   1.000000
  194        5.299756      5.705426   1.000000   1.000000
  195        5.321765      5.705969   1.000000   1.000000
  196        5.333027      5.752904   1.000000   1.000000
  197        5.334151      5.752911   1.000000   1.000000
  198        5.374441      5.856169   1.000000   1.000000
  199        5.376056      5.864672   1.000000   1.000000
  200        5.377565      5.873830   1.000000   1.000000
  201        5.436324      5.891325   1.000000   1.000000
  202        5.441714      5.898758   1.000000   1.000000
  203        5.450188      6.004458   1.000000   1.000000
  204        5.456708      6.023012   1.000000   1.000000
  205        5.464103      6.051854   1.000000   1.000000
  206        5.484035      6.059524   1.000000   1.000000
  207        5.537699      6.105232   1.000000   1.000000
  208        5.558630      6.167838   1.000000   1.000000
  209        5.603579      6.172967   1.000000   1.000000
  210        5.617942      6.179385   1.000000   1.000000
  211        5.619214      6.219280   1.000000   1.000000
  212        5.677359      6.227833   1.000000   1.000000
  213        5.681554      6.253124   1.000000   1.000000
  214        5.772411      6.297871   1.000000   1.000000
  215        5.788470      6.322618   1.000000   1.000000
  216        5.807937      6.437213   1.000000   1.000000
  217        5.808853      6.447988   1.000000   1.000000
  218        5.826163      6.601681   1.000000   1.000000
  219        5.831885      6.614789   1.000000   1.000000
  220        5.892305      8.937854   1.000000   0.024004
  221        5.909689      9.549879   1.000000   0.000000
  222        5.921531      9.598593   1.000000   0.000000
  223        5.944066      9.609738   1.000000   0.000000
  224        5.946952      9.704097   1.000000   0.000000
  225        6.108125      9.804710   1.000000   0.000000
  226        6.473871      9.808226   1.000000   0.000000
  227        6.484720      9.810856   1.000000   0.000000
  228        6.570307      9.929101   1.000000   0.000000
  229        6.620427      9.949794   1.000000   0.000000
  230        6.734065     10.075713   1.000000   0.000000
  231        6.758243     10.164157   1.000000   0.000000
  232        6.779910     10.206303   1.000000   0.000000
  233        6.868286     10.317382   1.000000   0.000000
  234        8.279855     10.318645   0.996269   0.000000
  235        8.352836     10.367808   0.984590   0.000000
  236        8.944985     10.381002   0.021294   0.000000
  237        9.549935     10.381528   0.000000   0.000000
  238       10.069266     10.436738   0.000000   0.000000
  239       10.227993     10.441476   0.000000   0.000000
  240       10.364744     10.448470   0.000000   0.000000
  241       10.377696     10.450706   0.000000   0.000000
  242       10.378787     10.478304   0.000000   0.000000
  243       10.398166     10.479815   0.000000   0.000000
  244       10.427165     10.485310   0.000000   0.000000
  245       10.459831     10.540619   0.000000   0.000000
  246       10.475905     10.565032   0.000000   0.000000
  247       10.478015     10.573659   0.000000   0.000000
  248       10.478393     10.581379   0.000000   0.000000
  249       10.553345     10.615476   0.000000   0.000000
  250       10.555543     10.619791   0.000000   0.000000
  251       10.560633     10.637803   0.000000   0.000000
  252       10.605623     10.644317   0.000000   0.000000
  253       10.613853     10.645506   0.000000   0.000000
  254       10.618195     10.649970   0.000000   0.000000
  255       10.619748     10.689828   0.000000   0.000000
  256       10.634450     10.710808   0.000000   0.000000
  257       10.641336     10.724315   0.000000   0.000000
  258       10.646962     10.724481   0.000000   0.000000
  259       10.668067     10.735622   0.000000   0.000000
  260       10.668268     10.737386   0.000000   0.000000
  261       10.705761     10.741473   0.000000   0.000000
  262       10.708026     10.756051   0.000000   0.000000
  263       10.711032     10.763373   0.000000   0.000000
  264       10.721985     10.767295   0.000000   0.000000
  265       10.724912     10.768507   0.000000   0.000000
  266       10.736504     10.783274   0.000000   0.000000
  267       10.738535     10.785165   0.000000   0.000000
  268       10.739933     10.796043   0.000000   0.000000
  269       10.752186     10.800953   0.000000   0.000000
  270       10.768998     10.802152   0.000000   0.000000
  271       10.776787     10.802624   0.000000   0.000000
  272       10.779161     10.814115   0.000000   0.000000
  273       10.784000     10.817696   0.000000   0.000000
  274       10.792690     10.821097   0.000000   0.000000
  275       10.796040     10.824497   0.000000   0.000000
  276       10.799206     10.828748   0.000000   0.000000
  277       10.802461     10.830659   0.000000   0.000000
  278       10.811499     10.839226   0.000000   0.000000
  279       10.815934     10.847612   0.000000   0.000000
  280       10.825723     10.849406   0.000000   0.000000
  281       10.838615     10.855858   0.000000   0.000000
  282       10.839455     10.870289   0.000000   0.000000
  283       10.852038     10.870473   0.000000   0.000000
  284       10.863528     10.870781   0.000000   0.000000
  285       10.865940     10.906974   0.000000   0.000000
  286       10.867380     10.910614   0.000000   0.000000
  287       10.894260     10.913599   0.000000   0.000000
  288       10.901480     10.915798   0.000000   0.000000
  289       10.903289     10.934081   0.000000   0.000000
  290       10.911567     10.941984   0.000000   0.000000
  291       10.926586     10.952074   0.000000   0.000000
  292       10.937774     10.954664   0.000000   0.000000
  293       10.945955     10.962759   0.000000   0.000000
  294       10.949216     10.969321   0.000000   0.000000
  295       10.952794     10.991952   0.000000   0.000000
  296       10.954907     11.000773   0.000000   0.000000
  297       10.984307     11.013198   0.000000   0.000000
  298       10.992578     11.015823   0.000000   0.000000
  299       10.996955     11.019677   0.000000   0.000000
  300       11.002505     11.044289   0.000000   0.000000
  301       11.007930     11.046130   0.000000   0.000000
  302       11.039124     11.046729   0.000000   0.000000
  303       11.039284     11.051524   0.000000   0.000000
  304       11.042264     11.051881   0.000000   0.000000
  305       11.044011     11.061507   0.000000   0.000000
  306       11.047703     11.061741   0.000000   0.000000
  307       11.057485     11.069596   0.000000   0.000000
  308       11.057715     11.073679   0.000000   0.000000
  309       11.060703     11.082482   0.000000   0.000000
  310       11.072684     11.087671   0.000000   0.000000

  0.2500000E+00  0.1262379E-14  0.1262379E-14  0.4166667E-01
    1      -24.062327    -24.060553   1.000000   1.000000
    2      -24.013137    -24.011544   1.000000   1.000000
    3      -23.994860    -23.993319   1.000000   1.000000
    4      -23.958303    -23.956818   1.000000   1.000000
    5      -23.904394    -23.900875   1.000000   1.000000
    6      -23.880162    -23.878599   1.000000   1.000000
    7      -23.839067    -23.838020   1.000000   1.000000
    8      -23.795687    -23.793975   1.000000   1.000000
    9      -23.745859    -23.744406   1.000000   1.000000
   10      -23.728794    -23.727421   1.000000   1.000000
   11      -23.727661    -23.726558   1.000000   1.000000
   12      -23.691179    -23.689842   1.000000   1.000000
   13      -23.582010    -23.579889   1.000000   1.000000
   14      -23.571050    -23.568728   1.000000   1.000000
   15      -23.446124    -23.444344   1.000000   1.000000
   16      -23.434458    -23.430764   1.000000   1.000000
   17      -15.716415    -15.657268   1.000000   1.000000
   18      -11.765235    -11.639540   1.000000   1.000000
   19      -11.570297    -11.426428   1.000000   1.000000
   20      -11.541407    -11.396378   1.000000   1.000000
   21      -11.397049    -11.244137   1.000000   1.000000
   22      -11.359424    -11.233960   1.000000   1.000000
   23      -11.271517    -11.114473   1.000000   1.000000
   24      -11.102956    -10.981246   1.000000   1.000000
   25      -10.948967    -10.837408   1.000000   1.000000
   26      -10.930857    -10.811450   1.000000   1.000000
   27      -10.892455    -10.759884   1.000000   1.000000
   28      -10.859752    -10.735013   1.000000   1.000000
   29      -10.777424    -10.647985   1.000000   1.000000
   30      -10.679937    -10.544212   1.000000   1.000000
   31      -10.673143    -10.531606   1.000000   1.000000
   32      -10.570480    -10.391237   1.000000   1.000000
   33      -10.413819    -10.343855   1.000000   1.000000
   34      -10.301988    -10.236972   1.000000   1.000000
   35      -10.277100    -10.217148   1.000000   1.000000
   36      -10.270655    -10.199553   1.000000   1.000000
   37      -10.229133    -10.107233   1.000000   1.000000
   38      -10.146522    -10.038172   1.000000   1.000000
   39      -10.122831    -10.002196   1.000000   1.000000
   40      -10.086184     -9.852741   1.000000   1.000000
   41       -9.998070     -9.844872   1.000000   1.000000
   42       -9.932917     -9.816515   1.000000   1.000000
   43       -9.915215     -9.758629   1.000000   1.000000
   44       -9.880841     -9.660493   1.000000   1.000000
   45       -9.833536     -9.634137   1.000000   1.000000
   46       -9.784467     -9.632206   1.000000   1.000000
   47       -9.769391     -9.572790   1.000000   1.000000
   48       -9.603043     -9.468316   1.000000   1.000000
   49       -9.414215     -9.297382   1.000000   1.000000
   50       -8.076582     -8.073452   1.000000   1.000000
   51       -8.051323     -8.041875   1.000000   1.000000
   52       -7.807667     -7.802965   1.000000   1.000000
   53       -7.795192     -7.781420   1.000000   1.000000
   54       -7.754013     -7.743737   1.000000   1.000000
   55       -7.738306     -7.731155   1.000000   1.000000
   56       -7.721748     -7.713093   1.000000   1.000000
   57       -7.704343     -7.696651   1.000000   1.000000
   58       -7.665911     -7.658437   1.000000   1.000000
   59       -7.659747     -7.645539   1.000000   1.000000
   60       -7.653033     -7.643381   1.000000   1.000000
   61       -7.585483     -7.570438   1.000000   1.000000
   62       -7.575309     -7.563984   1.000000   1.000000
   63       -7.519489     -7.507111   1.000000   1.000000
   64       -7.509185     -7.506665   1.000000   1.000000
   65       -7.494173     -7.487706   1.000000   1.000000
   66       -7.490321     -7.468690   1.000000   1.000000
   67       -7.472646     -7.458532   1.000000   1.000000
   68       -7.418410     -7.414347   1.000000   1.000000
   69       -7.378838     -7.367864   1.000000   1.000000
   70       -7.373067     -7.350598   1.000000   1.000000
   71       -7.328550     -7.325022   1.000000   1.000000
   72       -7.312637     -7.303262   1.000000   1.000000
   73       -7.310549     -7.282352   1.000000   1.000000
   74       -7.262130     -7.234658   1.000000   1.000000
   75       -7.238955     -7.216173   1.000000   1.000000
   76       -7.221989     -7.208178   1.000000   1.000000
   77       -7.157974     -7.112856   1.000000   1.000000
   78       -7.123096     -7.078455   1.000000   1.000000
   79       -7.068810     -7.017036   1.000000   1.000000
   80       -6.966405     -6.924135   1.000000   1.000000
   81       -6.898806     -6.837231   1.000000   1.000000
   82       -6.829230     -6.793001   1.000000   1.000000
   83       -6.699618     -6.659419   1.000000   1.000000
   84       -6.681953     -6.656512   1.000000   1.000000
   85       -6.662399     -6.629019   1.000000   1.000000
   86       -6.628689     -6.589694   1.000000   1.000000
   87       -6.581089     -6.549945   1.000000   1.000000
   88       -6.568024     -6.520813   1.000000   1.000000
   89       -6.527962     -6.489672   1.000000   1.000000
   90       -6.513368     -6.472001   1.000000   1.000000
   91       -6.460848     -6.431538   1.000000   1.000000
   92       -6.433695     -6.395729   1.000000   1.000000
   93       -6.398164     -6.340506   1.000000   1.000000
   94       -6.333832     -6.280696   1.000000   1.000000
   95       -6.332040     -6.258612   1.000000   1.000000
   96       -6.269431     -6.196252   1.000000   1.000000
   97       -5.826742     -5.715351   1.000000   1.000000
   98       -0.161090      0.184023   1.000000   1.000000
   99       -0.034280      1.069991   1.000000   1.000000
  100       -0.002494      1.201880   1.000000   1.000000
  101        0.085659      1.334824   1.000000   1.000000
  102        0.164660      1.411086   1.000000   1.000000
  103        0.236846      2.028626   1.000000   1.000000
  104        0.237688      2.177353   1.000000   1.000000
  105        0.353724      2.364340   1.000000   1.000000
  106        0.401959      2.368963   1.000000   1.000000
  107        1.186316      2.382833   1.000000   1.000000
  108        1.209154      2.418131   1.000000   1.000000
  109        1.644405      2.492555   1.000000   1.000000
  110        1.656679      2.503178   1.000000   1.000000
  111        1.660659      2.537217   1.000000   1.000000
  112        1.688815      2.689351   1.000000   1.000000
  113        1.690066      2.707590   1.000000   1.000000
  114        1.778007      2.729649   1.000000   1.000000
  115        1.834071      2.776111   1.000000   1.000000
  116        1.908047      2.809758   1.000000   1.000000
  117        1.929803      2.835976   1.000000   1.000000
  118        1.966288      2.867739   1.000000   1.000000
  119        2.013154      2.875977   1.000000   1.000000
  120        2.046689      2.925364   1.000000   1.000000
  121        2.049590      3.025855   1.000000   1.000000
  122        2.105723      3.083163   1.000000   1.000000
  123        2.146046      3.093935   1.000000   1.000000
  124        2.193282      3.122141   1.000000   1.000000
  125        2.213262      3.172024   1.000000   1.000000
  126        2.294146      3.385472   1.000000   1.000000
  127        2.341965      3.396617   1.000000   1.000000
  128        2.350987      3.449369   1.000000   1.000000
  129        2.364067      3.491200   1.000000   1.000000
  130        2.405476      3.503974   1.000000   1.000000
  131        2.413971      3.574036   1.000000   1.000000
  132        2.468054      3.623099   1.000000   1.000000
  133        2.571595      3.634910   1.000000   1.000000
  134        2.595734      3.723696   1.000000   1.000000
  135        2.629548      3.724213   1.000000   1.000000
  136        2.643750      3.794197   1.000000   1.000000
  137        2.693987      3.864927   1.000000   1.000000
  138        2.726789      3.880362   1.000000   1.000000
  139        2.731508      3.892499   1.000000   1.000000
  140        2.781967      3.912234   1.000000   1.000000
  141        2.828446      3.939651   1.000000   1.000000
  142        2.834845      3.956812   1.000000   1.000000
  143        2.909402      4.016869   1.000000   1.000000
  144        2.958882      4.021832   1.000000   1.000000
  145        3.170136      4.031684   1.000000   1.000000
  146        3.245245      4.047378   1.000000   1.000000
  147        3.268930      4.113430   1.000000   1.000000
  148        3.329493      4.140066   1.000000   1.000000
  149        3.358043      4.202248   1.000000   1.000000
  150        3.434709      4.221486   1.000000   1.000000
  151        3.460479      4.290375   1.000000   1.000000
  152        3.693480      4.339875   1.000000   1.000000
  153        3.779247      4.343966   1.000000   1.000000
  154        3.816320      4.391915   1.000000   1.000000
  155        3.914825      4.435645   1.000000   1.000000
  156        3.962158      4.461373   1.000000   1.000000
  157        3.994739      4.466982   1.000000   1.000000
  158        4.094187      4.547367   1.000000   1.000000
  159        4.197864      4.580924   1.000000   1.000000
  160        4.216202      4.594495   1.000000   1.000000
  161        4.265066      4.644370   1.000000   1.000000
  162        4.335816      4.645511   1.000000   1.000000
  163        4.339007      4.714039   1.000000   1.000000
  164        4.347664      4.743728   1.000000   1.000000
  165        4.399248      4.765602   1.000000   1.000000
  166        4.440948      4.778388   1.000000   1.000000
  167        4.473679      4.835928   1.000000   1.000000
  168        4.485502      4.863908   1.000000   1.000000
  169        4.493113      4.920873   1.000000   1.000000
  170        4.500154      4.931777   1.000000   1.000000
  171        4.520165      4.982688   1.000000   1.000000
  172        4.556378      4.997187   1.000000   1.000000
  173        4.596676      5.021286   1.000000   1.000000
  174        4.619906      5.038263   1.000000   1.000000
  175        4.629409      5.086871   1.000000   1.000000
  176        4.636868      5.098322   1.000000   1.000000
  177        4.679176      5.102754   1.000000   1.000000
  178        4.700932      5.157188   1.000000   1.000000
  179        4.720960      5.243577   1.000000   1.000000
  180        4.819604      5.247785   1.000000   1.000000
  181        4.834091      5.262827   1.000000   1.000000
  182        4.852665      5.297124   1.000000   1.000000
  183        4.863252      5.315593   1.000000   1.000000
  184        4.919506      5.337767   1.000000   1.000000
  185        4.939619      5.341570   1.000000   1.000000
  186        4.961713      5.388284   1.000000   1.000000
  187        4.984602      5.392311   1.000000   1.000000
  188        5.029093      5.412491   1.000000   1.000000
  189        5.084155      5.445723   1.000000   1.000000
  190        5.087981      5.449104   1.000000   1.000000
  191        5.127736      5.593649   1.000000   1.000000
  192        5.171451      5.650126   1.000000   1.000000
  193        5.191528      5.660120   1.000000   1.000000
  194        5.230653      5.661050   1.000000   1.000000
  195        5.242110      5.672993   1.000000   1.000000
  196        5.289949      5.700183   1.000000   1.000000
  197        5.322374      5.711462   1.000000   1.000000
  198        5.324535      5.743303   1.000000   1.000000
  199        5.347574      5.757783   1.000000   1.000000
  200        5.368731      5.804858   1.000000   1.000000
  201        5.390922      5.824274   1.000000   1.000000