Al                                      
           1
     7.794895    0.000000    0.000000
     0.000000    7.794895    0.000000
     0.000000    0.000000   12.625226
   La   Ni   O 
    16     8    33
Direct configuration=     1
   0.24999979  0.25000000  0.14285883
   0.24999973  0.75000000  0.13882692
   0.75000021  0.25000000  0.14317480
   0.75000027  0.75000000  0.13882816
  -0.00000593  0.00460632  0.35764004
  -0.00000593  0.49539368  0.35764004
   0.50000593  0.00460649  0.35764003
   0.50000593  0.49539351  0.35764003
  -0.00000050  0.99981717  0.63672280
  -0.00000050  0.50018283  0.63672280
   0.50000050  0.99981733  0.63672277
   0.50000050  0.50018267  0.63672277
   0.24999942  0.25000000  0.86200448
   0.25000031  0.75000000  0.86164672
   0.75000058  0.25000000  0.86200194
   0.74999969  0.75000000  0.86164584
   0.00000138  0.99906898  0.00001800
   0.00000138  0.50093102  0.00001800
   0.49999862  0.99906900  0.00001799
   0.49999862  0.50093100  0.00001799
   0.25000043  0.25000000  0.50047196
   0.25000023  0.75000000  0.49684831
   0.74999957  0.25000000  0.50046516
   0.74999977  0.75000000  0.49684837
   0.25000014  0.00223566  0.99889691
   0.25000014  0.49776434  0.99889691
   0.74999986  0.00224105  0.99889984
   0.74999986  0.49775895  0.99889984
  -0.00000602  0.25000000  0.00106493
  -0.00000061  0.75000000  0.98352855
   0.50000602  0.25000000  0.00106384
   0.50000061  0.75000000  0.98352926
  -0.00000191  0.97086783  0.17074886
   0.25000000  0.25000000  0.24911548
  -0.00000191  0.52913217  0.17074886
   0.50000191  0.97086824  0.17074947
   0.50000191  0.52913176  0.17074947
   0.24999969  0.25000000  0.33144509
   0.25000024  0.75000000  0.32454399
   0.75000031  0.25000000  0.33127045
   0.74999976  0.75000000  0.32454392
   0.24999985  0.99943025  0.49985038
   0.24999985  0.50056975  0.49985038
   0.75000015  0.99942810  0.49985125
   0.75000015  0.50057190  0.49985125
   0.00000209  0.25000000  0.50737807
   0.00000025  0.75000000  0.50460311
   0.49999791  0.25000000  0.50737747
   0.49999975  0.75000000  0.50460341
   0.25000026  0.25000000  0.67610670
   0.24999900  0.75000000  0.67793313
   0.74999974  0.25000000  0.67610738
   0.75000100  0.75000000  0.67793370
  -0.00000029  0.00847490  0.82150041
  -0.00000029  0.49152510  0.82150041
   0.50000029  0.00847261  0.82150012
   0.50000029  0.49152739  0.82150012
Direct configuration=     2
   0.24999978  0.25000000  0.13603146
   0.24999973  0.75000000  0.13872087
   0.75000021  0.25000000  0.14295561
   0.75000027  0.75000000  0.13874859
  -0.00013198  0.00436902  0.35775679
  -0.00013198  0.49563098  0.35775679
   0.50013198  0.00436919  0.35775678
   0.50013198  0.49563081  0.35775678
  -0.00001097  0.99981109  0.63674958
  -0.00001097  0.50018891  0.63674958
   0.50001097  0.99981125  0.63674955
   0.50001097  0.50018875  0.63674955
   0.24999942  0.25000000  0.86207754
   0.25000031  0.75000000  0.86168072
   0.75000058  0.25000000  0.86202126
   0.74999969  0.75000000  0.86166113
   0.00003068  0.99908329 -0.00000431
   0.00003068  0.50091671 -0.00000431
   0.49996931  0.99908331 -0.00000432
   0.49996931  0.50091669 -0.00000432
   0.25000042  0.25000000  0.50065771
   0.25000023  0.75000000  0.49686495
   0.74999958  0.25000000  0.50050555
   0.74999977  0.75000000  0.49686624
   0.25000014  0.00212474  0.99887110
   0.25000014  0.49787526  0.99887110
   0.74999986  0.00224664  0.99893708
   0.74999986  0.49775336  0.99893708
  -0.00013600  0.25000000  0.00108666
  -0.00001364  0.75000000  0.98355361
   0.50013600  0.25000000  0.00108556
   0.50001364  0.75000000  0.98355432
  -0.00004201  0.97093478  0.17086001
   0.24999997  0.25000000  0.25202514
  -0.00004201  0.52906522  0.17086001
   0.50004201  0.97093520  0.17086062
   0.50004201  0.52906480  0.17086062
   0.24999969  0.25000000  0.33509330
   0.25000024  0.75000000  0.32454144
   0.75000030  0.25000000  0.33117790
   0.74999976  0.75000000  0.32453989
   0.24999985  0.99949488  0.49978180
   0.24999985  0.50050512  0.49978180
   0.75000015  0.99944731  0.49980092
   0.75000015  0.50055269  0.49980092
   0.00004635  0.25000000  0.50729395
   0.00000559  0.75000000  0.50455002
   0.49995365  0.25000000  0.50729336
   0.49999441  0.75000000  0.50455033
   0.25000026  0.25000000  0.67608157
   0.24999900  0.75000000  0.67791307
   0.74999974  0.25000000  0.67609662
   0.75000100  0.75000000  0.67792573
  -0.00000657  0.00847799  0.82147575
  -0.00000657  0.49152201  0.82147575
   0.50000657  0.00847570  0.82147546
   0.50000657  0.49152430  0.82147546
Direct configuration=     3
   0.24999978  0.25000000  0.12398607
   0.24999974  0.75000000  0.13842577
   0.75000020  0.25000000  0.14232368
   0.75000026  0.75000000  0.13851202
  -0.00042678  0.00374425  0.35810189
  -0.00042678  0.49625575  0.35810189
   0.50042678  0.00374441  0.35810187
   0.50042678  0.49625559  0.35810187
  -0.00003341  0.99980165  0.63681383
  -0.00003341  0.50019835  0.63681383
   0.50003341  0.99980181  0.63681380
   0.50003341  0.50019819  0.63681380
   0.24999943  0.25000000  0.86221277
   0.25000032  0.75000000  0.86176811
   0.75000057  0.25000000  0.86206514
   0.74999968  0.75000000  0.86170548
   0.00008363  0.99909221 -0.00007699
   0.00008363  0.50090779 -0.00007699
   0.49991637  0.99909223 -0.00007699
   0.49991637  0.50090777 -0.00007699
   0.25000039  0.25000000  0.50117798
   0.25000021  0.75000000  0.49691622
   0.74999961  0.25000000  0.50062501
   0.74999979  0.75000000  0.49691994
   0.25000011  0.00179542  0.99879666
   0.25000011  0.49820458  0.99879666
   0.74999989  0.00227014  0.99904878
   0.74999989  0.49772986  0.99904878
  -0.00052451  0.25000000  0.00114967
  -0.00004625  0.75000000  0.98362543
   0.50052449  0.25000000  0.00114856
   0.50004625  0.75000000  0.98362616
  -0.00012977  0.97116639  0.17116186
   0.24999993  0.25000000  0.25337436
  -0.00012977  0.52883361  0.17116186
   0.50012977  0.97116684  0.17116247
   0.50012977  0.52883316  0.17116247
   0.24999967  0.25000000  0.34513447
   0.25000023  0.75000000  0.32452170
   0.75000028  0.25000000  0.33089674
   0.74999976  0.75000000  0.32451874
   0.24999985  0.99964263  0.49960014
   0.24999985  0.50035737  0.49960014
   0.75000015  0.99949845  0.49965438
   0.75000015  0.50050155  0.49965438
   0.00014078  0.25000000  0.50706567
   0.00001604  0.75000000  0.50439425
   0.49985922  0.25000000  0.50706510
   0.49998396  0.75000000  0.50439457
   0.25000025  0.25000000  0.67603396
   0.24999900  0.75000000  0.67786525
   0.74999975  0.25000000  0.67607511
   0.75000100  0.75000000  0.67790617
  -0.00001990  0.00849277  0.82141272
  -0.00001990  0.49150723  0.82141272
   0.50001990  0.00849046  0.82141242
   0.50001990  0.49150954  0.82141242
Direct configuration=     4
   0.24999979  0.25000000  0.11833709
   0.24999975  0.75000000  0.13819878
   0.75000020  0.25000000  0.14175560
   0.75000025  0.75000000  0.13829121
  -0.00058788  0.00325237  0.35841018
  -0.00058788  0.49674763  0.35841018
   0.50058788  0.00325253  0.35841015
   0.50058788  0.49674747  0.35841015
  -0.00004321  0.99980472  0.63684585
  -0.00004321  0.50019528  0.63684585
   0.50004321  0.99980488  0.63684583
   0.50004321  0.50019512  0.63684583
   0.24999943  0.25000000  0.86216216
   0.25000033  0.75000000  0.86182643
   0.75000057  0.25000000  0.86207913
   0.74999967  0.75000000  0.86175345
   0.00006599  0.99903119 -0.00014912
   0.00006599  0.50096881 -0.00014912
   0.49993401  0.99903121 -0.00014912
   0.49993401  0.50096879 -0.00014912
   0.25000037  0.25000000  0.50175511
   0.25000020  0.75000000  0.49696710
   0.74999964  0.25000000  0.50073861
   0.74999980  0.75000000  0.49697199
   0.25000010  0.00153139  0.99872936
   0.25000010  0.49846861  0.99872936
   0.74999990  0.00231720  0.99915243
   0.74999990  0.49768280  0.99915243
  -0.00085025  0.25000000  0.00121339
  -0.00005903  0.75000000  0.98368234
   0.50085022  0.25000000  0.00121228
   0.50005903  0.75000000  0.98368307
  -0.00022122  0.97138760  0.17140524
   0.24999991  0.25000000  0.25404143
  -0.00022122  0.52861240  0.17140524
   0.50022122  0.97138806  0.17140584
   0.50022122  0.52861194  0.17140584
   0.24999966  0.25000000  0.34966368
   0.25000023  0.75000000  0.32448850
   0.75000027  0.25000000  0.33061036
   0.74999977  0.75000000  0.32449411
   0.24999985  0.99970856  0.49946375
   0.24999985  0.50029144  0.49946375
   0.75000015  0.99953837  0.49951890
   0.75000015  0.50046163  0.49951890
   0.00016792  0.25000000  0.50688120
   0.00001705  0.75000000  0.50424631
   0.49983208  0.25000000  0.50688064
   0.49998295  0.75000000  0.50424664
   0.25000026  0.25000000  0.67603897
   0.24999901  0.75000000  0.67784199
   0.74999974  0.25000000  0.67607607
   0.75000099  0.75000000  0.67789528
  -0.00002009  0.00852207  0.82136921
  -0.00002009  0.49147793  0.82136921
   0.50002009  0.00851975  0.82136891
   0.50002009  0.49148025  0.82136891
Direct configuration=     5
   0.24999985  0.25000000  0.10645838
   0.24999978  0.75000000  0.13762594
   0.75000018  0.25000000  0.14013541
   0.75000022  0.75000000  0.13766525
  -0.00091949  0.00191488  0.35929062
  -0.00091949  0.49808512  0.35929062
   0.50091949  0.00191502  0.35929058
   0.50091949  0.49808498  0.35929058
  -0.00006367  0.99982590  0.63688893
  -0.00006367  0.50017410  0.63688893
   0.50006367  0.99982606  0.63688891
   0.50006367  0.50017394  0.63688891
   0.24999945  0.25000000  0.86172535
   0.25000034  0.75000000  0.86195986
   0.75000055  0.25000000  0.86207478
   0.74999966  0.75000000  0.86190069
  -0.00008104  0.99875499 -0.00035943
  -0.00008104  0.50124501 -0.00035943
   0.50008104  0.99875502 -0.00035943
   0.50008104  0.50124498 -0.00035943
   0.25000030  0.25000000  0.50372659
   0.25000016  0.75000000  0.49712310
   0.74999972  0.25000000  0.50107207
   0.74999985  0.75000000  0.49712899
   0.25000007  0.00078093  0.99850025
   0.25000007  0.49921907  0.99850025
   0.74999992  0.00249445  0.99945033
   0.74999992  0.49750555  0.99945033
  -0.00179212  0.25000000  0.00138057
  -0.00007164  0.75000000  0.98383180
   0.50179205  0.25000000  0.00137947
   0.50007164  0.75000000  0.98383255
  -0.00054403  0.97201382  0.17207365
   0.24999987  0.25000000  0.25541038
  -0.00054403  0.52798618  0.17207365
   0.50054403  0.97201431  0.17207422
   0.50054403  0.52798569  0.17207422
   0.24999963  0.25000000  0.35902380
   0.25000022  0.75000000  0.32437136
   0.75000026  0.25000000  0.32971560
   0.74999977  0.75000000  0.32441910
   0.24999985  0.99979913  0.49911662
   0.24999985  0.50020087  0.49911662
   0.75000015  0.99964260  0.49912341
   0.75000015  0.50035740  0.49912341
   0.00016133  0.25000000  0.50638280
   0.00000774  0.75000000  0.50380670
   0.49983867  0.25000000  0.50638226
   0.49999226  0.75000000  0.50380706
   0.25000027  0.25000000  0.67613194
   0.24999902  0.75000000  0.67780711
   0.74999972  0.25000000  0.67611441
   0.75000098  0.75000000  0.67787983
  -0.00000026  0.00863589  0.82126447
  -0.00000026  0.49136411  0.82126447
   0.50000026  0.00863356  0.82126417
   0.50000026  0.49136644  0.82126417
Direct configuration=     6
   0.24999990  0.25000000  0.10371058
   0.24999980  0.75000000  0.13747226
   0.75000016  0.25000000  0.13927904
   0.75000020  0.75000000  0.13737604
  -0.00093701  0.00123972  0.35978189
  -0.00093701  0.49876028  0.35978189
   0.50093701  0.00123984  0.35978184
   0.50093701  0.49876016  0.35978184
  -0.00007845  0.99984717  0.63680969
  -0.00007845  0.50015283  0.63680969
   0.50007845  0.99984733  0.63680967
   0.50007845  0.50015267  0.63680967
   0.24999946  0.25000000  0.86094161
   0.25000035  0.75000000  0.86196547
   0.75000054  0.25000000  0.86198292
   0.74999965  0.75000000  0.86198150
  -0.00031314  0.99844462 -0.00047664
  -0.00031314  0.50155538 -0.00047664
   0.50031314  0.99844467 -0.00047663
   0.50031314  0.50155533 -0.00047663
   0.25000027  0.25000000  0.50560170
   0.25000013  0.75000000  0.49723068
   0.74999977  0.25000000  0.50127008
   0.74999987  0.75000000  0.49722930
   0.25000007  0.00024006  0.99823954
   0.25000007  0.49975994  0.99823954
   0.74999993  0.00265677  0.99960847
   0.74999993  0.49734323  0.99960847
  -0.00246455  0.25000000  0.00138804
  -0.00004626  0.75000000  0.98389403
   0.50246444  0.25000000  0.00138695
   0.50004626  0.75000000  0.98389479
  -0.00085671  0.97234163  0.17241250
   0.24999984  0.25000000  0.25577844
  -0.00085671  0.52765837  0.17241250
   0.50085671  0.97234214  0.17241305
   0.50085671  0.52765786  0.17241305
   0.24999960  0.25000000  0.36095272
   0.25000022  0.75000000  0.32426547
   0.75000026  0.25000000  0.32905728
   0.74999978  0.75000000  0.32436743
   0.24999986  0.99969728  0.49900664
   0.24999986  0.50030272  0.49900664
   0.75000014  0.99968330  0.49889290
   0.75000014  0.50031670  0.49889290
   0.00002938  0.25000000  0.50615884
  -0.00001634  0.75000000  0.50353322
   0.49997062  0.25000000  0.50615831
   0.50001634  0.75000000  0.50353359
   0.25000028  0.25000000  0.67632692
   0.24999902  0.75000000  0.67784790
   0.74999971  0.25000000  0.67620664
   0.75000098  0.75000000  0.67791212
   0.00004809  0.00875595  0.82124466
   0.00004809  0.49124405  0.82124466
   0.49995191  0.00875360  0.82124436
   0.49995191  0.49124640  0.82124436
Direct configuration=     7
   0.25000009  0.25000000  0.09608491
   0.24999986  0.75000000  0.13711620
   0.75000010  0.25000000  0.13609631
   0.75000013  0.75000000  0.13644280
  -0.00085102 -0.00125461  0.36160079
  -0.00085102  0.50125461  0.36160079
   0.50085103 -0.00125454  0.36160072
   0.50085103  0.50125454  0.36160072
  -0.00024117  0.99985758  0.63637432
  -0.00024117  0.50014242  0.63637432
   0.50024118  0.99985777  0.63637430
   0.50024118  0.50014223  0.63637430
   0.24999948  0.25000000  0.85733986
   0.25000038  0.75000000  0.86194588
   0.75000049  0.25000000  0.86154942
   0.74999962  0.75000000  0.86230472
  -0.00131034  0.99716169 -0.00091423
  -0.00131034  0.50283831 -0.00091423
   0.50131034  0.99716176 -0.00091418
   0.50131034  0.50283824 -0.00091418
   0.25000014  0.25000000  0.51352546
   0.25000003  0.75000000  0.49771450
   0.74999996  0.25000000  0.50203140
   0.74999997  0.75000000  0.49763029
   0.25000003 -0.00213571  0.99696410
   0.25000003  0.50213571  0.99696410
   0.74999996  0.00330367  1.00017220
   0.74999996  0.49669633  1.00017220
  -0.00537287  0.25000000  0.00123138
   0.00003969  0.75000000  0.98409083
   0.50537264  0.25000000  0.00123033
   0.49996031  0.75000000  0.98409163
  -0.00227147  0.97356800  0.17370649
   0.24999975  0.25000000  0.25663176
  -0.00227147  0.52643200  0.17370649
   0.50227150  0.97356858  0.17370694
   0.50227150  0.52643142  0.17370694
   0.24999948  0.25000000  0.36672192
   0.25000020  0.75000000  0.32384307
   0.75000025  0.25000000  0.32629076
   0.74999980  0.75000000  0.32418856
   0.24999987  0.99917802  0.49876634
   0.24999987  0.50082198  0.49876634
   0.75000013  0.99980353  0.49801191
   0.75000013  0.50019647  0.49801191
  -0.00056803  0.25000000  0.50541723
  -0.00012862  0.75000000  0.50243513
   0.50056805  0.25000000  0.50541673
   0.50012862  0.75000000  0.50243559
   0.25000033  0.25000000  0.67721249
   0.24999905  0.75000000  0.67804380
   0.74999966  0.25000000  0.67662751
   0.75000095  0.75000000  0.67807970
   0.00029329  0.00931788  0.82115469
   0.00029329  0.49068212  0.82115469
   0.49970673  0.00931547  0.82115440
   0.49970673  0.49068453  0.82115440
Direct configuration=     8
   0.25000016  0.25000000  0.09776085
   0.24999987  0.75000000  0.13749265
   0.75000008  0.25000000  0.13551910
   0.75000011  0.75000000  0.13665351
  -0.00058249 -0.00169692  0.36182859
  -0.00058249  0.50169692  0.36182859
   0.50058251 -0.00169689  0.36182853
   0.50058251  0.50169689  0.36182853
  -0.00064548  0.99959965  0.63603264
  -0.00064548  0.50040035  0.63603264
   0.50064548  0.99959985  0.63603261
   0.50064548  0.50040015  0.63603261
   0.24999947  0.25000000  0.85536900
   0.25000039  0.75000000  0.86192745
   0.75000048  0.25000000  0.86132362
   0.74999961  0.75000000  0.86247691
  -0.00170351  0.99674973 -0.00100465
  -0.00170351  0.50325027 -0.00100465
   0.50170351  0.99674980 -0.00100458
   0.50170351  0.50325020 -0.00100458
   0.25000012  0.25000000  0.51673912
   0.25000002  0.75000000  0.49807634
   0.74999999  0.25000000  0.50225970
   0.74999999  0.75000000  0.49777449
   0.25000002 -0.00350495  0.99596173
   0.25000002  0.50350495  0.99596173
   0.74999998  0.00342099  1.00018696
   0.74999998  0.49657901  1.00018696
  -0.00689302  0.25000000  0.00074283
  -0.00003240  0.75000000  0.98403966
   0.50689277  0.25000000  0.00074178
   0.50003239  0.75000000  0.98404050
  -0.00313537  0.97383973  0.17411173
   0.24999970  0.25000000  0.25688988
  -0.00313537  0.52616027  0.17411173
   0.50313540  0.97384036  0.17411214
   0.50313540  0.52615964  0.17411214
   0.24999941  0.25000000  0.36638424
   0.25000020  0.75000000  0.32375911
   0.75000025  0.25000000  0.32500194
   0.74999979  0.75000000  0.32425567
   0.24999988  0.99889065  0.49920884
   0.24999988  0.50110935  0.49920884
   0.75000012  0.99974417  0.49780646
   0.75000012  0.50025583  0.49780646
  -0.00077774  0.25000000  0.50554242
  -0.00019687  0.75000000  0.50202462
   0.50077777  0.25000000  0.50554193
   0.50019687  0.75000000  0.50202511
   0.25000036  0.25000000  0.67770823
   0.24999905  0.75000000  0.67809556
   0.74999963  0.25000000  0.67680546
   0.75000094  0.75000000  0.67816775
   0.00049224  0.00971353  0.82098672
   0.00049224  0.49028647  0.82098672
   0.49950779  0.00971109  0.82098644
   0.49950779  0.49028891  0.82098644
Direct configuration=     9
   0.25000043  0.25000000  0.09846500
   0.24999994  0.75000000  0.13802708
   0.74999996  0.25000000  0.13380315
   0.75000002  0.75000000  0.13723057
  -0.00011819 -0.00269144  0.36227416
  -0.00011819  0.50269144  0.36227416
   0.50011823 -0.00269150  0.36227410
   0.50011823  0.50269150  0.36227410
  -0.00212301  0.99853401  0.63543518
  -0.00212301  0.50146599  0.63543518
   0.50212304  0.99853426  0.63543515
   0.50212304  0.50146574  0.63543515
   0.24999950  0.25000000  0.85178013
   0.25000049  0.75000000  0.86207112
   0.75000037  0.25000000  0.86096010
   0.74999948  0.75000000  0.86315171
  -0.00225448  0.99624182 -0.00132644
  -0.00225448  0.50375818 -0.00132644
   0.50225446  0.99624188 -0.00132628
   0.50225446  0.50375812 -0.00132628
   0.25000007  0.25000000  0.52340628
   0.24999997  0.75000000  0.49939836
   0.75000005  0.25000000  0.50292282
   0.75000003  0.75000000  0.49813068
   0.24999970 -0.00651649  0.99354509
   0.24999970  0.50651649  0.99354509
   0.75000033  0.00328272  1.00016029
   0.75000033  0.49671728  1.00016029
  -0.01016285  0.25000000 -0.00029709
  -0.00054146  0.75000000  0.98393516
   0.51016257  0.25000000 -0.00029817
   0.50054142  0.75000000  0.98393604
  -0.00535206  0.97460406  0.17538298
   0.24999954  0.25000000  0.25804417
  -0.00535206  0.52539594  0.17538298
   0.50535213  0.97460481  0.17538344
   0.50535213  0.52539519  0.17538344
   0.24999919  0.25000000  0.36871187
   0.25000021  0.75000000  0.32372160
   0.75000025  0.25000000  0.32171846
   0.74999977  0.75000000  0.32463411
   0.24999991  0.99864218  0.50066678
   0.24999991  0.50135782  0.50066678
   0.75000010  0.99964950  0.49721839
   0.75000010  0.50035050  0.49721839
  -0.00091351  0.25000000  0.50601700
  -0.00036034  0.75000000  0.50077258
   0.50091356  0.25000000  0.50601651
   0.50036035  0.75000000  0.50077318
   0.25000043  0.25000000  0.67859132
   0.24999905  0.75000000  0.67788402
   0.74999952  0.25000000  0.67690630
   0.75000094  0.75000000  0.67816122
   0.00098448  0.01081679  0.82011689
   0.00098448  0.48918321  0.82011689
   0.49901557  0.01081426  0.82011650
   0.49901557  0.48918574  0.82011650
Direct configuration=    10
   0.25000026  0.25000000  0.09784784
   0.24999970  0.75000000  0.13825757
   0.75000013  0.25000000  0.13335326
   0.75000024  0.75000000  0.13810812
   0.00008701 -0.00246214  0.36232947
   0.00008701  0.50246214  0.36232947
   0.49991306 -0.00246226  0.36232954
   0.49991306  0.50246226  0.36232954
  -0.00342814  0.99751256  0.63519348
  -0.00342814  0.50248744  0.63519348
   0.50342818  0.99751285  0.63519335
   0.50342818  0.50248715  0.63519335
   0.24999930  0.25000000  0.85113241
   0.25000031  0.75000000  0.86173746
   0.75000053  0.25000000  0.86049349
   0.74999964  0.75000000  0.86376398
  -0.00215715  0.99653932 -0.00167926
  -0.00215715  0.50346068 -0.00167926
   0.50215728  0.99653932 -0.00167907
   0.50215728  0.50346068 -0.00167907
   0.25000008  0.25000000  0.52544447
   0.24999997  0.75000000  0.50101556
   0.75000004  0.25000000  0.50348468
   0.75000003  0.75000000  0.49818077
   0.24999994 -0.00753919  0.99234794
   0.24999994  0.50753919  0.99234794
   0.74999998  0.00237710  0.99985140
   0.74999998  0.49762290  0.99985140
  -0.01095286  0.25000000 -0.00077373
  -0.00128762  0.75000000  0.98393236
   0.51095268  0.25000000 -0.00077482
   0.50128755  0.75000000  0.98393338
  -0.00661067  0.97492593  0.17605030
   0.24999941  0.25000000  0.26023485
  -0.00661067  0.52507407  0.17605030
   0.50661074  0.97492686  0.17605057
   0.50661074  0.52507314  0.17605057
   0.24999896  0.25000000  0.36974921
   0.25000026  0.75000000  0.32372856
   0.75000025  0.25000000  0.31980953
   0.74999970  0.75000000  0.32510957
   0.24999993  0.99879260  0.50240376
   0.24999993  0.50120740  0.50240376
   0.75000009  0.99970011  0.49680638
   0.75000009  0.50029989  0.49680638
  -0.00085284  0.25000000  0.50681782
  -0.00048700  0.75000000  0.49972595
   0.50085288  0.25000000  0.50681729
   0.50048701  0.75000000  0.49972663
   0.25000053  0.25000000  0.67923757
   0.24999902  0.75000000  0.67747174
   0.74999942  0.25000000  0.67657361
   0.75000094  0.75000000  0.67790888
   0.00118236  0.01161199  0.81921116
   0.00118236  0.48838801  0.81921116
   0.49881774  0.01160939  0.81921085
   0.49881774  0.48839061  0.81921085
Direct configuration=    11
   0.25000026  0.25000000  0.09871580
   0.24999946  0.75000000  0.13875446
   0.75000017  0.25000000  0.13294167
   0.75000040  0.75000000  0.14020264
   0.00063440 -0.00132211  0.36250022
   0.00063440  0.50132211  0.36250022
   0.49936576 -0.00132242  0.36250040
   0.49936576  0.50132242  0.36250040
  -0.00584090  0.99568666  0.63470775
  -0.00584090  0.50431334  0.63470775
   0.50584100  0.99568703  0.63470763
   0.50584100  0.50431297  0.63470763
   0.24999914  0.25000000  0.85016628
   0.25000030  0.75000000  0.86046820
   0.75000057  0.25000000  0.85905971
   0.74999962  0.75000000  0.86521308
  -0.00198967  0.99717383 -0.00263267
  -0.00198967  0.50282617 -0.00263267
   0.50198977  0.99717384 -0.00263236
   0.50198977  0.50282616 -0.00263236
   0.25000012  0.25000000  0.52790926
   0.24999994  0.75000000  0.50509569
   0.75000004  0.25000000  0.50494628
   0.75000006  0.75000000  0.49797145
   0.24999987 -0.00858674  0.99040226
   0.24999987  0.50858674  0.99040226
   0.75000003 -0.00000126  0.99886918
   0.75000003  0.50000126  0.99886918
  -0.01115907  0.25000000 -0.00149470
  -0.00279077  0.75000000  0.98399559
   0.51115916  0.25000000 -0.00149573
   0.50279064  0.75000000  0.98399684
  -0.00892123  0.97547064  0.17706089
   0.24999895  0.25000000  0.25970651
  -0.00892123  0.52452936  0.17706089
   0.50892131  0.97547207  0.17706094
   0.50892131  0.52452793  0.17706094
   0.24999835  0.25000000  0.37529385
   0.25000038  0.75000000  0.32356729
   0.75000027  0.25000000  0.31623915
   0.74999952  0.75000000  0.32621753
   0.24999999  0.99899822  0.50662732
   0.24999999  0.50100178  0.50662732
   0.75000007  0.99998036  0.49576996
   0.75000007  0.50001964  0.49576996
  -0.00104475  0.25000000  0.50875516
  -0.00071401  0.75000000  0.49721091
   0.50104477  0.25000000  0.50875446
   0.50071402  0.75000000  0.49721174
   0.25000072  0.25000000  0.68097036
   0.24999890  0.75000000  0.67659820
   0.74999924  0.25000000  0.67567417
   0.75000099  0.75000000  0.67716125
   0.00136990  0.01321349  0.81739955
   0.00136990  0.48678651  0.81739955
   0.49863031  0.01321070  0.81739925
   0.49863031  0.48678930  0.81739925
Direct configuration=    12
   0.25000061  0.25000000  0.09825159
   0.24999974  0.75000000  0.13843067
   0.74999990  0.25000000  0.13313498
   0.75000010  0.75000000  0.13971600
   0.00054647 -0.00128334  0.36253779
   0.00054647  0.50128334  0.36253779
   0.49945372 -0.00128365  0.36253778
   0.49945372  0.50128365  0.36253778
  -0.00472881  0.99666252  0.63496160
  -0.00472881  0.50333748  0.63496160
   0.50472894  0.99666289  0.63496163
   0.50472894  0.50333711  0.63496163
   0.24999941  0.25000000  0.85114656
   0.25000060  0.75000000  0.86050621
   0.75000032  0.25000000  0.85913489
   0.74999933  0.75000000  0.86502945
  -0.00208281  0.99694784 -0.00267371
  -0.00208281  0.50305216 -0.00267371
   0.50208270  0.99694791 -0.00267337
   0.50208270  0.50305209 -0.00267337
   0.25000014  0.25000000  0.52659330
   0.24999993  0.75000000  0.50473496
   0.75000006  0.25000000  0.50497795
   0.75000009  0.75000000  0.49761836
   0.24999964 -0.00727528  0.99154426
   0.24999964  0.50727528  0.99154426
   0.75000048  0.00028649  0.99874874
   0.75000048  0.49971351  0.99874874
  -0.00976514  0.25000000 -0.00096292
  -0.00209272  0.75000000  0.98403680
   0.50976516  0.25000000 -0.00096394
   0.50209262  0.75000000  0.98403801
  -0.00791148  0.97533562  0.17650738
   0.24999888  0.25000000  0.26071854
  -0.00791148  0.52466438  0.17650738
   0.50791158  0.97533705  0.17650762
   0.50791158  0.52466295  0.17650762
   0.24999831  0.25000000  0.37261695
   0.25000039  0.75000000  0.32340405
   0.75000031  0.25000000  0.31780037
   0.74999951  0.75000000  0.32603535
   0.25000000  0.99877998  0.50614386
   0.25000000  0.50122002  0.50614386
   0.75000009  1.00014947  0.49575153
   0.75000009  0.49985053  0.49575153
  -0.00131588  0.25000000  0.50845127
  -0.00043623  0.75000000  0.49744992
   0.50131590  0.25000000  0.50845051
   0.50043629  0.75000000  0.49745073
   0.25000069  0.25000000  0.68023608
   0.24999885  0.75000000  0.67685467
   0.74999930  0.25000000  0.67568590
   0.75000066  0.75000000  0.67703637
   0.00101140  0.01265329  0.81799117
   0.00101140  0.48734671  0.81799117
   0.49898881  0.01265048  0.81799078
   0.49898881  0.48734952  0.81799078
Direct configuration=    13
   0.25000061  0.25000000  0.09837048
   0.24999969  0.75000000  0.13832492
   0.74999992  0.25000000  0.13320198
   0.75000013  0.75000000  0.13984845
   0.00054695 -0.00117747  0.36253906
   0.00054695  0.50117747  0.36253906
   0.49945330 -0.00117782  0.36253907
   0.49945330  0.50117782  0.36253907
  -0.00451002  0.99692956  0.63500088
  -0.00451002  0.50307044  0.63500088
   0.50451018  0.99692992  0.63500088
   0.50451018  0.50307008  0.63500088
   0.24999938  0.25000000  0.85153427
   0.25000060  0.75000000  0.86048612
   0.75000035  0.25000000  0.85899633
   0.74999932  0.75000000  0.86504423
  -0.00207182  0.99695498 -0.00290034
  -0.00207182  0.50304502 -0.00290034
   0.50207186  0.99695502 -0.00289997
   0.50207186  0.50304498 -0.00289997
   0.25000020  0.25000000  0.52621610
   0.24999997  0.75000000  0.50530499
   0.75000004  0.25000000  0.50528490
   0.75000006  0.75000000  0.49734178
   0.24999984 -0.00667991  0.99187874
   0.24999984  0.50667991  0.99187874
   0.75000018  0.00012286  0.99840119
   0.75000018  0.49987714  0.99840119
  -0.00905434  0.25000000 -0.00079665
  -0.00175361  0.75000000  0.98402220
   0.50905443  0.25000000 -0.00079771
   0.50175353  0.75000000  0.98402351
  -0.00771467  0.97538498  0.17632237
   0.24999869  0.25000000  0.26117547
  -0.00771467  0.52461502  0.17632237
   0.50771458  0.97538647  0.17632251
   0.50771458  0.52461353  0.17632251
   0.24999811  0.25000000  0.37215720
   0.25000047  0.75000000  0.32325826
   0.75000031  0.25000000  0.31813448
   0.74999942  0.75000000  0.32605100
   0.25000002  0.99882303  0.50668861
   0.25000002  0.50117697  0.50668861
   0.75000011  1.00023951  0.49550658
   0.75000011  0.49976049  0.49550658
  -0.00130304  0.25000000  0.50860539
  -0.00030426  0.75000000  0.49707566
   0.50130308  0.25000000  0.50860453
   0.50030434  0.75000000  0.49707649
   0.25000074  0.25000000  0.68021385
   0.24999879  0.75000000  0.67692572
   0.74999928  0.25000000  0.67559715
   0.75000064  0.75000000  0.67682742
   0.00080835  0.01259366  0.81809515
   0.00080835  0.48740634  0.81809515
   0.49919190  0.01259077  0.81809487
   0.49919190  0.48740923  0.81809487
Direct configuration=    14
   0.25000065  0.25000000  0.09873151
   0.24999959  0.75000000  0.13818172
   0.74999995  0.25000000  0.13313863
   0.75000017  0.75000000  0.14008688
   0.00056524 -0.00117475  0.36250407
   0.00056524  0.50117475  0.36250407
   0.49943508 -0.00117521  0.36250412
   0.49943508  0.50117521  0.36250412
  -0.00439408  0.99716832  0.63502802
  -0.00439408  0.50283168  0.63502802
   0.50439429  0.99716867  0.63502798
   0.50439429  0.50283133  0.63502798
   0.24999933  0.25000000  0.85187469
   0.25000061  0.75000000  0.86061697
   0.75000039  0.25000000  0.85886023
   0.74999930  0.75000000  0.86502759
  -0.00206764  0.99701181 -0.00332603
  -0.00206764  0.50298819 -0.00332603
   0.50206771  0.99701181 -0.00332560
   0.50206771  0.50298819 -0.00332560
   0.25000027  0.25000000  0.52634363
   0.24999999  0.75000000  0.50639718
   0.75000002  0.25000000  0.50581700
   0.75000006  0.75000000  0.49698311
   0.25000015 -0.00612292  0.99211095
   0.25000015  0.50612292  0.99211095
   0.74999989 -0.00010599  0.99778090
   0.74999989  0.50010599  0.99778090
  -0.00847168  0.25000000 -0.00067601
  -0.00115472  0.75000000  0.98395170
   0.50847182  0.25000000 -0.00067715
   0.50115464  0.75000000  0.98395319