    1    1    1    2
  0.1658294E+02  0.2862368E-09  0.2862368E-09  0.2862368E-09  0.5000000E-15
   1.0000000000000000E-004
  CAR 
 unknown system                          
      3     56     48

  0.1262379E-14  0.1262379E-14  0.1262379E-14  0.7513148E-03
    1       -3.151215     -3.153051   1.000000   1.000000
    2       20.540463     20.539093   0.000000   0.000000
    3       20.540464     20.539093   0.000000   0.000000
    4       20.540463     20.539093   0.000000   0.000000
    5       21.995239     21.989843   0.000000   0.000000
    6       21.995240     21.989843   0.000000   0.000000
    7       21.995240     21.989844   0.000000   0.000000
    8       24.377635     24.377850   0.000000   0.000000
    9       27.315122     27.311206   0.000000   0.000000
   10       27.315122     27.311206   0.000000   0.000000
   11       30.160691     30.157512   0.000000   0.000000
   12       32.511004     32.509935   0.000000   0.000000
   13       32.511004     32.509935   0.000000   0.000000
   14       32.511004     32.509936   0.000000   0.000000
   15       41.063470     41.060917   0.000000   0.000000
   16       55.994370     55.993284   0.000000   0.000000
   17       55.994370     55.993285   0.000000   0.000000
   18       55.994371     55.993285   0.000000   0.000000
   19       56.045731     56.045863   0.000000   0.000000
   20       59.212037     59.209154   0.000000   0.000000
   21       59.212037     59.209154   0.000000   0.000000
   22       59.212037     59.209154   0.000000   0.000000
   23       62.832631     62.832069   0.000000   0.000000
   24       62.832631     62.832069   0.000000   0.000000
   25       65.076155     65.072088   0.000000   0.000000
   26       65.076155     65.072089   0.000000   0.000000
   27       65.076155     65.072089   0.000000   0.000000
   28       73.173479     73.172213   0.000000   0.000000
   29       73.173479     73.172213   0.000000   0.000000
   30       73.173480     73.172215   0.000000   0.000000
   31       80.817070     80.815834   0.000000   0.000000
   32       83.071281     83.069146   0.000000   0.000000
   33       83.071281     83.069146   0.000000   0.000000
   34       87.201025     87.200874   0.000000   0.000000
   35       87.201025     87.200875   0.000000   0.000000
   36       87.201026     87.200877   0.000000   0.000000
   37       90.083717     90.077516   0.000000   0.000000
   38       90.083717     90.077517   0.000000   0.000000
   39       90.083718     90.077517   0.000000   0.000000
   40       90.891523     90.884402   0.000000   0.000000
   41       93.457548     93.457170   0.000000   0.000000
   42       93.457548     93.457171   0.000000   0.000000
   43       93.457549     93.457171   0.000000   0.000000
   44       93.932277     93.928507   0.000000   0.000000
   45       93.932277     93.928507   0.000000   0.000000
   46       93.932277     93.928507   0.000000   0.000000
   47       96.373264     96.373662   0.000000   0.000000
   48       96.373264     96.373663   0.000000   0.000000

  0.9090909E-01  0.1262062E-14  0.1262062E-14  0.6010518E-02
    1       -2.927389     -2.929225   1.000000   1.000000
    2       17.619288     17.617191   0.000000   0.000000
    3       19.893886     19.891548   0.000000   0.000000
    4       19.893887     19.891548   0.000000   0.000000
    5       22.669826     22.666303   0.000000   0.000000
    6       22.980466     22.975877   0.000000   0.000000
    7       22.980467     22.975879   0.000000   0.000000
    8       26.202322     26.199099   0.000000   0.000000
    9       26.202322     26.199099   0.000000   0.000000
   10       26.470565     26.469721   0.000000   0.000000
   11       29.408725     29.405955   0.000000   0.000000
   12       33.603872     33.602157   0.000000   0.000000
   13       34.081181     34.079524   0.000000   0.000000
   14       34.081181     34.079525   0.000000   0.000000
   15       41.938500     41.936075   0.000000   0.000000
   16       55.267719     55.267121   0.000000   0.000000
   17       55.557677     55.556221   0.000000   0.000000
   18       55.557677     55.556222   0.000000   0.000000
   19       56.340776     56.340237   0.000000   0.000000
   20       57.166690     57.164181   0.000000   0.000000
   21       57.166690     57.164181   0.000000   0.000000
   22       59.195843     59.193153   0.000000   0.000000
   23       61.578624     61.577174   0.000000   0.000000
   24       61.578624     61.577175   0.000000   0.000000
   25       65.276408     65.272299   0.000000   0.000000
   26       68.932252     68.929203   0.000000   0.000000
   27       68.932253     68.929204   0.000000   0.000000
   28       71.527154     71.526055   0.000000   0.000000
   29       72.973821     72.972291   0.000000   0.000000
   30       72.973822     72.972292   0.000000   0.000000
   31       81.823818     81.821296   0.000000   0.000000
   32       81.823818     81.821297   0.000000   0.000000
   33       82.299564     82.297907   0.000000   0.000000
   34       84.085256     84.082057   0.000000   0.000000
   35       85.787433     85.787053   0.000000   0.000000
   36       85.787433     85.787053   0.000000   0.000000
   37       87.981909     87.979313   0.000000   0.000000
   38       87.981909     87.979315   0.000000   0.000000
   39       89.003419     89.001565   0.000000   0.000000
   40       90.083446     90.077339   0.000000   0.000000
   41       91.300675     91.298785   0.000000   0.000000
   42       91.300675     91.298786   0.000000   0.000000
   43       92.877212     92.875863   0.000000   0.000000
   44       94.803510     94.803753   0.000000   0.000000
   45       95.642743     95.643146   0.000000   0.000000
   46       95.642743     95.643146   0.000000   0.000000
   47       97.095665     97.091882   0.000000   0.000000
   48       97.095665     97.091882   0.000000   0.000000

  0.1818182E+00  0.1266963E-14  0.1266963E-14  0.6010518E-02
    1       -2.258014     -2.259850   1.000000   1.000000
    2       13.974288     13.972273   0.000000   0.000000
    3       19.160764     19.158079   0.000000   0.000000
    4       19.160764     19.158080   0.000000   0.000000
    5       22.437130     22.434208   0.000000   0.000000
    6       23.802898     23.798651   0.000000   0.000000
    7       23.802898     23.798652   0.000000   0.000000
    8       25.316070     25.313197   0.000000   0.000000
    9       25.316071     25.313198   0.000000   0.000000
   10       27.892756     27.890177   0.000000   0.000000
   11       29.979540     29.978134   0.000000   0.000000
   12       36.431333     36.428924   0.000000   0.000000
   13       37.234918     37.232724   0.000000   0.000000
   14       37.234918     37.232725   0.000000   0.000000
   15       44.145092     44.142976   0.000000   0.000000
   16       51.709216     51.706855   0.000000   0.000000
   17       51.709216     51.706856   0.000000   0.000000
   18       53.875769     53.875010   0.000000   0.000000
   19       56.376253     56.374913   0.000000   0.000000
   20       56.376253     56.374914   0.000000   0.000000
   21       56.541455     56.540740   0.000000   0.000000
   22       58.857858     58.855679   0.000000   0.000000
   23       61.718489     61.716833   0.000000   0.000000
   24       61.718490     61.716834   0.000000   0.000000
   25       65.866723     65.862465   0.000000   0.000000
   26       68.893840     68.892561   0.000000   0.000000
   27       71.062781     71.060322   0.000000   0.000000
   28       71.062782     71.060323   0.000000   0.000000
   29       73.944577     73.942303   0.000000   0.000000
   30       73.944577     73.942305   0.000000   0.000000
   31       78.844535     78.840587   0.000000   0.000000
   32       78.981143     78.978756   0.000000   0.000000
   33       78.981143     78.978756   0.000000   0.000000
   34       82.811930     82.812150   0.000000   0.000000
   35       82.811930     82.812150   0.000000   0.000000
   36       84.819659     84.817983   0.000000   0.000000
   37       85.651345     85.650967   0.000000   0.000000
   38       86.580035     86.578446   0.000000   0.000000
   39       86.580035     86.578446   0.000000   0.000000
   40       87.491165     87.489568   0.000000   0.000000
   41       89.444034     89.438732   0.000000   0.000000
   42       90.011972     90.009669   0.000000   0.000000
   43       90.011972     90.009671   0.000000   0.000000
   44       93.909769     93.910353   0.000000   0.000000
   45       97.282932     97.282345   0.000000   0.000000
   46       97.282932     97.282345   0.000000   0.000000
   47       99.484292     99.482673   0.000000   0.000000
   48       99.484292     99.482674   0.000000   0.000000

  0.2727273E+00  0.1237835E-14  0.1237835E-14  0.6010518E-02
    1       -1.149304     -1.151139   1.000000   1.000000
    2       10.549611     10.547658  -0.016184  -0.016290
    3       18.751963     18.749153   0.000000   0.000000
    4       18.751963     18.749154   0.000000   0.000000
    5       22.225229     22.222541   0.000000   0.000000
    6       22.257867     22.254592   0.000000   0.000000
    7       22.257867     22.254593   0.000000   0.000000
    8       26.247070     26.244513   0.000000   0.000000
    9       27.361102     27.357399   0.000000   0.000000
   10       27.361102     27.357400   0.000000   0.000000
   11       33.314314     33.312549   0.000000   0.000000
   12       40.516191     40.513212   0.000000   0.000000
   13       40.848877     40.846168   0.000000   0.000000
   14       40.848877     40.846169   0.000000   0.000000
   15       47.029752     47.028012   0.000000   0.000000
   16       47.367996     47.366030   0.000000   0.000000
   17       47.367996     47.366030   0.000000   0.000000
   18       51.909887     51.909199   0.000000   0.000000
   19       56.332488     56.331234   0.000000   0.000000
   20       56.332489     56.331235   0.000000   0.000000
   21       56.767095     56.766164   0.000000   0.000000
   22       57.908086     57.906616   0.000000   0.000000
   23       62.166583     62.164656   0.000000   0.000000
   24       62.166583     62.164658   0.000000   0.000000
   25       66.325637     66.323308   0.000000   0.000000
   26       66.805263     66.800703   0.000000   0.000000
   27       67.836406     67.833622   0.000000   0.000000
   28       67.836407     67.833623   0.000000   0.000000
   29       74.382183     74.381245   0.000000   0.000000
   30       74.382184     74.381245   0.000000   0.000000
   31       75.744286     75.740205   0.000000   0.000000
   32       78.380477     78.380843   0.000000   0.000000
   33       79.117639     79.117190   0.000000   0.000000
   34       79.117641     79.117191   0.000000   0.000000
   35       79.964611     79.962909   0.000000   0.000000
   36       79.964614     79.962909   0.000000   0.000000
   37       81.181523     81.180185   0.000000   0.000000
   38       88.161313     88.159656   0.000000   0.000000
   39       88.161313     88.159657   0.000000   0.000000
   40       88.738786     88.734913   0.000000   0.000000
   41       89.480793     89.478425   0.000000   0.000000
   42       89.480784     89.478429   0.000000   0.000000
   43       91.113664     91.111856   0.000000   0.000000
   44       93.030411     93.030144   0.000000   0.000000
   45       97.507701     97.506204   0.000000   0.000000
   46       97.507695     97.506234   0.000000   0.000000
   47      101.493613    101.491866   0.000000   0.000000
   48      102.438834    102.438310   0.000000   0.000000

  0.3636364E+00  0.1236297E-14  0.1236297E-14  0.6010518E-02
    1        0.388794      0.386961   1.000000   1.000000
    2        7.447122      7.445203   0.711074   0.711879
    3       18.708048     18.705158   0.000000   0.000000
    4       18.708049     18.705158   0.000000   0.000000
    5       20.828706     20.825684   0.000000   0.000000
    6       20.828706     20.825684   0.000000   0.000000
    7       22.296171     22.293633   0.000000   0.000000
    8       24.759371     24.756777   0.000000   0.000000
    9       29.889526     29.885365   0.000000   0.000000
   10       29.889526     29.885366   0.000000   0.000000
   11       36.444837     36.442558   0.000000   0.000000
   12       41.902837     41.900108   0.000000   0.000000
   13       41.902837     41.900108   0.000000   0.000000
   14       45.037723     45.034360   0.000000   0.000000
   15       46.436959     46.435189   0.000000   0.000000
   16       46.436959     46.435190   0.000000   0.000000
   17       48.329823     48.328410   0.000000   0.000000
   18       51.744399     51.744188   0.000000   0.000000
   19       56.257741     56.256506   0.000000   0.000000
   20       56.257741     56.256507   0.000000   0.000000
   21       56.382044     56.380941   0.000000   0.000000
   22       57.055541     57.054353   0.000000   0.000000
   23       61.344521     61.341419   0.000000   0.000000
   24       61.344522     61.341420   0.000000   0.000000
   25       63.740833     63.737440   0.000000   0.000000
   26       64.405014     64.403592   0.000000   0.000000
   27       64.405014     64.403592   0.000000   0.000000
   28       67.966532     67.961411   0.000000   0.000000
   29       69.671458     69.670321   0.000000   0.000000
   30       73.830853     73.830107   0.000000   0.000000
   31       73.830856     73.830109   0.000000   0.000000
   32       76.554205     76.552353   0.000000   0.000000
   33       76.967013     76.966706   0.000000   0.000000
   34       76.967013     76.966707   0.000000   0.000000
   35       78.219061     78.218306   0.000000   0.000000
   36       80.433383     80.432205   0.000000   0.000000
   37       80.433384     80.432206   0.000000   0.000000
   38       88.537579     88.533579   0.000000   0.000000
   39       89.119135     89.116910   0.000000   0.000000
   40       89.119142     89.116911   0.000000   0.000000
   41       90.466130     90.466089   0.000000   0.000000
   42       92.008729     92.006662   0.000000   0.000000
   43       92.008728     92.006663   0.000000   0.000000
   44       94.222895     94.221983   0.000000   0.000000
   45       98.961488     98.959479   0.000000   0.000000
   46       98.961528     98.959501   0.000000   0.000000
   47      102.337232    102.334288   0.000000   0.000000
   48      104.087284    104.086392   0.000000   0.000000

  0.4545455E+00  0.1248969E-14  0.1248969E-14  0.6010518E-02
    1        2.341673      2.339866   1.000000   1.000000
    2        4.707940      4.706013   1.000000   1.000000
    3       19.037220     19.034176   0.000000   0.000000
    4       19.037220     19.034177   0.000000   0.000000
    5       19.749433     19.746622   0.000000   0.000000
    6       19.749433     19.746623   0.000000   0.000000
    7       22.733650     22.731351   0.000000   0.000000
    8       23.570687     23.567900   0.000000   0.000000
    9       32.212967     32.207942   0.000000   0.000000
   10       32.212967     32.207944   0.000000   0.000000
   11       39.008447     39.005294   0.000000   0.000000
   12       39.226304     39.224822   0.000000   0.000000
   13       39.226304     39.224823   0.000000   0.000000
   14       45.811181     45.810840   0.000000   0.000000
   15       49.628533     49.624858   0.000000   0.000000
   16       50.321046     50.318621   0.000000   0.000000
   17       50.321046     50.318622   0.000000   0.000000
   18       54.193927     54.192580   0.000000   0.000000
   19       55.448598     55.447053   0.000000   0.000000
   20       55.448599     55.447054   0.000000   0.000000
   21       55.450694     55.450521   0.000000   0.000000
   22       57.645626     57.644064   0.000000   0.000000
   23       57.937245     57.934626   0.000000   0.000000
   24       57.937245     57.934627   0.000000   0.000000
   25       61.662663     61.660116   0.000000   0.000000
   26       63.622522     63.621259   0.000000   0.000000
   27       64.229443     64.228172   0.000000   0.000000
   28       64.229443     64.228173   0.000000   0.000000
   29       68.955528     68.949611   0.000000   0.000000
   30       73.600115     73.599417   0.000000   0.000000
   31       73.600115     73.599417   0.000000   0.000000
   32       75.529016     75.528451   0.000000   0.000000
   33       75.529017     75.528451   0.000000   0.000000
   34       76.328843     76.328896   0.000000   0.000000
   35       76.862901     76.860811   0.000000   0.000000
   36       80.534987     80.534291   0.000000   0.000000
   37       80.534987     80.534293   0.000000   0.000000
   38       88.587963     88.583701   0.000000   0.000000
   39       88.875682     88.873542   0.000000   0.000000
   40       88.875682     88.873544   0.000000   0.000000
   41       89.206146     89.206442   0.000000   0.000000
   42       94.195317     94.194795   0.000000   0.000000
   43       95.092773     95.090749   0.000000   0.000000
   44       95.092773     95.090749   0.000000   0.000000
   45      101.178665    101.177481   0.000000   0.000000
   46      101.178666    101.177483   0.000000   0.000000
   47      105.120341    105.117628   0.000000   0.000000
   48      105.120342    105.117631   0.000000   0.000000

  0.9090909E-01  0.9090909E-01  0.1262379E-14  0.4507889E-02
    1       -2.852855     -2.854691   1.000000   1.000000
    2       18.631881     18.629293   0.000000   0.000000
    3       18.631882     18.629293   0.000000   0.000000
    4       18.931617     18.930670   0.000000   0.000000
    5       21.328210     21.322930   0.000000   0.000000
    6       24.291847     24.289051   0.000000   0.000000
    7       24.336120     24.331759   0.000000   0.000000
    8       24.336120     24.331760   0.000000   0.000000
    9       26.582759     26.582534   0.000000   0.000000
   10       27.591141     27.587177   0.000000   0.000000
   11       30.594265     30.590844   0.000000   0.000000
   12       32.856705     32.855784   0.000000   0.000000
   13       32.856705     32.855785   0.000000   0.000000
   14       35.566655     35.564362   0.000000   0.000000
   15       42.373660     42.371294   0.000000   0.000000
   16       55.177838     55.176139   0.000000   0.000000
   17       55.177838     55.176139   0.000000   0.000000
   18       55.402698     55.402498   0.000000   0.000000
   19       56.511285     56.510540   0.000000   0.000000
   20       57.444572     57.442080   0.000000   0.000000
   21       57.444572     57.442080   0.000000   0.000000
   22       57.854587     57.852753   0.000000   0.000000
   23       59.406366     59.403465   0.000000   0.000000
   24       62.753561     62.752963   0.000000   0.000000
   25       67.469889     67.466131   0.000000   0.000000
   26       67.469889     67.466132   0.000000   0.000000
   27       70.389704     70.388012   0.000000   0.000000
   28       70.431591     70.428959   0.000000   0.000000
   29       73.431215     73.430177   0.000000   0.000000
   30       73.431215     73.430178   0.000000   0.000000
   31       80.619916     80.617557   0.000000   0.000000
   32       82.569408     82.567165   0.000000   0.000000
   33       82.682712     82.680000   0.000000   0.000000
   34       82.682712     82.680000   0.000000   0.000000
   35       83.404861     83.401492   0.000000   0.000000
   36       84.124098     84.122718   0.000000   0.000000
   37       88.738765     88.741065   0.000000   0.000000
   38       90.077464     90.075197   0.000000   0.000000
   39       90.077464     90.075197   0.000000   0.000000
   40       90.108140     90.106158   0.000000   0.000000
   41       90.108141     90.106160   0.000000   0.000000
   42       92.128078     92.125859   0.000000   0.000000
   43       93.129561     93.124103   0.000000   0.000000
   44       94.398470     94.394263   0.000000   0.000000
   45       94.792570     94.792190   0.000000   0.000000
   46       97.777069     97.775747   0.000000   0.000000
   47       97.802289     97.800443   0.000000   0.000000
   48       97.802294     97.800566   0.000000   0.000000

  0.1818182E+00  0.9090909E-01  0.1261396E-14  0.1803156E-01
    1       -2.332216     -2.334052   1.000000   1.000000
    2       15.296226     15.294251   0.000000   0.000000
    3       17.705768     17.703110   0.000000   0.000000
    4       19.047037     19.044984   0.000000   0.000000
    5       21.665473     21.660271   0.000000   0.000000
    6       22.280722     22.278674   0.000000   0.000000
    7       24.715228     24.711802   0.000000   0.000000
    8       25.735966     25.731210   0.000000   0.000000
    9       27.075789     27.072661   0.000000   0.000000
   10       29.500444     29.498572   0.000000   0.000000
   11       29.951635     29.949527   0.000000   0.000000
   12       34.729624     34.728182   0.000000   0.000000
   13       35.037409     35.035610   0.000000   0.000000
   14       37.875240     37.872486   0.000000   0.000000
   15       44.420946     44.418806   0.000000   0.000000
   16       51.716511     51.714215   0.000000   0.000000
   17       52.803763     52.801632   0.000000   0.000000
   18       55.401334     55.400582   0.000000   0.000000
   19       55.656429     55.655477   0.000000   0.000000
   20       56.169031     56.167720   0.000000   0.000000
   21       56.989865     56.988452   0.000000   0.000000
   22       57.964784     57.962418   0.000000   0.000000
   23       59.366674     59.364041   0.000000   0.000000
   24       62.305828     62.304823   0.000000   0.000000
   25       67.461816     67.459690   0.000000   0.000000
   26       68.412174     68.408547   0.000000   0.000000
   27       71.311713     71.308898   0.000000   0.000000
   28       72.533312     72.531923   0.000000   0.000000
   29       72.575867     72.574220   0.000000   0.000000
   30       74.908409     74.906697   0.000000   0.000000
   31       77.296893     77.294259   0.000000   0.000000
   32       78.426360     78.422902   0.000000   0.000000
   33       80.657908     80.655015   0.000000   0.000000
   34       81.700975     81.698976   0.000000   0.000000
   35       82.483096     82.481386   0.000000   0.000000
   36       84.086391     84.085752   0.000000   0.000000
   37       86.208054     86.206526   0.000000   0.000000
   38       86.271529     86.269457   0.000000   0.000000
   39       89.139744     89.138818   0.000000   0.000000
   40       89.254961     89.253829   0.000000   0.000000
   41       89.778329     89.776806   0.000000   0.000000
   42       91.351590     91.350966   0.000000   0.000000
   43       93.738707     93.736436   0.000000   0.000000
   44       94.415037     94.411652   0.000000   0.000000
   45       94.514844     94.513065   0.000000   0.000000
   46       96.173862     96.172537   0.000000   0.000000
   47       97.031918     97.031593   0.000000   0.000000
   48       97.614578     97.612716   0.000000   0.000000

  0.2727273E+00  0.9090909E-01  0.1266963E-14  0.1803156E-01
    1       -1.370362     -1.372197   1.000000   1.000000
    2       11.821611     11.819668   0.000000   0.000000
    3       17.149594     17.146902   0.000000   0.000000
    4       18.706897     18.704497   0.000000   0.000000
    5       20.015996     20.012893   0.000000   0.000000
    6       23.795732     23.791584   0.000000   0.000000
    7       24.649467     24.646814   0.000000   0.000000
    8       24.757482     24.753742   0.000000   0.000000
    9       28.254319     28.251835   0.000000   0.000000
   10       28.539716     28.535834   0.000000   0.000000
   11       33.055557     33.053784   0.000000   0.000000
   12       38.084378     38.082336   0.000000   0.000000
   13       39.026376     39.023968   0.000000   0.000000
   14       40.879930     40.876873   0.000000   0.000000
   15       47.132044     47.130048   0.000000   0.000000
   16       47.326756     47.324850   0.000000   0.000000
   17       49.079510     49.077390   0.000000   0.000000
   18       53.668397     53.667378   0.000000   0.000000
   19       55.536205     55.535633   0.000000   0.000000
   20       56.170217     56.168990   0.000000   0.000000
   21       57.119256     57.117753   0.000000   0.000000
   22       58.542346     58.539844   0.000000   0.000000
   23       58.611653     58.609755   0.000000   0.000000
   24       62.524010     62.522738   0.000000   0.000000
   25       65.011714     65.009039   0.000000   0.000000
   26       68.781483     68.777782   0.000000   0.000000
   27       68.846052     68.843307   0.000000   0.000000
   28       71.528774     71.527569   0.000000   0.000000
   29       72.014379     72.013417   0.000000   0.000000
   30       73.724631     73.721399   0.000000   0.000000
   31       76.996552     76.993839   0.000000   0.000000
   32       77.119876     77.119294   0.000000   0.000000
   33       78.608546     78.606117   0.000000   0.000000
   34       80.686184     80.685036   0.000000   0.000000
   35       81.014903     81.013011   0.000000   0.000000
   36       81.476182     81.474923   0.000000   0.000000
   37       82.625092     82.624399   0.000000   0.000000
   38       86.746379     86.744381   0.000000   0.000000
   39       86.792654     86.790178   0.000000   0.000000
   40       87.047120     87.045904   0.000000   0.000000
   41       91.007654     91.006009   0.000000   0.000000
   42       92.378414     92.378187   0.000000   0.000000
   43       92.602140     92.600005   0.000000   0.000000
   44       94.136491     94.133357   0.000000   0.000000
   45       94.482031     94.480323   0.000000   0.000000
   46       97.272550     97.271611   0.000000   0.000000
   47       99.725024     99.723932   0.000000   0.000000
   48      100.797129    100.796659   0.000000   0.000000

  0.3636364E+00  0.9090909E-01  0.1237502E-14  0.1803156E-01
    1        0.023939      0.022106   1.000000   1.000000
    2        8.620985      8.619070   0.196706   0.197551
    3       16.970381     16.967658   0.000000   0.000000
    4       18.366448     18.364512   0.000000   0.000000
    5       18.618265     18.614762   0.000000   0.000000
    6       23.298571     23.295208   0.000000   0.000000
    7       24.394253     24.390561   0.000000   0.000000
    8       26.045916     26.043294   0.000000   0.000000
    9       27.216372     27.213410   0.000000   0.000000
   10       30.850586     30.846134   0.000000   0.000000
   11       36.280111     36.277851   0.000000   0.000000
   12       40.871693     40.869150   0.000000   0.000000
   13       43.232468     43.229246   0.000000   0.000000
   14       43.714590     43.711331   0.000000   0.000000
   15       44.217754     44.216391   0.000000   0.000000
   16       46.384424     46.383029   0.000000   0.000000
   17       49.783884     49.781967   0.000000   0.000000
   18       52.264373     52.263911   0.000000   0.000000
   19       55.627163     55.626486   0.000000   0.000000
   20       56.239969     56.238784   0.000000   0.000000
   21       56.664123     56.662441   0.000000   0.000000
   22       57.590374     57.589090   0.000000   0.000000
   23       59.153490     59.150722   0.000000   0.000000
   24       61.724584     61.721514   0.000000   0.000000
   25       63.219386     63.218072   0.000000   0.000000
   26       64.913212     64.909909   0.000000   0.000000
   27       66.455097     66.452019   0.000000   0.000000
   28       70.425922     70.425379   0.000000   0.000000
   29       70.480016     70.479057   0.000000   0.000000
   30       71.357817     71.354134   0.000000   0.000000
   31       72.602856     72.601566   0.000000   0.000000
   32       76.124523     76.123985   0.000000   0.000000
   33       77.155876     77.154966   0.000000   0.000000
   34       78.169471     78.168602   0.000000   0.000000
   35       80.578680     80.577515   0.000000   0.000000
   36       81.538142     81.536691   0.000000   0.000000
   37       83.329867     83.326534   0.000000   0.000000
   38       84.616618     84.615999   0.000000   0.000000
   39       87.281495     87.279694   0.000000   0.000000
   40       88.616057     88.613719   0.000000   0.000000
   41       92.516672     92.516115   0.000000   0.000000
   42       93.584662     93.582087   0.000000   0.000000
   43       93.724726     93.722853   0.000000   0.000000
   44       94.460709     94.459001   0.000000   0.000000
   45       96.181129     96.178392   0.000000   0.000000
   46       98.322881     98.320965   0.000000   0.000000
   47      101.134033    101.133720   0.000000   0.000000
   48      103.247601    103.247247   0.000000   0.000000

  0.4545455E+00  0.9090909E-01  0.1249509E-14  0.1803156E-01
    1        1.837973      1.836152   1.000000   1.000000
    2        5.764523      5.762613   1.045090   1.044836
    3       17.143183     17.140636   0.000000   0.000000
    4       17.170668     17.167897   0.000000   0.000000
    5       18.834093     18.831226   0.000000   0.000000
    6       22.121424     22.118253   0.000000   0.000000
    7       24.644930     24.640674   0.000000   0.000000
    8       25.336085     25.334655   0.000000   0.000000
    9       29.467836     29.463854   0.000000   0.000000
   10       32.730383     32.725051   0.000000   0.000000
   11       39.107138     39.104182   0.000000   0.000000
   12       39.153487     39.152254   0.000000   0.000000
   13       40.666570     40.664378   0.000000   0.000000
   14       47.122290     47.120307   0.000000   0.000000
   15       47.442758     47.440632   0.000000   0.000000
   16       48.740772     48.738197   0.000000   0.000000
   17       49.814353     49.812247   0.000000   0.000000
   18       54.203703     54.202275   0.000000   0.000000
   19       55.056207     55.055439   0.000000   0.000000
   20       55.662443     55.661233   0.000000   0.000000
   21       56.199804     56.198664   0.000000   0.000000
   22       56.810339     56.809231   0.000000   0.000000