       N       E                     dE             d eps       ncg     rms          rms(c)
DAV:   1    -0.360560783077E+01   -0.36056E+01   -0.10054E+03 14784   0.394E+01
DAV:   2    -0.368278249097E+01   -0.77175E-01   -0.77424E-01 15600   0.135E+00
DAV:   3    -0.368278658508E+01   -0.40941E-05   -0.41336E-05 13008   0.905E-03
DAV:   4    -0.368278658408E+01    0.10025E-08   -0.32676E-10 18672   0.222E-05
DAV:   5    -0.368278658436E+01   -0.27697E-09   -0.67617E-13 12720   0.634E-09    0.176E+00
RMM:   6    -0.375440882953E+01   -0.71622E-01   -0.25747E-03 10756   0.811E-02    0.832E-01
RMM:   7    -0.374600584703E+01    0.84030E-02   -0.10418E-03 11175   0.500E-02    0.674E-01
RMM:   8    -0.374593678739E+01    0.69060E-04   -0.21732E-04 11104   0.257E-02    0.218E-01
RMM:   9    -0.374593892679E+01   -0.21394E-05   -0.30723E-05 11607   0.871E-03
   1 F= -.37459389E+01 E0= -.37459389E+01  d E =0.000000E+00  mag=     0.0016
