 vasp.6.2.1 16May21 (build Aug 15 2022 14:47:30) complex                         
 executed on             LinuxGNU date 2025.12.11  13:44:31
 running on   48 total cores
 distrk:  each k-point on   48 cores,    1 groups
 distr:  one band on NCORE=   1 cores,   48 groups


--------------------------------------------------------------------------------------------------------


 INCAR:
   ALGO = Fast
   EDIFF = 5e-05
   ENCUT = 600.0
   ISMEAR = -5
   ISPIN = 2
   LASPH = True
   LCHARG = True
   LORBIT = 11
   LREAL = False
   LWAVE = False
   MAGMOM = 1*0.6
   NELM = 100
   NSW = 0
   PREC = Accurate
   SIGMA = 0.05

 POTCAR:    PAW_PBE Al 04Jan2001                  
 -----------------------------------------------------------------------------
|                                                                             |
|           W    W    AA    RRRRR   N    N  II  N    N   GGGG   !!!           |
|           W    W   A  A   R    R  NN   N  II  NN   N  G    G  !!!           |
|           W    W  A    A  R    R  N N  N  II  N N  N  G       !!!           |
|           W WW W  AAAAAA  RRRRR   N  N N  II  N  N N  G  GGG   !            |
|           WW  WW  A    A  R   R   N   NN  II  N   NN  G    G                |
|           W    W  A    A  R    R  N    N  II  N    N   GGGG   !!!           |
|                                                                             |
|     For optimal performance we recommend to set                             |
|       NCORE = 2 up to number-of-cores-per-socket                            |
|     NCORE specifies how many cores store one orbital (NPAR=cpu/NCORE).      |
|     This setting can greatly improve the performance of VASP for DFT.       |
|     The default, NCORE=1 might be grossly inefficient on modern             |
|     multi-core architectures or massively parallel machines. Do your        |
|     own testing! More info at https://www.vasp.at/wiki/index.php/NCORE      |
|     Unfortunately you need to use the default for GW and RPA                |
|     calculations (for HF NCORE is supported but not extensively tested      |
|     yet).                                                                   |
|                                                                             |
 -----------------------------------------------------------------------------

 POTCAR:    PAW_PBE Al 04Jan2001                  
   VRHFIN =Al: s2p1                                                                                 
   LEXCH  = PE                                                                                      
   EATOM  =    53.5387 eV,    3.9350 Ry                                                             
                                                                                                    
   TITEL  = PAW_PBE Al 04Jan2001                                                                    
   LULTRA =        F    use ultrasoft PP ?                                                          
   IUNSCR =        1    unscreen: 0-lin 1-nonlin 2-no                                               
   RPACOR =    1.500    partial core radius                                                         
   POMASS =   26.981; ZVAL   =    3.000    mass and valenz                                          
   RCORE  =    1.900    outmost cutoff radius                                                       
   RWIGS  =    2.650; RWIGS  =    1.402    wigner-seitz radius (au A)                               
   ENMAX  =  240.300; ENMIN  =  180.225 eV                                                          
   ICORE  =        2    local potential                                                             
   LCOR   =        T    correct aug charges                                                         
   LPAW   =        T    paw PP                                                                      
   EAUG   =  291.052                                                                                
   DEXC   =    0.000                                                                                
   RMAX   =    1.939    core radius for proj-oper                                                   
   RAUG   =    1.300    factor for augmentation sphere                                              
   RDEP   =    1.966    radius for radial grids                                                     
   RDEPT  =    1.856    core radius for aug-charge                                                  
                                                                                                    
   Atomic configuration                                                                             
    6 entries                                                                                       
     n  l   j            E        occ.                                                              
     1  0  0.50     -1511.1048   2.0000                                                             
     2  0  0.50      -108.1629   2.0000                                                             
     2  1  1.50       -69.6402   6.0000                                                             
     3  0  0.50        -7.7528   2.0000                                                             
     3  1  1.50        -2.7121   1.0000                                                             
     3  2  2.50        -2.7212   0.0000                                                             
   Description                                                                                      
     l       E           TYP  RCUT    TYP  RCUT                                                     
     0     -7.7528455     23  1.900                                                                 
     0     -3.3096929     23  1.900                                                                 
     1     -2.7120682     23  1.900                                                                 
     1     13.6058260     23  1.900                                                                 
     2     -2.7211652      7  1.900                                                                 
  local pseudopotential read in
  partial core-charges read in
  partial kinetic energy density read in
  atomic valenz-charges read in
  non local Contribution for L=           0  read in
    real space projection operators read in
  non local Contribution for L=           0  read in
    real space projection operators read in
  non local Contribution for L=           1  read in
    real space projection operators read in
  non local Contribution for L=           1  read in
    real space projection operators read in
    PAW grid and wavefunctions read in

   number of l-projection  operators is LMAX  =           4
   number of lm-projection operators is LMMAX =           8

  PAW_PBE Al 04Jan2001                  :
 energy of atom  1       EATOM=  -53.5387
 kinetic energy error for atom=    0.0002 (will be added to EATOM!!)


 POSCAR: # Generated by Masgent for energy cutoff
  positions in direct lattice
  No initial velocities read in
 exchange correlation table for  LEXCH =        8
   RHO(1)=    0.500       N(1)  =     2000
   RHO(2)=  100.500       N(2)  =     4000

 VTST: version 4.2, (08/11/21)

 CHAIN: initializing optimizer
 
 OPT: Using VASP Dynamics algorithm
 CHAIN: Read ICHAIN            0

 POSCAR: # Generated by Masgent for energy cutoff
  positions in direct lattice
  No initial velocities read in



--------------------------------------------------------------------------------------------------------


 ion  position               nearest neighbor table
   1  0.000  0.000  0.000-

  LATTYP: Found a face centered cubic cell.
 ALAT       =     4.0480000000
  
  Lattice vectors:
  
 A1 = (   0.0000000000,   2.0240000000,   2.0240000000)
 A2 = (   2.0240000000,   0.0000000000,   2.0240000000)
 A3 = (   2.0240000000,   2.0240000000,   0.0000000000)


Analysis of symmetry for initial positions (statically):
=====================================================================
 Subroutine PRICEL returns:
 Original cell was already a primitive cell.
 

 Routine SETGRP: Setting up the symmetry group for a 
 face centered cubic supercell.


 Subroutine GETGRP returns: Found 48 space group operations
 (whereof 48 operations were pure point group operations)
 out of a pool of 48 trial point group operations.


The static configuration has the point symmetry O_h .


Analysis of symmetry for dynamics (positions and initial velocities):
=====================================================================
 Subroutine PRICEL returns:
 Original cell was already a primitive cell.
 

 Routine SETGRP: Setting up the symmetry group for a 
 face centered cubic supercell.


 Subroutine GETGRP returns: Found 48 space group operations
 (whereof 48 operations were pure point group operations)
 out of a pool of 48 trial point group operations.


The dynamic configuration has the point symmetry O_h .


Analysis of structural, dynamic, and magnetic symmetry:
=====================================================================
 Subroutine PRICEL returns:
 Original cell was already a primitive cell.
 

 Routine SETGRP: Setting up the symmetry group for a 
 face centered cubic supercell.


 Subroutine GETGRP returns: Found 48 space group operations
 (whereof 48 operations were pure point group operations)
 out of a pool of 48 trial point group operations.


The overall configuration has the point symmetry O_h .


 Subroutine INISYM returns: Found 48 space group operations
 (whereof 48 operations are pure point group operations),
 and found     1 'primitive' translations


----------------------------------------------------------------------------------------

                                     Primitive cell                                     

  volume of cell :      16.5829

  direct lattice vectors                    reciprocal lattice vectors
     0.000000000  2.024000000  2.024000000    -0.247035573  0.247035573  0.247035573
     2.024000000  0.000000000  2.024000000     0.247035573 -0.247035573  0.247035573
     2.024000000  2.024000000  0.000000000     0.247035573  0.247035573 -0.247035573

  length of vectors
     2.862368250  2.862368250  2.862368250     0.427878164  0.427878164  0.427878164

  position of ions in fractional coordinates (direct lattice)
     0.000000000  0.000000000  0.000000000

  ion indices of the primitive-cell ions
   primitive index   ion index
                 1           1

----------------------------------------------------------------------------------------



 KPOINTS: # Generated by Masgent for energy cutoff

Automatic generation of k-mesh.
 Grid dimensions read from file:
 generate k-points for:   11   11   11

 Generating k-lattice:

  Cartesian coordinates                     Fractional coordinates (reciprocal lattice)
    -0.022457779  0.022457779  0.022457779     0.090909091  0.000000000  0.000000000
     0.022457779 -0.022457779  0.022457779     0.000000000  0.090909091  0.000000000
     0.022457779  0.022457779 -0.022457779     0.000000000  0.000000000  0.090909091

  Length of vectors
     0.038898015  0.038898015  0.038898015

  Shift w.r.t. Gamma in fractional coordinates (k-lattice)
     0.000000000  0.000000000  0.000000000

 TETIRR: Found    201 inequivalent tetrahedra from     7986
 
 Subroutine IBZKPT returns following result:
 ===========================================
 
 Found     56 irreducible k-points:
 
 Following reciprocal coordinates:
            Coordinates               Weight
  0.000000  0.000000  0.000000      1.000000
  0.090909  0.000000  0.000000      8.000000
  0.181818  0.000000  0.000000      8.000000
  0.272727  0.000000  0.000000      8.000000
  0.363636  0.000000  0.000000      8.000000
  0.454545  0.000000  0.000000      8.000000
  0.090909  0.090909  0.000000      6.000000
  0.181818  0.090909  0.000000     24.000000
  0.272727  0.090909  0.000000     24.000000
  0.363636  0.090909  0.000000     24.000000
  0.454545  0.090909  0.000000     24.000000
 -0.454545  0.090909  0.000000     24.000000
 -0.363636  0.090909  0.000000     24.000000
 -0.272727  0.090909  0.000000     24.000000
 -0.181818  0.090909  0.000000     24.000000
 -0.090909  0.090909  0.000000     12.000000
  0.181818  0.181818  0.000000      6.000000
  0.272727  0.181818  0.000000     24.000000
  0.363636  0.181818  0.000000     24.000000
  0.454545  0.181818  0.000000     24.000000
 -0.454545  0.181818  0.000000     24.000000
 -0.363636  0.181818  0.000000     24.000000
 -0.272727  0.181818  0.000000     24.000000
 -0.181818  0.181818  0.000000     12.000000
  0.272727  0.272727  0.000000      6.000000
  0.363636  0.272727  0.000000     24.000000
  0.454545  0.272727  0.000000     24.000000
 -0.454545  0.272727  0.000000     24.000000
 -0.363636  0.272727  0.000000     24.000000
 -0.272727  0.272727  0.000000     12.000000
  0.363636  0.363636  0.000000      6.000000
  0.454545  0.363636  0.000000     24.000000
 -0.454545  0.363636  0.000000     24.000000
 -0.363636  0.363636  0.000000     12.000000
  0.454545  0.454545  0.000000      6.000000
 -0.454545  0.454545  0.000000     12.000000
  0.272727  0.181818  0.090909     24.000000
  0.363636  0.181818  0.090909     48.000000
  0.454545  0.181818  0.090909     48.000000
 -0.454545  0.181818  0.090909     48.000000
  0.363636  0.272727  0.090909     24.000000
  0.454545  0.272727  0.090909     48.000000
 -0.454545  0.272727  0.090909     48.000000
 -0.363636  0.272727  0.090909     48.000000
 -0.272727  0.272727  0.090909     48.000000
 -0.181818  0.272727  0.090909     24.000000
  0.454545  0.363636  0.090909     24.000000
 -0.454545  0.363636  0.090909     48.000000
 -0.363636  0.363636  0.090909     48.000000
 -0.272727  0.363636  0.090909     24.000000
 -0.454545  0.454545  0.090909     24.000000
 -0.363636  0.454545  0.090909     24.000000
 -0.454545  0.363636  0.181818     24.000000
 -0.363636  0.363636  0.181818     48.000000
 -0.363636  0.454545  0.181818     24.000000
 -0.272727  0.454545  0.181818     24.000000
 
 Following cartesian coordinates:
            Coordinates               Weight
  0.000000  0.000000  0.000000      1.000000
 -0.022458  0.022458  0.022458      8.000000
 -0.044916  0.044916  0.044916      8.000000
 -0.067373  0.067373  0.067373      8.000000
 -0.089831  0.089831  0.089831      8.000000
 -0.112289  0.112289  0.112289      8.000000
  0.000000  0.000000  0.044916      6.000000
 -0.022458  0.022458  0.067373     24.000000
 -0.044916  0.044916  0.089831     24.000000
 -0.067373  0.067373  0.112289     24.000000
 -0.089831  0.089831  0.134747     24.000000
  0.134747 -0.134747 -0.089831     24.000000
  0.112289 -0.112289 -0.067373     24.000000
  0.089831 -0.089831 -0.044916     24.000000
  0.067373 -0.067373 -0.022458     24.000000
  0.044916 -0.044916  0.000000     12.000000
  0.000000  0.000000  0.089831      6.000000
 -0.022458  0.022458  0.112289     24.000000
 -0.044916  0.044916  0.134747     24.000000
 -0.067373  0.067373  0.157204     24.000000
  0.157204 -0.157204 -0.067373     24.000000
  0.134747 -0.134747 -0.044916     24.000000
  0.112289 -0.112289 -0.022458     24.000000
  0.089831 -0.089831  0.000000     12.000000
  0.000000  0.000000  0.134747      6.000000
 -0.022458  0.022458  0.157204     24.000000
 -0.044916  0.044916  0.179662     24.000000
  0.179662 -0.179662 -0.044916     24.000000
  0.157204 -0.157204 -0.022458     24.000000
  0.134747 -0.134747  0.000000     12.000000
  0.000000  0.000000  0.179662      6.000000
 -0.022458  0.022458  0.202120     24.000000
  0.202120 -0.202120 -0.022458     24.000000
  0.179662 -0.179662  0.000000     12.000000
  0.000000  0.000000  0.224578      6.000000
  0.224578 -0.224578  0.000000     12.000000
  0.000000  0.044916  0.089831     24.000000
 -0.022458  0.067373  0.112289     48.000000
 -0.044916  0.089831  0.134747     48.000000
  0.179662 -0.134747 -0.089831     48.000000
  0.000000  0.044916  0.134747     24.000000
 -0.022458  0.067373  0.157204     48.000000
  0.202120 -0.157204 -0.067373     48.000000
  0.179662 -0.134747 -0.044916     48.000000
  0.157204 -0.112289 -0.022458     48.000000
  0.134747 -0.089831  0.000000     24.000000
  0.000000  0.044916  0.179662     24.000000
  0.224578 -0.179662 -0.044916     48.000000
  0.202120 -0.157204 -0.022458     48.000000
  0.179662 -0.134747  0.000000     24.000000
  0.247036 -0.202120 -0.022458     24.000000
  0.224578 -0.179662 -0.000000     24.000000
  0.247036 -0.157204 -0.067373     24.000000
  0.224578 -0.134747 -0.044916     48.000000
  0.247036 -0.157204 -0.022458     24.000000
  0.224578 -0.134747  0.000000     24.000000
 


--------------------------------------------------------------------------------------------------------




 Dimension of arrays:
   k-points           NKPTS =     56   k-points in BZ     NKDIM =     56   number of bands    NBANDS=     48
   number of dos      NEDOS =    301   number of ions     NIONS =      1
   non local maximal  LDIM  =      4   non local SUM 2l+1 LMDIM =      8
   total plane-waves  NPLWV =  13824
   max r-space proj   IRMAX =      1   max aug-charges    IRDMAX=  32640
   dimension x,y,z NGX =    24 NGY =   24 NGZ =   24
   dimension x,y,z NGXF=    48 NGYF=   48 NGZF=   48
   support grid    NGXF=    48 NGYF=   48 NGZF=   48
   ions per type =               1
   NGX,Y,Z   is equivalent  to a cutoff of  13.94, 13.94, 13.94 a.u.
   NGXF,Y,Z  is equivalent  to a cutoff of  27.88, 27.88, 27.88 a.u.

 SYSTEM =  unknown system                          
 POSCAR =  # Generated by Masgent for energy cutoff

 Startparameter for this run:
   NWRITE =      2    write-flag & timer
   PREC   = accura    normal or accurate (medium, high low for compatibility)
   ISTART =      0    job   : 0-new  1-cont  2-samecut
   ICHARG =      2    charge: 1-file 2-atom 10-const
   ISPIN  =      2    spin polarized calculation?
   LNONCOLLINEAR =      F non collinear calculations
   LSORBIT =      F    spin-orbit coupling
   INIWAV =      1    electr: 0-lowe 1-rand  2-diag
   LASPH  =      T    aspherical Exc in radial PAW
 Electronic Relaxation 1
   ENCUT  =  600.0 eV  44.10 Ry    6.64 a.u.   5.72  5.72  5.72*2*pi/ulx,y,z
   ENINI  =  600.0     initial cutoff
   ENAUG  =  291.1 eV  augmentation charge cutoff
   NELM   =    100;   NELMIN=  2; NELMDL= -5     # of ELM steps 
   EDIFF  = 0.5E-04   stopping-criterion for ELM
   LREAL  =      F    real-space projection
   NLSPLINE    = F    spline interpolate recip. space projectors
   LCOMPAT=      F    compatible to vasp.4.4
   GGA_COMPAT  = T    GGA compatible to vasp.4.4-vasp.4.6
   LMAXPAW     = -100 max onsite density
   LMAXMIX     =    2 max onsite mixed and CHGCAR
   VOSKOWN=      0    Vosko Wilk Nusair interpolation
   ROPT   =    0.00000
 Ionic relaxation
   EDIFFG = 0.5E-03   stopping-criterion for IOM
   NSW    =      0    number of steps for IOM
   NBLOCK =      1;   KBLOCK =      1    inner block; outer block 
   IBRION =     -1    ionic relax: 0-MD 1-quasi-New 2-CG
   NFREE  =      0    steps in history (QN), initial steepest desc. (CG)
   ISIF   =      2    stress and relaxation
   IWAVPR =     10    prediction:  0-non 1-charg 2-wave 3-comb
   ISYM   =      2    0-nonsym 1-usesym 2-fastsym
   LCORR  =      T    Harris-Foulkes like correction to forces

   POTIM  = 0.5000    time-step for ionic-motion
   TEIN   =    0.0    initial temperature
   TEBEG  =    0.0;   TEEND  =   0.0 temperature during run
   SMASS  =  -3.00    Nose mass-parameter (am)
   estimated Nose-frequenzy (Omega)   =  0.10E-29 period in steps = 0.13E+47 mass=  -0.187E-27a.u.
   SCALEE = 1.0000    scale energy and forces
   NPACO  =    256;   APACO  = 16.0  distance and # of slots for P.C.
   PSTRESS=    0.0 pullay stress

  Mass of Ions in am
   POMASS =  26.98
  Ionic Valenz
   ZVAL   =   3.00
  Atomic Wigner-Seitz radii
   RWIGS  =  -1.00
  virtual crystal weights 
   VCA    =   1.00
   NELECT =       3.0000    total number of electrons
   NUPDOWN=      -1.0000    fix difference up-down

 DOS related values:
   EMIN   =  10.00;   EMAX   =-10.00  energy-range for DOS
   EFERMI =   0.00
   ISMEAR =    -5;   SIGMA  =   0.05  broadening in eV -4-tet -1-fermi 0-gaus

 Electronic relaxation 2 (details)
   IALGO  =     68    algorithm
   LDIAG  =      T    sub-space diagonalisation (order eigenvalues)
   LSUBROT=      F    optimize rotation matrix (better conditioning)
   TURBO    =      0    0=normal 1=particle mesh
   IRESTART =      0    0=no restart 2=restart with 2 vectors
   NREBOOT  =      0    no. of reboots
   NMIN     =      0    reboot dimension
   EREF     =   0.00    reference energy to select bands
   IMIX   =      4    mixing-type and parameters
     AMIX     =   0.40;   BMIX     =  1.00
     AMIX_MAG =   1.60;   BMIX_MAG =  1.00
     AMIN     =   0.10
     WC   =   100.;   INIMIX=   1;  MIXPRE=   1;  MAXMIX= -45

 Intra band minimization:
   WEIMIN = 0.0000     energy-eigenvalue tresh-hold
   EBREAK =  0.26E-06  absolut break condition
   DEPER  =   0.30     relativ break condition  

   TIME   =   0.40     timestep for ELM

  volume/ion in A,a.u.               =      16.58       111.91
  Fermi-wavevector in a.u.,A,eV,Ry     =   0.925894  1.749687 11.664006  0.857280
  Thomas-Fermi vector in A             =   2.051798

 Write flags
   LWAVE        =      F    write WAVECAR
   LDOWNSAMPLE  =      F    k-point downsampling of WAVECAR
   LCHARG       =      T    write CHGCAR
   LVTOT        =      F    write LOCPOT, total local potential
   LVHAR        =      F    write LOCPOT, Hartree potential only
   LELF         =      F    write electronic localiz. function (ELF)
   LORBIT       =     11    0 simple, 1 ext, 2 COOP (PROOUT), +10 PAW based schemes


 Dipole corrections
   LMONO  =      F    monopole corrections only (constant potential shift)
   LDIPOL =      F    correct potential (dipole corrections)
   IDIPOL =      0    1-x, 2-y, 3-z, 4-all directions 
   EPSILON=  1.0000000 bulk dielectric constant

 Exchange correlation treatment:
   GGA     =    --    GGA type
   LEXCH   =     8    internal setting for exchange type
   VOSKOWN=      0    Vosko Wilk Nusair interpolation
   LHFCALC =     F    Hartree Fock is set to
   LHFONE  =     F    Hartree Fock one center treatment
   AEXX    =    0.0000 exact exchange contribution

 Linear response parameters
   LEPSILON=     F    determine dielectric tensor
   LRPA    =     F    only Hartree local field effects (RPA)
   LNABLA  =     F    use nabla operator in PAW spheres
   LVEL    =     F    velocity operator in full k-point grid
   LINTERFAST=   F  fast interpolation
   KINTER  =     0    interpolate to denser k-point grid
   CSHIFT  =0.1000    complex shift for real part using Kramers Kronig
   OMEGAMAX=  -1.0    maximum frequency
   DEG_THRESHOLD= 0.2000000E-02 threshold for treating states as degnerate
   RTIME   =   -0.100 relaxation time in fs
  (WPLASMAI=    0.000 imaginary part of plasma frequency in eV, 0.658/RTIME)
   DFIELD  = 0.0000000 0.0000000 0.0000000 field for delta impulse in time

 Orbital magnetization related:
   ORBITALMAG=     F  switch on orbital magnetization
   LCHIMAG   =     F  perturbation theory with respect to B field
   DQ        =  0.001000  dq finite difference perturbation B field
   LLRAUG    =     F  two centre corrections for induced B field



--------------------------------------------------------------------------------------------------------


 Static calculation
 charge density and potential will be updated during run
 spin polarized calculation
 RMM-DIIS sequential band-by-band and
  variant of blocked Davidson during initial phase
 perform sub-space diagonalisation
    before iterative eigenvector-optimisation
 modified Broyden-mixing scheme, WC =      100.0
 initial mixing is a Kerker type mixing with AMIX =  0.4000 and BMIX =      1.0000
 Hartree-type preconditioning will be used
 using additional bands           46
 reciprocal scheme for non local part
 use partial core corrections
 calculate Harris-corrections to forces   (improved forces if not selfconsistent)
 use gradient corrections 
 use of overlap-Matrix (Vanderbilt PP)
 Fermi weights with tetrahedron method with Bloechl corrections


--------------------------------------------------------------------------------------------------------


  energy-cutoff  :      600.00
  volume of cell :       16.58
      direct lattice vectors                 reciprocal lattice vectors
     0.000000000  2.024000000  2.024000000    -0.247035573  0.247035573  0.247035573
     2.024000000  0.000000000  2.024000000     0.247035573 -0.247035573  0.247035573
     2.024000000  2.024000000  0.000000000     0.247035573  0.247035573 -0.247035573

  length of vectors
     2.862368250  2.862368250  2.862368250     0.427878164  0.427878164  0.427878164



 k-points in units of 2pi/SCALE and weight: # Generated by Masgent for energy cutoff
   0.00000000  0.00000000  0.00000000       0.001
  -0.02245778  0.02245778  0.02245778       0.006
  -0.04491556  0.04491556  0.04491556       0.006
  -0.06737334  0.06737334  0.06737334       0.006
  -0.08983112  0.08983112  0.08983112       0.006
  -0.11228890  0.11228890  0.11228890       0.006
   0.00000000  0.00000000  0.04491556       0.005
  -0.02245778  0.02245778  0.06737334       0.018
  -0.04491556  0.04491556  0.08983112       0.018
  -0.06737334  0.06737334  0.11228890       0.018
  -0.08983112  0.08983112  0.13474668       0.018
   0.13474668 -0.13474668 -0.08983112       0.018
   0.11228890 -0.11228890 -0.06737334       0.018
   0.08983112 -0.08983112 -0.04491556       0.018
   0.06737334 -0.06737334 -0.02245778       0.018
   0.04491556 -0.04491556  0.00000000       0.009
   0.00000000  0.00000000  0.08983112       0.005
  -0.02245778  0.02245778  0.11228890       0.018
  -0.04491556  0.04491556  0.13474668       0.018
  -0.06737334  0.06737334  0.15720446       0.018
   0.15720446 -0.15720446 -0.06737334       0.018
   0.13474668 -0.13474668 -0.04491556       0.018
   0.11228890 -0.11228890 -0.02245778       0.018
   0.08983112 -0.08983112  0.00000000       0.009
   0.00000000  0.00000000  0.13474668       0.005
  -0.02245778  0.02245778  0.15720446       0.018
  -0.04491556  0.04491556  0.17966223       0.018
   0.17966223 -0.17966223 -0.04491556       0.018
   0.15720446 -0.15720446 -0.02245778       0.018
   0.13474668 -0.13474668  0.00000000       0.009
   0.00000000  0.00000000  0.17966223       0.005
  -0.02245778  0.02245778  0.20212001       0.018
   0.20212001 -0.20212001 -0.02245778       0.018
   0.17966223 -0.17966223  0.00000000       0.009
   0.00000000  0.00000000  0.22457779       0.005
   0.22457779 -0.22457779  0.00000000       0.009
   0.00000000  0.04491556  0.08983112       0.018
  -0.02245778  0.06737334  0.11228890       0.036
  -0.04491556  0.08983112  0.13474668       0.036
   0.17966223 -0.13474668 -0.08983112       0.036
   0.00000000  0.04491556  0.13474668       0.018
  -0.02245778  0.06737334  0.15720446       0.036
   0.20212001 -0.15720446 -0.06737334       0.036
   0.17966223 -0.13474668 -0.04491556       0.036
   0.15720446 -0.11228890 -0.02245778       0.036
   0.13474668 -0.08983112  0.00000000       0.018
   0.00000000  0.04491556  0.17966223       0.018
   0.22457779 -0.17966223 -0.04491556       0.036
   0.20212001 -0.15720446 -0.02245778       0.036
   0.17966223 -0.13474668  0.00000000       0.018
   0.24703557 -0.20212001 -0.02245778       0.018
   0.22457779 -0.17966223 -0.00000000       0.018
   0.24703557 -0.15720446 -0.06737334       0.018
   0.22457779 -0.13474668 -0.04491556       0.036
   0.24703557 -0.15720446 -0.02245778       0.018
   0.22457779 -0.13474668  0.00000000       0.018

 k-points in reciprocal lattice and weights: # Generated by Masgent for energy cutoff
   0.00000000  0.00000000  0.00000000       0.001
   0.09090909  0.00000000  0.00000000       0.006
   0.18181818  0.00000000  0.00000000       0.006
   0.27272727  0.00000000  0.00000000       0.006
   0.36363636  0.00000000  0.00000000       0.006
   0.45454545  0.00000000  0.00000000       0.006
   0.09090909  0.09090909  0.00000000       0.005
   0.18181818  0.09090909  0.00000000       0.018
   0.27272727  0.09090909  0.00000000       0.018
   0.36363636  0.09090909  0.00000000       0.018
   0.45454545  0.09090909  0.00000000       0.018
  -0.45454545  0.09090909  0.00000000       0.018
  -0.36363636  0.09090909  0.00000000       0.018
  -0.27272727  0.09090909  0.00000000       0.018
  -0.18181818  0.09090909  0.00000000       0.018
  -0.09090909  0.09090909  0.00000000       0.009
   0.18181818  0.18181818  0.00000000       0.005
   0.27272727  0.18181818  0.00000000       0.018
   0.36363636  0.18181818  0.00000000       0.018
   0.45454545  0.18181818  0.00000000       0.018
  -0.45454545  0.18181818  0.00000000       0.018
  -0.36363636  0.18181818  0.00000000       0.018
  -0.27272727  0.18181818  0.00000000       0.018
  -0.18181818  0.18181818  0.00000000       0.009
   0.27272727  0.27272727  0.00000000       0.005
   0.36363636  0.27272727  0.00000000       0.018
   0.45454545  0.27272727  0.00000000       0.018
  -0.45454545  0.27272727  0.00000000       0.018
  -0.36363636  0.27272727  0.00000000       0.018
  -0.27272727  0.27272727  0.00000000       0.009
   0.36363636  0.36363636  0.00000000       0.005
   0.45454545  0.36363636  0.00000000       0.018
  -0.45454545  0.36363636  0.00000000       0.018
  -0.36363636  0.36363636  0.00000000       0.009
   0.45454545  0.45454545  0.00000000       0.005
  -0.45454545  0.45454545  0.00000000       0.009
   0.27272727  0.18181818  0.09090909       0.018
   0.36363636  0.18181818  0.09090909       0.036
   0.45454545  0.18181818  0.09090909       0.036
  -0.45454545  0.18181818  0.09090909       0.036
   0.36363636  0.27272727  0.09090909       0.018
   0.45454545  0.27272727  0.09090909       0.036
  -0.45454545  0.27272727  0.09090909       0.036
  -0.36363636  0.27272727  0.09090909       0.036
  -0.27272727  0.27272727  0.09090909       0.036
  -0.18181818  0.27272727  0.09090909       0.018
   0.45454545  0.36363636  0.09090909       0.018
  -0.45454545  0.36363636  0.09090909       0.036
  -0.36363636  0.36363636  0.09090909       0.036
  -0.27272727  0.36363636  0.09090909       0.018
  -0.45454545  0.45454545  0.09090909       0.018
  -0.36363636  0.45454545  0.09090909       0.018
  -0.45454545  0.36363636  0.18181818       0.018
  -0.36363636  0.36363636  0.18181818       0.036
  -0.36363636  0.45454545  0.18181818       0.018
  -0.27272727  0.45454545  0.18181818       0.018

 position of ions in fractional coordinates (direct lattice) 
   0.00000000  0.00000000  0.00000000

 position of ions in cartesian coordinates  (Angst):
   0.00000000  0.00000000  0.00000000



--------------------------------------------------------------------------------------------------------


 k-point   1 :   0.0000 0.0000 0.0000  plane waves:     537
 k-point   2 :   0.0909 0.0000 0.0000  plane waves:     537
 k-point   3 :   0.1818 0.0000 0.0000  plane waves:     552
 k-point   4 :   0.2727 0.0000 0.0000  plane waves:     561
 k-point   5 :   0.3636 0.0000 0.0000  plane waves:     556
 k-point   6 :   0.4545 0.0000 0.0000  plane waves:     562
 k-point   7 :   0.0909 0.0909 0.0000  plane waves:     544
 k-point   8 :   0.1818 0.0909 0.0000  plane waves:     551
 k-point   9 :   0.2727 0.0909 0.0000  plane waves:     554
 k-point  10 :   0.3636 0.0909 0.0000  plane waves:     558
 k-point  11 :   0.4545 0.0909 0.0000  plane waves:     555
 k-point  12 :  -0.4545 0.0909 0.0000  plane waves:     560
 k-point  13 :  -0.3636 0.0909 0.0000  plane waves:     559
 k-point  14 :  -0.2727 0.0909 0.0000  plane waves:     552
 k-point  15 :  -0.1818 0.0909 0.0000  plane waves:     556
 k-point  16 :  -0.0909 0.0909 0.0000  plane waves:     553
 k-point  17 :   0.1818 0.1818 0.0000  plane waves:     564
 k-point  18 :   0.2727 0.1818 0.0000  plane waves:     559
 k-point  19 :   0.3636 0.1818 0.0000  plane waves:     551
 k-point  20 :   0.4545 0.1818 0.0000  plane waves:     556
 k-point  21 :  -0.4545 0.1818 0.0000  plane waves:     553
 k-point  22 :  -0.3636 0.1818 0.0000  plane waves:     559
 k-point  23 :  -0.2727 0.1818 0.0000  plane waves:     552
 k-point  24 :  -0.1818 0.1818 0.0000  plane waves:     558
 k-point  25 :   0.2727 0.2727 0.0000  plane waves:     560
 k-point  26 :   0.3636 0.2727 0.0000  plane waves:     554
 k-point  27 :   0.4545 0.2727 0.0000  plane waves:     552
 k-point  28 :  -0.4545 0.2727 0.0000  plane waves:     550
 k-point  29 :  -0.3636 0.2727 0.0000  plane waves:     547
 k-point  30 :  -0.2727 0.2727 0.0000  plane waves:     550
 k-point  31 :   0.3636 0.3636 0.0000  plane waves:     564
 k-point  32 :   0.4545 0.3636 0.0000  plane waves:     551
 k-point  33 :  -0.4545 0.3636 0.0000  plane waves:     558
 k-point  34 :  -0.3636 0.3636 0.0000  plane waves:     544
 k-point  35 :   0.4545 0.4545 0.0000  plane waves:     560
 k-point  36 :  -0.4545 0.4545 0.0000  plane waves:     550
 k-point  37 :   0.2727 0.1818 0.0909  plane waves:     558
 k-point  38 :   0.3636 0.1818 0.0909  plane waves:     550
 k-point  39 :   0.4545 0.1818 0.0909  plane waves:     560
 k-point  40 :  -0.4545 0.1818 0.0909  plane waves:     555
 k-point  41 :   0.3636 0.2727 0.0909  plane waves:     551
 k-point  42 :   0.4545 0.2727 0.0909  plane waves:     554
 k-point  43 :  -0.4545 0.2727 0.0909  plane waves:     550
 k-point  44 :  -0.3636 0.2727 0.0909  plane waves:     554
 k-point  45 :  -0.2727 0.2727 0.0909  plane waves:     554
 k-point  46 :  -0.1818 0.2727 0.0909  plane waves:     552
 k-point  47 :   0.4545 0.3636 0.0909  plane waves:     551
 k-point  48 :  -0.4545 0.3636 0.0909  plane waves:     550
 k-point  49 :  -0.3636 0.3636 0.0909  plane waves:     553
 k-point  50 :  -0.2727 0.3636 0.0909  plane waves:     552
 k-point  51 :  -0.4545 0.4545 0.0909  plane waves:     559
 k-point  52 :  -0.3636 0.4545 0.0909  plane waves:     558
 k-point  53 :  -0.4545 0.3636 0.1818  plane waves:     553
 k-point  54 :  -0.3636 0.3636 0.1818  plane waves:     552
 k-point  55 :  -0.3636 0.4545 0.1818  plane waves:     551
 k-point  56 :  -0.2727 0.4545 0.1818  plane waves:     542

 maximum and minimum number of plane-waves per node :       564      537

 maximum number of plane-waves:       564
 maximum index in each direction: 
   IXMAX=    6   IYMAX=    5   IZMAX=    5
   IXMIN=   -6   IYMIN=   -6   IZMIN=   -5


 serial   3D FFT for wavefunctions
 parallel 3D FFT for charge:
    minimum data exchange during FFTs selected (reduces bandwidth)


 total amount of memory used by VASP MPI-rank0    34642. kBytes
=======================================================================

   base      :      30000. kBytes
   nonl-proj :       2073. kBytes
   fftplans  :        150. kBytes
   grid      :       1295. kBytes
   one-center:          6. kBytes
   wavefun   :       1118. kBytes

     INWAV:  cpu time    0.0000: real time    0.0001
 Broyden mixing: mesh for mixing (old mesh)
   NGX = 11   NGY = 11   NGZ = 11
  (NGX  = 48   NGY  = 48   NGZ  = 48)
  gives a total of   1331 points

 initial charge density was supplied:
 charge density of overlapping atoms calculated
 number of electron       3.0000000 magnetization       0.6000000
 keeping initial charge density in first step


--------------------------------------------------------------------------------------------------------


 Maximum index for augmentation-charges         1111 (set IRDMAX)


--------------------------------------------------------------------------------------------------------


 First call to EWALD:  gamma=   0.695
 Maximum number of real-space cells 3x 3x 3
 Maximum number of reciprocal cells 3x 3x 3

    FEWALD:  cpu time    0.0006: real time    0.0007


--------------------------------------- Iteration      1(   1)  ---------------------------------------


    POTLOK:  cpu time    0.0161: real time    0.0164
    SETDIJ:  cpu time    0.1679: real time    0.1680
     EDDAV:  cpu time    8.4112: real time    8.4118
 BZINTS: Fermi energy:    8.098773;    3.000000 electrons
         Band energy: 0.107964E+02;  BLOECHL correction:   -0.124506
       DOS:  cpu time    0.0462: real time    0.0464
    --------------------------------------------
      LOOP:  cpu time    8.6413: real time    8.6425

 eigenvalue-minimisations  : 14784
 total energy-change (2. order) :-0.3605608E+01  (-0.1005350E+03)
 number of electron       3.0000000 magnetization       0.6000000
 augmentation part        3.0000000 magnetization       0.6000000

 Free energy of the ion-electron system (eV)
  ---------------------------------------------------
  alpha Z        PSCENC =        -0.20254611
  Ewald energy   TEWEN  =       -73.39295237
  -Hartree energ DENC   =        -0.10329695
  -exchange      EXHF   =         0.00000000
  -V(xc)+E(xc)   XCENC  =       -26.19545267
  PAW double counting   =        66.16230985      -34.20858819
  entropy T*S    EENTRO =         0.00000000
  eigenvalues    EBANDS =        10.79636891
  atomic energy  EATOM  =        53.53854971
  Solvation  Ediel_sol  =         0.00000000
  ---------------------------------------------------
  free energy    TOTEN  =        -3.60560783 eV

  energy without entropy =       -3.60560783  energy(sigma->0) =       -3.60560783


--------------------------------------------------------------------------------------------------------




--------------------------------------- Iteration      1(   2)  ---------------------------------------


     EDDAV:  cpu time    9.9326: real time    9.9334
 BZINTS: Fermi energy:    8.048144;    3.000000 electrons
         Band energy: 0.107192E+02;  BLOECHL correction:   -0.123260
       DOS:  cpu time    0.0489: real time    0.0490
    --------------------------------------------
      LOOP:  cpu time    9.9815: real time    9.9824

 eigenvalue-minimisations  : 15600
 total energy-change (2. order) :-0.7717466E-01  (-0.7742366E-01)
 number of electron       3.0000000 magnetization       0.6000000
 augmentation part        3.0000000 magnetization       0.6000000

 Free energy of the ion-electron system (eV)
  ---------------------------------------------------
  alpha Z        PSCENC =        -0.20254611
  Ewald energy   TEWEN  =       -73.39295237
  -Hartree energ DENC   =        -0.10329695
  -exchange      EXHF   =         0.00000000
  -V(xc)+E(xc)   XCENC  =       -26.19545267
  PAW double counting   =        66.16230985      -34.20858819
  entropy T*S    EENTRO =         0.00000000
  eigenvalues    EBANDS =        10.71919425
  atomic energy  EATOM  =        53.53854971
  Solvation  Ediel_sol  =         0.00000000
  ---------------------------------------------------
  free energy    TOTEN  =        -3.68278249 eV

  energy without entropy =       -3.68278249  energy(sigma->0) =       -3.68278249


--------------------------------------------------------------------------------------------------------




--------------------------------------- Iteration      1(   3)  ---------------------------------------


     EDDAV:  cpu time    7.5494: real time    7.5496
 BZINTS: Fermi energy:    8.048141;    3.000000 electrons
         Band energy: 0.107192E+02;  BLOECHL correction:   -0.123259
       DOS:  cpu time    0.0454: real time    0.0455
    --------------------------------------------
      LOOP:  cpu time    7.5948: real time    7.5951

 eigenvalue-minimisations  : 13008
 total energy-change (2. order) :-0.4094110E-05  (-0.4133640E-05)
 number of electron       3.0000000 magnetization       0.6000000
 augmentation part        3.0000000 magnetization       0.6000000

 Free energy of the ion-electron system (eV)
  ---------------------------------------------------
  alpha Z        PSCENC =        -0.20254611
  Ewald energy   TEWEN  =       -73.39295237
  -Hartree energ DENC   =        -0.10329695
  -exchange      EXHF   =         0.00000000
  -V(xc)+E(xc)   XCENC  =       -26.19545267
  PAW double counting   =        66.16230985      -34.20858819
  entropy T*S    EENTRO =         0.00000000
  eigenvalues    EBANDS =        10.71919015
  atomic energy  EATOM  =        53.53854971
  Solvation  Ediel_sol  =         0.00000000
  ---------------------------------------------------
  free energy    TOTEN  =        -3.68278659 eV

  energy without entropy =       -3.68278659  energy(sigma->0) =       -3.68278659


--------------------------------------------------------------------------------------------------------




--------------------------------------- Iteration      1(   4)  ---------------------------------------


     EDDAV:  cpu time   15.6653: real time   15.6654
 BZINTS: Fermi energy:    8.048141;    3.000000 electrons
         Band energy: 0.107192E+02;  BLOECHL correction:   -0.123259
       DOS:  cpu time    0.0424: real time    0.0426
    --------------------------------------------
      LOOP:  cpu time   15.7077: real time   15.7079

 eigenvalue-minimisations  : 18672
 total energy-change (2. order) : 0.1002519E-08  (-0.3267630E-10)
 number of electron       3.0000000 magnetization       0.6000000
 augmentation part        3.0000000 magnetization       0.6000000

 Free energy of the ion-electron system (eV)
  ---------------------------------------------------
  alpha Z        PSCENC =        -0.20254611
  Ewald energy   TEWEN  =       -73.39295237
  -Hartree energ DENC   =        -0.10329695
  -exchange      EXHF   =         0.00000000
  -V(xc)+E(xc)   XCENC  =       -26.19545267
  PAW double counting   =        66.16230985      -34.20858819
  entropy T*S    EENTRO =         0.00000000
  eigenvalues    EBANDS =        10.71919015
  atomic energy  EATOM  =        53.53854971
  Solvation  Ediel_sol  =         0.00000000
  ---------------------------------------------------
  free energy    TOTEN  =        -3.68278658 eV

  energy without entropy =       -3.68278658  energy(sigma->0) =       -3.68278658


--------------------------------------------------------------------------------------------------------




--------------------------------------- Iteration      1(   5)  ---------------------------------------


     EDDAV:  cpu time    6.6918: real time    6.6919
 BZINTS: Fermi energy:    8.048141;    3.000000 electrons
         Band energy: 0.107192E+02;  BLOECHL correction:   -0.123259
       DOS:  cpu time    0.0453: real time    0.0455
    CHARGE:  cpu time    0.0401: real time    0.0403
    MIXING:  cpu time    0.0009: real time    0.0010
    --------------------------------------------
      LOOP:  cpu time    6.7781: real time    6.7786

 eigenvalue-minimisations  : 12720
 total energy-change (2. order) :-0.2769696E-09  (-0.6761650E-13)
 number of electron       3.0000000 magnetization      -0.0582525
 augmentation part       -0.0368900 magnetization      -0.1896575

 Broyden mixing:
  rms(total) = 0.17571E+00    rms(broyden)= 0.17571E+00
  rms(prec ) = 0.38277E+00
  weight for this iteration     100.00

 Free energy of the ion-electron system (eV)
  ---------------------------------------------------
  alpha Z        PSCENC =        -0.20254611
  Ewald energy   TEWEN  =       -73.39295237
  -Hartree energ DENC   =        -0.10329695
  -exchange      EXHF   =         0.00000000
  -V(xc)+E(xc)   XCENC  =       -26.19545267
  PAW double counting   =        66.16230985      -34.20858819
  entropy T*S    EENTRO =         0.00000000
  eigenvalues    EBANDS =        10.71919015
  atomic energy  EATOM  =        53.53854971
  Solvation  Ediel_sol  =         0.00000000
  ---------------------------------------------------
  free energy    TOTEN  =        -3.68278658 eV

  energy without entropy =       -3.68278658  energy(sigma->0) =       -3.68278658


--------------------------------------------------------------------------------------------------------




--------------------------------------- Iteration      1(   6)  ---------------------------------------


    POTLOK:  cpu time    0.0067: real time    0.0070
    SETDIJ:  cpu time    0.1584: real time    0.1584
    EDDIAG:  cpu time    0.3525: real time    0.3538
  RMM-DIIS:  cpu time    0.2092: real time    0.2092
    ORTHCH:  cpu time    0.0473: real time    0.0473
 BZINTS: Fermi energy:    8.016752;    3.000000 electrons
         Band energy: 0.106501E+02;  BLOECHL correction:   -0.118973
       DOS:  cpu time    0.0444: real time    0.0445
    CHARGE:  cpu time    0.0364: real time    0.0364
    MIXING:  cpu time    0.0004: real time    0.0004
    --------------------------------------------
      LOOP:  cpu time    0.8553: real time    0.8569

 eigenvalue-minimisations  : 10756
 total energy-change (2. order) :-0.7162225E-01  (-0.2574747E-03)
 number of electron       3.0000000 magnetization       0.0633175
 augmentation part       -0.0372158 magnetization       0.0719084

 Broyden mixing:
  rms(total) = 0.83185E-01    rms(broyden)= 0.83185E-01
  rms(prec ) = 0.23152E+00
  weight for this iteration     100.00

 eigenvalues of (default mixing * dielectric matrix)
  average eigenvalue GAMMA=   0.8915
  0.8915

 Free energy of the ion-electron system (eV)
  ---------------------------------------------------
  alpha Z        PSCENC =        -0.20254611
  Ewald energy   TEWEN  =       -73.39295237
  -Hartree energ DENC   =        -0.08663889
  -exchange      EXHF   =         0.00000000
  -V(xc)+E(xc)   XCENC  =       -26.21257683
  PAW double counting   =        94.46828004      -62.51665635
  entropy T*S    EENTRO =         0.00000000
  eigenvalues    EBANDS =        10.65013198
  atomic energy  EATOM  =        53.53854971
  Solvation  Ediel_sol  =         0.00000000
  ---------------------------------------------------
  free energy    TOTEN  =        -3.75440883 eV

  energy without entropy =       -3.75440883  energy(sigma->0) =       -3.75440883


--------------------------------------------------------------------------------------------------------




--------------------------------------- Iteration      1(   7)  ---------------------------------------


    POTLOK:  cpu time    0.0065: real time    0.0067
    SETDIJ:  cpu time    0.1539: real time    0.1539
    EDDIAG:  cpu time    0.3483: real time    0.3483
  RMM-DIIS:  cpu time    0.2386: real time    0.2386
    ORTHCH:  cpu time    0.0470: real time    0.0470
 BZINTS: Fermi energy:    8.006163;    3.000000 electrons
         Band energy: 0.106213E+02;  BLOECHL correction:   -0.119071
       DOS:  cpu time    0.0422: real time    0.0423
    CHARGE:  cpu time    0.0362: real time    0.0363
    MIXING:  cpu time    0.0002: real time    0.0002
    --------------------------------------------
      LOOP:  cpu time    0.8729: real time    0.8732

 eigenvalue-minimisations  : 11175
 total energy-change (2. order) : 0.8402983E-02  (-0.1041765E-03)
 number of electron       3.0000000 magnetization       0.0135477
 augmentation part       -0.0378929 magnetization       0.0047673

 Broyden mixing:
  rms(total) = 0.67379E-01    rms(broyden)= 0.67379E-01
  rms(prec ) = 0.10065E+00
  weight for this iteration     100.00

 eigenvalues of (default mixing * dielectric matrix)
  average eigenvalue GAMMA=   0.9283
  1.1834  0.6732

 Free energy of the ion-electron system (eV)
  ---------------------------------------------------
  alpha Z        PSCENC =        -0.20254611
  Ewald energy   TEWEN  =       -73.39295237
  -Hartree energ DENC   =        -0.09201154
  -exchange      EXHF   =         0.00000000
  -V(xc)+E(xc)   XCENC  =       -26.16611347
  PAW double counting   =       130.21078100      -98.26298118
  entropy T*S    EENTRO =         0.00000000
  eigenvalues    EBANDS =        10.62126812
  atomic energy  EATOM  =        53.53854971
  Solvation  Ediel_sol  =         0.00000000
  ---------------------------------------------------
  free energy    TOTEN  =        -3.74600585 eV

  energy without entropy =       -3.74600585  energy(sigma->0) =       -3.74600585


--------------------------------------------------------------------------------------------------------




--------------------------------------- Iteration      1(   8)  ---------------------------------------


    POTLOK:  cpu time    0.0064: real time    0.0066
    SETDIJ:  cpu time    0.1539: real time    0.1539
    EDDIAG:  cpu time    0.3479: real time    0.3479
  RMM-DIIS:  cpu time    0.2448: real time    0.2448
    ORTHCH:  cpu time    0.0471: real time    0.0471
 BZINTS: Fermi energy:    8.002841;    3.000000 electrons
         Band energy: 0.106128E+02;  BLOECHL correction:   -0.119111
       DOS:  cpu time    0.0448: real time    0.0450
    CHARGE:  cpu time    0.0363: real time    0.0363
    MIXING:  cpu time    0.0002: real time    0.0002
    --------------------------------------------
      LOOP:  cpu time    0.8814: real time    0.8818

 eigenvalue-minimisations  : 11104
 total energy-change (2. order) : 0.6905963E-04  (-0.2173182E-04)
 number of electron       3.0000000 magnetization      -0.0022103
 augmentation part       -0.0381978 magnetization      -0.0051683

 Broyden mixing:
  rms(total) = 0.21764E-01    rms(broyden)= 0.21764E-01
  rms(prec ) = 0.25977E-01
  weight for this iteration     100.00

 eigenvalues of (default mixing * dielectric matrix)
  average eigenvalue GAMMA=   1.2681
  2.2766  0.9055  0.6224

 Free energy of the ion-electron system (eV)
  ---------------------------------------------------
  alpha Z        PSCENC =        -0.20254611
  Ewald energy   TEWEN  =       -73.39295237
  -Hartree energ DENC   =        -0.10228764
  -exchange      EXHF   =         0.00000000
  -V(xc)+E(xc)   XCENC  =       -26.14528548
  PAW double counting   =       145.01654797     -113.07074414
  entropy T*S    EENTRO =         0.00000000
  eigenvalues    EBANDS =        10.61278128
  atomic energy  EATOM  =        53.53854971
  Solvation  Ediel_sol  =         0.00000000
  ---------------------------------------------------
  free energy    TOTEN  =        -3.74593679 eV

  energy without entropy =       -3.74593679  energy(sigma->0) =       -3.74593679


--------------------------------------------------------------------------------------------------------




--------------------------------------- Iteration      1(   9)  ---------------------------------------


    POTLOK:  cpu time    0.0064: real time    0.0066
    SETDIJ:  cpu time    0.1530: real time    0.1530
    EDDIAG:  cpu time    0.3471: real time    0.3471
  RMM-DIIS:  cpu time    0.2957: real time    0.2957
    ORTHCH:  cpu time    0.0472: real time    0.0472
 BZINTS: Fermi energy:    8.002391;    3.000000 electrons
         Band energy: 0.106117E+02;  BLOECHL correction:   -0.119123
       DOS:  cpu time    0.0441: real time    0.0442
    --------------------------------------------
      LOOP:  cpu time    0.8935: real time    0.8938

 eigenvalue-minimisations  : 11607
 total energy-change (2. order) :-0.2139400E-05  (-0.3072268E-05)
 number of electron       3.0000000 magnetization      -0.0022103
 augmentation part       -0.0381978 magnetization      -0.0051683

 Free energy of the ion-electron system (eV)
  ---------------------------------------------------
  alpha Z        PSCENC =        -0.20254611
  Ewald energy   TEWEN  =       -73.39295237
  -Hartree energ DENC   =        -0.10531672
  -exchange      EXHF   =         0.00000000
  -V(xc)+E(xc)   XCENC  =       -26.14023011
  PAW double counting   =       145.40793109     -113.46310580
  entropy T*S    EENTRO =         0.00000000
  eigenvalues    EBANDS =        10.61173138
  atomic energy  EATOM  =        53.53854971
  Solvation  Ediel_sol  =         0.00000000
  ---------------------------------------------------
  free energy    TOTEN  =        -3.74593893 eV

  energy without entropy =       -3.74593893  energy(sigma->0) =       -3.74593893


--------------------------------------------------------------------------------------------------------




 average (electrostatic) potential at core
  the test charge radii are     1.0406
  (the norm of the test charge is              1.0000)
       1 -72.6901



 E-fermi :   8.0024     XC(G=0): -10.1782     alpha+bet :-14.8020

 Fermi energy:         8.0023914279

 spin component 1

 k-point     1 :       0.0000    0.0000    0.0000
  band No.  band energies     occupation 
      1      -3.1512      1.00000
      2      20.5405      0.00000
      3      20.5405      0.00000
      4      20.5405      0.00000
      5      21.9952      0.00000
      6      21.9952      0.00000
      7      21.9952      0.00000
      8      24.3776      0.00000
      9      27.3151      0.00000
     10      27.3151      0.00000
     11      30.1607      0.00000
     12      32.5110      0.00000
     13      32.5110      0.00000
     14      32.5110      0.00000
     15      41.0635      0.00000
     16      55.9944      0.00000
     17      55.9944      0.00000
     18      55.9944      0.00000
     19      56.0457      0.00000
     20      59.2120      0.00000
     21      59.2120      0.00000
     22      59.2120      0.00000
     23      62.8326      0.00000
     24      62.8326      0.00000
     25      65.0762      0.00000
     26      65.0762      0.00000
     27      65.0762      0.00000
     28      73.1735      0.00000
     29      73.1735      0.00000
     30      73.1735      0.00000
     31      80.8171      0.00000
     32      83.0713      0.00000
     33      83.0713      0.00000
     34      87.2010      0.00000
     35      87.2010      0.00000
     36      87.2010      0.00000
     37      90.0837      0.00000
     38      90.0837      0.00000
     39      90.0837      0.00000
     40      90.8915      0.00000
     41      93.4575      0.00000
     42      93.4575      0.00000
     43      93.4575      0.00000
     44      93.9323      0.00000
     45      93.9323      0.00000
     46      93.9323      0.00000
     47      96.3733      0.00000
     48      96.3733      0.00000

 k-point     2 :       0.0909    0.0000    0.0000
  band No.  band energies     occupation 
      1      -2.9274      1.00000
      2      17.6193      0.00000
      3      19.8939      0.00000
      4      19.8939      0.00000
      5      22.6698      0.00000
      6      22.9805      0.00000
      7      22.9805      0.00000
      8      26.2023      0.00000
      9      26.2023      0.00000
     10      26.4706      0.00000
     11      29.4087      0.00000
     12      33.6039      0.00000
     13      34.0812      0.00000
     14      34.0812      0.00000
     15      41.9385      0.00000
     16      55.2677      0.00000
     17      55.5577      0.00000
     18      55.5577      0.00000
     19      56.3408      0.00000
     20      57.1667      0.00000
     21      57.1667      0.00000
     22      59.1958      0.00000
     23      61.5786      0.00000
     24      61.5786      0.00000
     25      65.2764      0.00000
     26      68.9323      0.00000
     27      68.9323      0.00000
     28      71.5272      0.00000
     29      72.9738      0.00000
     30      72.9738      0.00000
     31      81.8238      0.00000
     32      81.8238      0.00000
     33      82.2996      0.00000
     34      84.0853      0.00000
     35      85.7874      0.00000
     36      85.7874      0.00000
     37      87.9819      0.00000
     38      87.9819      0.00000
     39      89.0034      0.00000
     40      90.0834      0.00000
     41      91.3007      0.00000
     42      91.3007      0.00000
     43      92.8772      0.00000
     44      94.8035      0.00000
     45      95.6427      0.00000
     46      95.6427      0.00000
     47      97.0957      0.00000
     48      97.0957      0.00000

 k-point     3 :       0.1818    0.0000    0.0000
  band No.  band energies     occupation 
      1      -2.2580      1.00000
      2      13.9743      0.00000
      3      19.1608      0.00000
      4      19.1608      0.00000
      5      22.4371      0.00000
      6      23.8029      0.00000
      7      23.8029      0.00000
      8      25.3161      0.00000
      9      25.3161      0.00000
     10      27.8928      0.00000
     11      29.9795      0.00000
     12      36.4313      0.00000
     13      37.2349      0.00000
     14      37.2349      0.00000
     15      44.1451      0.00000
     16      51.7092      0.00000
     17      51.7092      0.00000
     18      53.8758      0.00000
     19      56.3763      0.00000
     20      56.3763      0.00000
     21      56.5415      0.00000
     22      58.8579      0.00000
     23      61.7185      0.00000
     24      61.7185      0.00000
     25      65.8667      0.00000
     26      68.8938      0.00000
     27      71.0628      0.00000
     28      71.0628      0.00000
     29      73.9446      0.00000
     30      73.9446      0.00000
     31      78.8445      0.00000
     32      78.9811      0.00000
     33      78.9811      0.00000
     34      82.8119      0.00000
     35      82.8119      0.00000
     36      84.8197      0.00000
     37      85.6513      0.00000
     38      86.5800      0.00000
     39      86.5800      0.00000
     40      87.4912      0.00000
     41      89.4440      0.00000
     42      90.0120      0.00000
     43      90.0120      0.00000
     44      93.9098      0.00000
     45      97.2829      0.00000
     46      97.2829      0.00000
     47      99.4843      0.00000
     48      99.4843      0.00000

 k-point     4 :       0.2727    0.0000    0.0000
  band No.  band energies     occupation 
      1      -1.1493      1.00000
      2      10.5496     -0.01618
      3      18.7520      0.00000
      4      18.7520      0.00000
      5      22.2252      0.00000
      6      22.2579      0.00000
      7      22.2579      0.00000
      8      26.2471      0.00000
      9      27.3611      0.00000
     10      27.3611      0.00000
     11      33.3143      0.00000
     12      40.5162      0.00000
     13      40.8489      0.00000
     14      40.8489      0.00000
     15      47.0298      0.00000
     16      47.3680      0.00000
     17      47.3680      0.00000
     18      51.9099      0.00000
     19      56.3325      0.00000
     20      56.3325      0.00000
     21      56.7671      0.00000
     22      57.9081      0.00000
     23      62.1666      0.00000
     24      62.1666      0.00000
     25      66.3256      0.00000
     26      66.8053      0.00000
     27      67.8364      0.00000
     28      67.8364      0.00000
     29      74.3822      0.00000
     30      74.3822      0.00000
     31      75.7443      0.00000
     32      78.3805      0.00000
     33      79.1176      0.00000
     34      79.1176      0.00000
     35      79.9646      0.00000
     36      79.9646      0.00000
     37      81.1815      0.00000
     38      88.1613      0.00000
     39      88.1613      0.00000
     40      88.7388      0.00000
     41      89.4808      0.00000
     42      89.4808      0.00000
     43      91.1137      0.00000
     44      93.0304      0.00000
     45      97.5077      0.00000
     46      97.5077      0.00000
     47     101.4936      0.00000
     48     102.4388      0.00000

 k-point     5 :       0.3636    0.0000    0.0000
  band No.  band energies     occupation 
      1       0.3888      1.00000
      2       7.4471      0.71107
      3      18.7080      0.00000
      4      18.7080      0.00000
      5      20.8287      0.00000
      6      20.8287      0.00000
      7      22.2962      0.00000
      8      24.7594      0.00000
      9      29.8895      0.00000
     10      29.8895      0.00000
     11      36.4448      0.00000
     12      41.9028      0.00000
     13      41.9028      0.00000
     14      45.0377      0.00000
     15      46.4370      0.00000
     16      46.4370      0.00000
     17      48.3298      0.00000
     18      51.7444      0.00000
     19      56.2577      0.00000
     20      56.2577      0.00000
     21      56.3820      0.00000
     22      57.0555      0.00000
     23      61.3445      0.00000
     24      61.3445      0.00000
     25      63.7408      0.00000
     26      64.4050      0.00000
     27      64.4050      0.00000
     28      67.9665      0.00000
     29      69.6715      0.00000
     30      73.8309      0.00000
     31      73.8309      0.00000
     32      76.5542      0.00000
     33      76.9670      0.00000
     34      76.9670      0.00000
     35      78.2191      0.00000
     36      80.4334      0.00000
     37      80.4334      0.00000
     38      88.5376      0.00000
     39      89.1191      0.00000
     40      89.1191      0.00000
     41      90.4661      0.00000
     42      92.0087      0.00000
     43      92.0087      0.00000
     44      94.2229      0.00000
     45      98.9615      0.00000
     46      98.9615      0.00000
     47     102.3372      0.00000
     48     104.0873      0.00000

 k-point     6 :       0.4545    0.0000    0.0000
  band No.  band energies     occupation 
      1       2.3417      1.00000
      2       4.7079      1.00000
      3      19.0372      0.00000
      4      19.0372      0.00000
      5      19.7494      0.00000
      6      19.7494      0.00000
      7      22.7337      0.00000
      8      23.5707      0.00000
      9      32.2130      0.00000
     10      32.2130      0.00000
     11      39.0084      0.00000
     12      39.2263      0.00000
     13      39.2263      0.00000
     14      45.8112      0.00000
     15      49.6285      0.00000
     16      50.3210      0.00000
     17      50.3210      0.00000
     18      54.1939      0.00000
     19      55.4486      0.00000
     20      55.4486      0.00000
     21      55.4507      0.00000
     22      57.6456      0.00000
     23      57.9372      0.00000
     24      57.9372      0.00000
     25      61.6627      0.00000
     26      63.6225      0.00000
     27      64.2294      0.00000
     28      64.2294      0.00000
     29      68.9555      0.00000
     30      73.6001      0.00000
     31      73.6001      0.00000
     32      75.5290      0.00000
     33      75.5290      0.00000
     34      76.3288      0.00000
     35      76.8629      0.00000
     36      80.5350      0.00000
     37      80.5350      0.00000
     38      88.5880      0.00000
     39      88.8757      0.00000
     40      88.8757      0.00000
     41      89.2061      0.00000
     42      94.1953      0.00000
     43      95.0928      0.00000
     44      95.0928      0.00000
     45     101.1787      0.00000
     46     101.1787      0.00000
     47     105.1203      0.00000
     48     105.1203      0.00000

 k-point     7 :       0.0909    0.0909    0.0000
  band No.  band energies     occupation 
      1      -2.8529      1.00000
      2      18.6319      0.00000
      3      18.6319      0.00000
      4      18.9316      0.00000
      5      21.3282      0.00000
      6      24.2918      0.00000
      7      24.3361      0.00000
      8      24.3361      0.00000
      9      26.5828      0.00000
     10      27.5911      0.00000
     11      30.5943      0.00000
     12      32.8567      0.00000
     13      32.8567      0.00000
     14      35.5667      0.00000
     15      42.3737      0.00000
     16      55.1778      0.00000
     17      55.1778      0.00000
     18      55.4027      0.00000
     19      56.5113      0.00000
     20      57.4446      0.00000
     21      57.4446      0.00000
     22      57.8546      0.00000
     23      59.4064      0.00000
     24      62.7536      0.00000
     25      67.4699      0.00000
     26      67.4699      0.00000
     27      70.3897      0.00000
     28      70.4316      0.00000
     29      73.4312      0.00000
     30      73.4312      0.00000
     31      80.6199      0.00000
     32      82.5694      0.00000
     33      82.6827      0.00000
     34      82.6827      0.00000
     35      83.4049      0.00000
     36      84.1241      0.00000
     37      88.7388      0.00000
     38      90.0775      0.00000
     39      90.0775      0.00000
     40      90.1081      0.00000
     41      90.1081      0.00000
     42      92.1281      0.00000
     43      93.1296      0.00000
     44      94.3985      0.00000
     45      94.7926      0.00000
     46      97.7771      0.00000
     47      97.8023      0.00000
     48      97.8023      0.00000

 k-point     8 :       0.1818    0.0909    0.0000
  band No.  band energies     occupation 
      1      -2.3322      1.00000
      2      15.2962      0.00000
      3      17.7058      0.00000
      4      19.0470      0.00000
      5      21.6655      0.00000
      6      22.2807      0.00000
      7      24.7152      0.00000
      8      25.7360      0.00000
      9      27.0758      0.00000
     10      29.5004      0.00000
     11      29.9516      0.00000
     12      34.7296      0.00000
     13      35.0374      0.00000
     14      37.8752      0.00000
     15      44.4209      0.00000
     16      51.7165      0.00000
     17      52.8038      0.00000
     18      55.4013      0.00000
     19      55.6564      0.00000
     20      56.1690      0.00000
     21      56.9899      0.00000
     22      57.9648      0.00000
     23      59.3667      0.00000
     24      62.3058      0.00000
     25      67.4618      0.00000
     26      68.4122      0.00000
     27      71.3117      0.00000
     28      72.5333      0.00000
     29      72.5759      0.00000
     30      74.9084      0.00000
     31      77.2969      0.00000
     32      78.4264      0.00000
     33      80.6579      0.00000
     34      81.7010      0.00000
     35      82.4831      0.00000
     36      84.0864      0.00000
     37      86.2081      0.00000
     38      86.2715      0.00000
     39      89.1397      0.00000
     40      89.2550      0.00000
     41      89.7783      0.00000
     42      91.3516      0.00000
     43      93.7387      0.00000
     44      94.4150      0.00000
     45      94.5148      0.00000
     46      96.1739      0.00000
     47      97.0319      0.00000
     48      97.6146      0.00000

 k-point     9 :       0.2727    0.0909    0.0000
  band No.  band energies     occupation 
      1      -1.3704      1.00000
      2      11.8216      0.00000
      3      17.1496      0.00000
      4      18.7069      0.00000
      5      20.0160      0.00000
      6      23.7957      0.00000
      7      24.6495      0.00000
      8      24.7575      0.00000
      9      28.2543      0.00000
     10      28.5397      0.00000
     11      33.0556      0.00000
     12      38.0844      0.00000
     13      39.0264      0.00000
     14      40.8799      0.00000
     15      47.1320      0.00000
     16      47.3268      0.00000
     17      49.0795      0.00000
     18      53.6684      0.00000
     19      55.5362      0.00000
     20      56.1702      0.00000
     21      57.1193      0.00000
     22      58.5423      0.00000
     23      58.6117      0.00000
     24      62.5240      0.00000
     25      65.0117      0.00000
     26      68.7815      0.00000
     27      68.8461      0.00000
     28      71.5288      0.00000
     29      72.0144      0.00000
     30      73.7246      0.00000
     31      76.9966      0.00000
     32      77.1199      0.00000
     33      78.6085      0.00000
     34      80.6862      0.00000
     35      81.0149      0.00000
     36      81.4762      0.00000
     37      82.6251      0.00000
     38      86.7464      0.00000
     39      86.7927      0.00000
     40      87.0471      0.00000
     41      91.0077      0.00000
     42      92.3784      0.00000
     43      92.6021      0.00000
     44      94.1365      0.00000
     45      94.4820      0.00000
     46      97.2725      0.00000
     47      99.7250      0.00000
     48     100.7971      0.00000

 k-point    10 :       0.3636    0.0909    0.0000
  band No.  band energies     occupation 
      1       0.0239      1.00000
      2       8.6210      0.19671
      3      16.9704      0.00000
      4      18.3664      0.00000
      5      18.6183      0.00000
      6      23.2986      0.00000
      7      24.3943      0.00000
      8      26.0459      0.00000
      9      27.2164      0.00000
     10      30.8506      0.00000
     11      36.2801      0.00000
     12      40.8717      0.00000
     13      43.2325      0.00000
     14      43.7146      0.00000
     15      44.2178      0.00000
     16      46.3844      0.00000
     17      49.7839      0.00000
     18      52.2644      0.00000
     19      55.6272      0.00000
     20      56.2400      0.00000
     21      56.6641      0.00000
     22      57.5904      0.00000
     23      59.1535      0.00000
     24      61.7246      0.00000
     25      63.2194      0.00000
     26      64.9132      0.00000
     27      66.4551      0.00000
     28      70.4259      0.00000
     29      70.4800      0.00000
     30      71.3578      0.00000
     31      72.6029      0.00000
     32      76.1245      0.00000
     33      77.1559      0.00000
     34      78.1695      0.00000
     35      80.5787      0.00000
     36      81.5381      0.00000
     37      83.3299      0.00000
     38      84.6166      0.00000
     39      87.2815      0.00000
     40      88.6161      0.00000
     41      92.5167      0.00000
     42      93.5847      0.00000
     43      93.7247      0.00000
     44      94.4607      0.00000
     45      96.1811      0.00000
     46      98.3229      0.00000
     47     101.1340      0.00000
     48     103.2476      0.00000

 k-point    11 :       0.4545    0.0909    0.0000
  band No.  band energies     occupation 
      1       1.8380      1.00000
      2       5.7645      1.04509
      3      17.1432      0.00000
      4      17.1707      0.00000
      5      18.8341      0.00000
      6      22.1214      0.00000
      7      24.6449      0.00000
      8      25.3361      0.00000
      9      29.4678      0.00000
     10      32.7304      0.00000
     11      39.1071      0.00000
     12      39.1535      0.00000
     13      40.6666      0.00000
     14      47.1223      0.00000
     15      47.4428      0.00000
     16      48.7408      0.00000
     17      49.8144      0.00000
     18      54.2037      0.00000
     19      55.0562      0.00000
     20      55.6624      0.00000
     21      56.1998      0.00000
     22      56.8103      0.00000
     23      58.7367      0.00000
     24      59.0874      0.00000
     25      62.0783      0.00000
     26      62.8244      0.00000
     27      63.9780      0.00000
     28      66.0824      0.00000
     29      69.1229      0.00000
     30      69.7638      0.00000
     31      71.9439      0.00000
     32      74.9617      0.00000
     33      76.1209      0.00000
     34      78.1163      0.00000
     35      80.4072      0.00000
     36      81.2872      0.00000
     37      82.7906      0.00000
     38      83.6110      0.00000
     39      88.4635      0.00000
     40      88.6962      0.00000
     41      92.3844      0.00000
     42      94.6247      0.00000
     43      95.6656      0.00000
     44      96.9422      0.00000
     45      99.6835      0.00000
     46     101.3771      0.00000
     47     101.4582      0.00000
     48     102.1320      0.00000

 k-point    12 :      -0.4545    0.0909    0.0000
  band No.  band energies     occupation 
      1       3.2642      1.00000
      2       4.0764      1.00000
      3      16.2847      0.00000
      4      17.7516      0.00000
      5      19.4595      0.00000
      6      21.2981      0.00000
      7      24.2597      0.00000
      8      25.4722      0.00000
      9      31.7375      0.00000
     10      31.8943      0.00000
     11      38.0385      0.00000
     12      39.7849      0.00000
     13      40.5275      0.00000
     14      46.3944      0.00000
     15      49.4013      0.00000
     16      50.6193      0.00000
     17      51.4103      0.00000
     18      53.6367      0.00000
     19      54.9421      0.00000
     20      55.3053      0.00000
     21      56.4054      0.00000
     22      56.9329      0.00000
     23      57.1765      0.00000
     24      58.8532      0.00000
     25      61.6936      0.00000
     26      61.8218      0.00000
     27      62.7682      0.00000
     28      64.7510      0.00000
     29      68.8609      0.00000
     30      69.3194      0.00000
     31      72.1606      0.00000
     32      74.6664      0.00000
     33      76.1239      0.00000
     34      78.1922      0.00000
     35      80.1400      0.00000
     36      81.3830      0.00000
     37      82.1656      0.00000
     38      83.4843      0.00000
     39      88.4926      0.00000
     40      88.6228      0.00000
     41      92.1275      0.00000
     42      94.8799      0.00000
     43      96.5895      0.00000
     44      98.1658      0.00000
     45      99.9167      0.00000
     46     100.5954      0.00000
     47     103.7034      0.00000
     48     104.5772      0.00000

 k-point    13 :      -0.3636    0.0909    0.0000
  band No.  band energies     occupation 
      1       1.1878      1.00000
      2       6.6742      1.00953
      3      15.8199      0.00000
      4      18.7107      0.00000
      5      20.4698      0.00000
      6      20.8463      0.00000
      7      23.7274      0.00000
      8      26.4145      0.00000
      9      29.2325      0.00000
     10      31.3130      0.00000
     11      38.1071      0.00000
     12      39.3517      0.00000
     13      42.8032      0.00000
     14      45.2727      0.00000
     15      46.5745      0.00000
     16      48.6872      0.00000
     17      49.4240      0.00000
     18      53.6079      0.00000
     19      55.5302      0.00000
     20      55.7055      0.00000
     21      55.7998      0.00000
     22      57.7239      0.00000
     23      59.1576      0.00000
     24      60.5252      0.00000
     25      60.9371      0.00000
     26      62.7464      0.00000
     27      64.9051      0.00000
     28      68.6676      0.00000
     29      69.3655      0.00000
     30      70.1680      0.00000
     31      71.3541      0.00000
     32      75.3283      0.00000
     33      76.4564      0.00000
     34      78.7476      0.00000
     35      79.8149      0.00000
     36      81.7440      0.00000
     37      82.9756      0.00000
     38      83.6703      0.00000
     39      87.8941      0.00000
     40      88.0842      0.00000
     41      92.9084      0.00000
     42      93.6516      0.00000
     43      94.8157      0.00000
     44      95.8889      0.00000
     45      98.7953      0.00000
     46     100.1715      0.00000
     47     102.3874      0.00000
     48     106.0336      0.00000

 k-point    14 :      -0.2727    0.0909    0.0000
  band No.  band energies     occupation 
      1      -0.4882      1.00000
      2       9.6456     -0.05770
      3      15.7543      0.00000
      4      20.0181      0.00000
      5      20.7849      0.00000
      6      21.8410      0.00000
      7      23.5149      0.00000
      8      26.5209      0.00000
      9      27.4025      0.00000
     10      29.3518      0.00000
     11      35.3831      0.00000
     12      39.7890      0.00000
     13      42.2392      0.00000
     14      43.8472      0.00000
     15      43.9655      0.00000
     16      48.0319      0.00000
     17      48.8535      0.00000
     18      51.9624      0.00000
     19      55.6978      0.00000
     20      55.9189      0.00000
     21      57.1741      0.00000
     22      57.8575      0.00000
     23      59.9972      0.00000
     24      61.3998      0.00000
     25      64.0331      0.00000
     26      64.9507      0.00000
     27      68.3822      0.00000
     28      70.3356      0.00000
     29      70.5907      0.00000
     30      72.6817      0.00000
     31      75.2129      0.00000
     32      75.9045      0.00000
     33      77.6257      0.00000
     34      78.8479      0.00000
     35      79.3918      0.00000
     36      82.9839      0.00000
     37      84.3272      0.00000
     38      84.6776      0.00000
     39      86.1398      0.00000
     40      86.7693      0.00000
     41      90.8191      0.00000
     42      91.1148      0.00000
     43      94.5308      0.00000
     44      95.2498      0.00000
     45      96.3019      0.00000
     46      99.7327      0.00000
     47     100.6419      0.00000
     48     104.0420      0.00000

 k-point    15 :      -0.1818    0.0909    0.0000
  band No.  band energies     occupation 
      1      -1.7395      1.00000
      2      12.9264      0.00000
      3      16.1030      0.00000
      4      20.9368      0.00000
      5      21.7509      0.00000
      6      23.4403      0.00000
      7      23.6122      0.00000
      8      24.2057      0.00000
      9      26.3097      0.00000
     10      29.6154      0.00000
     11      32.1552      0.00000
     12      36.0531      0.00000
     13      38.4267      0.00000
     14      40.4574      0.00000
     15      45.9036      0.00000
     16      47.6913      0.00000
     17      51.8739      0.00000
     18      53.7812      0.00000
     19      55.5817      0.00000
     20      55.8299      0.00000
     21      57.1667      0.00000
     22      58.9539      0.00000
     23      59.4277      0.00000
     24      61.0856      0.00000
     25      66.9978      0.00000
     26      68.5552      0.00000
     27      69.4696      0.00000
     28      71.0068      0.00000
     29      73.8320      0.00000
     30      74.8345      0.00000
     31      76.9718      0.00000
     32      77.8724      0.00000
     33      78.8611      0.00000
     34      79.1977      0.00000
     35      82.7520      0.00000
     36      83.1943      0.00000
     37      84.6605      0.00000
     38      85.3355      0.00000
     39      86.6851      0.00000
     40      87.0123      0.00000
     41      89.1573      0.00000
     42      90.7678      0.00000
     43      91.6596      0.00000
     44      94.4600      0.00000
     45      96.4233      0.00000
     46      97.1799      0.00000
     47      99.3798      0.00000
     48     101.4734      0.00000

 k-point    16 :      -0.0909    0.0909    0.0000
  band No.  band energies     occupation 
      1      -2.5551      1.00000
      2      16.1359      0.00000
      3      17.1422      0.00000
      4      21.1207      0.00000
      5      22.3030      0.00000
      6      23.3734      0.00000
      7      24.1092      0.00000
      8      24.4758      0.00000
      9      25.4822      0.00000
     10      28.8066      0.00000
     11      30.2751      0.00000
     12      33.2766      0.00000
     13      35.6235      0.00000
     14      36.9547      0.00000
     15      43.3411      0.00000
     16      52.1678      0.00000
     17      55.1710      0.00000
     18      55.6430      0.00000
     19      55.6825      0.00000
     20      55.6908      0.00000
     21      56.9745      0.00000
     22      59.3054      0.00000
     23      59.8588      0.00000
     24      60.9619      0.00000
     25      68.6193      0.00000
     26      68.9790      0.00000
     27      69.5370      0.00000
     28      71.6130      0.00000
     29      73.0593      0.00000
     30      73.7171      0.00000
     31      80.0725      0.00000
     32      80.4037      0.00000
     33      80.7909      0.00000
     34      81.9535      0.00000
     35      82.4439      0.00000
     36      86.1080      0.00000
     37      86.2342      0.00000
     38      86.8236      0.00000
     39      87.4487      0.00000
     40      89.8946      0.00000
     41      90.7818      0.00000
     42      92.2644      0.00000
     43      92.3865      0.00000
     44      92.9581      0.00000
     45      93.3308      0.00000
     46      95.7462      0.00000
     47      97.7169      0.00000
     48      98.7417      0.00000
[...]
     15      44.8771      0.00000
     16      47.7456      0.00000
     17      48.9183      0.00000
     18      50.0819      0.00000
     19      50.2932      0.00000
     20      52.7462      0.00000
     21      54.3689      0.00000
     22      55.3858      0.00000
     23      56.3666      0.00000
     24      56.5214      0.00000
     25      59.1639      0.00000
     26      60.9187      0.00000
     27      63.2602      0.00000
     28      68.8735      0.00000
     29      69.6576      0.00000
     30      71.4272      0.00000
     31      72.5034      0.00000
     32      77.0956      0.00000
     33      77.7294      0.00000
     34      78.8163      0.00000
     35      79.8905      0.00000
     36      82.6928      0.00000
     37      83.6299      0.00000
     38      83.6957      0.00000
     39      86.6755      0.00000
     40      88.0914      0.00000
     41      90.4896      0.00000
     42      91.9503      0.00000
     43      96.9562      0.00000
     44      97.1524      0.00000
     45      99.1687      0.00000
     46     100.6146      0.00000
     47     104.8413      0.00000
     48     106.1706      0.00000

 k-point    52 :      -0.3636    0.4545    0.0909
  band No.  band energies     occupation 
      1       5.7195      1.00000
      2       7.0476      1.06168
      3       8.5666     -0.00101
      4      11.9321      0.00000
      5      17.8531      0.00000
      6      21.3366      0.00000
      7      29.5653      0.00000
      8      30.0983      0.00000
      9      34.1155      0.00000
     10      38.4198      0.00000
     11      41.7321      0.00000
     12      42.4992      0.00000
     13      42.8733      0.00000
     14      44.0677      0.00000
     15      46.0675      0.00000
     16      46.7236      0.00000
     17      49.3557      0.00000
     18      51.8103      0.00000
     19      52.9838      0.00000
     20      53.7856      0.00000
     21      54.5054      0.00000
     22      55.5005      0.00000
     23      55.8265      0.00000
     24      56.4484      0.00000
     25      59.2471      0.00000
     26      61.6388      0.00000
     27      62.7334      0.00000
     28      64.4242      0.00000
     29      67.9632      0.00000
     30      70.3100      0.00000
     31      72.5531      0.00000
     32      73.8623      0.00000
     33      74.5894      0.00000
     34      78.8188      0.00000
     35      79.8263      0.00000
     36      83.4143      0.00000
     37      83.8094      0.00000
     38      85.9087      0.00000
     39      88.2313      0.00000
     40      89.1467      0.00000
     41      93.7169      0.00000
     42      96.0148      0.00000
     43      96.2215      0.00000
     44      99.5617      0.00000
     45     100.6177      0.00000
     46     102.6962      0.00000
     47     104.8151      0.00000
     48     106.1362      0.00000

 k-point    53 :      -0.4545    0.3636    0.1818
  band No.  band energies     occupation 
      1       2.6931      1.00000
      2       9.0141      0.05448
      3      10.4529      0.00000
      4      12.1970      0.00000
      5      21.1119      0.00000
      6      22.6463      0.00000
      7      24.2679      0.00000
      8      31.3243      0.00000
      9      31.9674      0.00000
     10      35.1244      0.00000
     11      37.7357      0.00000
     12      39.2268      0.00000
     13      44.5194      0.00000
     14      45.0408      0.00000
     15      47.5696      0.00000
     16      47.6386      0.00000
     17      50.9310      0.00000
     18      52.4452      0.00000
     19      53.7295      0.00000
     20      54.8318      0.00000
     21      54.9693      0.00000
     22      55.2850      0.00000
     23      57.6108      0.00000
     24      59.7631      0.00000
     25      60.5959      0.00000
     26      63.4420      0.00000
     27      64.7864      0.00000
     28      65.3759      0.00000
     29      66.3423      0.00000
     30      67.7951      0.00000
     31      69.2382      0.00000
     32      70.7658      0.00000
     33      76.5888      0.00000
     34      79.4884      0.00000
     35      79.6481      0.00000
     36      84.9896      0.00000
     37      86.7017      0.00000
     38      88.6165      0.00000
     39      89.6858      0.00000
     40      90.5815      0.00000
     41      91.8706      0.00000
     42      94.0251      0.00000
     43      95.2259      0.00000
     44      96.1538      0.00000
     45      99.8219      0.00000
     46      99.9547      0.00000
     47     103.5284      0.00000
     48     104.0135      0.00000

 k-point    54 :      -0.3636    0.3636    0.1818
  band No.  band energies     occupation 
      1       4.5979      1.00000
      2       6.8681      1.01481
      3      10.1916      0.00000
      4      11.1045      0.00000
      5      22.0436      0.00000
      6      22.9389      0.00000
      7      25.2843      0.00000
      8      28.6276      0.00000
      9      32.8756      0.00000
     10      35.5603      0.00000
     11      39.3786      0.00000
     12      41.4843      0.00000
     13      42.6291      0.00000
     14      45.6830      0.00000
     15      47.4909      0.00000
     16      49.4246      0.00000
     17      51.7093      0.00000
     18      52.1428      0.00000
     19      53.8820      0.00000
     20      54.7036      0.00000
     21      55.0038      0.00000
     22      56.1988      0.00000
     23      57.2131      0.00000
     24      59.1716      0.00000
     25      59.9679      0.00000
     26      61.3891      0.00000
     27      64.0733      0.00000
     28      64.1984      0.00000
     29      65.4948      0.00000
     30      66.7512      0.00000
     31      67.7573      0.00000
     32      70.1814      0.00000
     33      73.4946      0.00000
     34      77.6151      0.00000
     35      82.4000      0.00000
     36      85.9865      0.00000
     37      87.2808      0.00000
     38      87.8664      0.00000
     39      90.2191      0.00000
     40      90.9230      0.00000
     41      93.6051      0.00000
     42      94.7209      0.00000
     43      95.8483      0.00000
     44      99.2615      0.00000
     45     100.3118      0.00000
     46     102.4361      0.00000
     47     103.4115      0.00000
     48     104.5310      0.00000

 k-point    55 :      -0.3636    0.4545    0.1818
  band No.  band energies     occupation 
      1       5.1802      1.00000
      2       8.4640      0.48991
      3       8.5184      0.00000
      4      10.0667      0.00000
      5      20.5859      0.00000
      6      22.2992      0.00000
      7      26.3612      0.00000
      8      29.2091      0.00000
      9      34.5695      0.00000
     10      38.8106      0.00000
     11      41.3372      0.00000
     12      41.4523      0.00000
     13      42.9644      0.00000
     14      43.1481      0.00000
     15      45.6181      0.00000
     16      47.6729      0.00000
     17      50.3277      0.00000
     18      52.6807      0.00000
     19      53.6626      0.00000
     20      53.9544      0.00000
     21      55.1614      0.00000
     22      55.4802      0.00000
     23      57.9947      0.00000
     24      58.5340      0.00000
     25      59.8698      0.00000
     26      61.8829      0.00000
     27      62.8978      0.00000
     28      64.2330      0.00000
     29      65.2618      0.00000
     30      66.3478      0.00000
     31      69.2491      0.00000
     32      71.8968      0.00000
     33      75.3861      0.00000
     34      79.2886      0.00000
     35      79.4179      0.00000
     36      83.1204      0.00000
     37      87.4237      0.00000
     38      88.4621      0.00000
     39      89.7943      0.00000
     40      91.8635      0.00000
     41      94.4708      0.00000
     42      95.1263      0.00000
     43      96.5751      0.00000
     44      99.3127      0.00000
     45      99.4492      0.00000
     46     101.0142      0.00000
     47     102.3703      0.00000
     48     106.3440      0.00000

 k-point    56 :      -0.2727    0.4545    0.1818
  band No.  band energies     occupation 
      1       6.5607      1.00000
      2       6.8158      1.02386
      3       8.2203      0.00000
      4      10.1003      0.00000
      5      21.8337      0.00000
      6      24.6715      0.00000
      7      24.9115      0.00000
      8      26.8013      0.00000
      9      34.4094      0.00000
     10      38.5021      0.00000
     11      41.4679      0.00000
     12      41.7069      0.00000
     13      42.8889      0.00000
     14      44.2395      0.00000
     15      45.0304      0.00000
     16      46.7286      0.00000
     17      51.7173      0.00000
     18      52.6061      0.00000
     19      54.3052      0.00000
     20      55.0507      0.00000
     21      56.7499      0.00000
     22      57.2016      0.00000
     23      58.2885      0.00000
     24      58.8283      0.00000
     25      59.9231      0.00000
     26      59.9306      0.00000
     27      62.4008      0.00000
     28      62.5860      0.00000
     29      64.4819      0.00000
     30      65.9531      0.00000
     31      66.5970      0.00000
     32      72.8809      0.00000
     33      73.6256      0.00000
     34      78.9113      0.00000
     35      79.3344      0.00000
     36      83.4493      0.00000
     37      88.4252      0.00000
     38      88.4814      0.00000
     39      91.3675      0.00000
     40      93.1206      0.00000
     41      96.1576      0.00000
     42      96.2878      0.00000
     43      97.8811      0.00000
     44      98.8909      0.00000
     45      99.6706      0.00000
     46     100.4617      0.00000
     47     102.5175      0.00000
     48     103.5739      0.00000


--------------------------------------------------------------------------------------------------------


 soft charge-density along one line, spin component           1
         0         1         2         3         4         5         6         7         8         9
 total charge-density along one line

 soft charge-density along one line, spin component           2
         0         1         2         3         4         5         6         7         8         9
 total charge-density along one line

 pseudopotential strength for first ion, spin component:           1
  8.445  14.393   0.000  -0.000   0.000   0.000  -0.000   0.000
 14.393  24.530   0.000  -0.000   0.000   0.000  -0.000   0.000
  0.000   0.000   1.987  -0.000  -0.000   5.730  -0.000  -0.000
 -0.000  -0.000  -0.000   1.987  -0.000  -0.000   5.730  -0.000
  0.000   0.000  -0.000  -0.000   1.987  -0.000  -0.000   5.730
  0.000   0.000   5.730  -0.000  -0.000  16.434  -0.000  -0.000
 -0.000  -0.000  -0.000   5.730  -0.000  -0.000  16.434  -0.000
  0.000   0.000  -0.000  -0.000   5.730  -0.000  -0.000  16.434
 pseudopotential strength for first ion, spin component:           2
  8.445  14.393   0.000  -0.000   0.000   0.000  -0.000   0.000
 14.393  24.530   0.000  -0.000   0.000   0.000  -0.000   0.000
  0.000   0.000   1.987   0.000   0.000   5.730   0.000   0.000
 -0.000  -0.000   0.000   1.987   0.000   0.000   5.730   0.000
  0.000   0.000   0.000   0.000   1.987   0.000   0.000   5.730
  0.000   0.000   5.730   0.000   0.000  16.434   0.000   0.000
 -0.000  -0.000   0.000   5.730   0.000   0.000  16.434   0.000
  0.000   0.000   0.000   0.000   5.730   0.000   0.000  16.434
 total augmentation occupancy for first ion, spin component:           1
  3.353  -0.826   0.000   0.000   0.000   0.000   0.000   0.000
 -0.826   0.268   0.000   0.000   0.000   0.000   0.000   0.000
  0.000   0.000   1.103   0.000   0.000  -0.070   0.000   0.000
  0.000   0.000   0.000   1.103   0.000   0.000  -0.070   0.000
  0.000   0.000   0.000   0.000   1.103   0.000   0.000  -0.070
  0.000   0.000  -0.070  -0.000   0.000   0.005   0.000   0.000
  0.000   0.000   0.000  -0.070  -0.000   0.000   0.005   0.000
  0.000   0.000  -0.000   0.000  -0.070   0.000   0.000   0.005
 total augmentation occupancy for first ion, spin component:           2
  0.018  -0.007   0.000   0.000   0.000   0.000   0.000   0.000
 -0.007   0.002   0.000   0.000   0.000   0.000   0.000   0.000
  0.000   0.000   0.003   0.000   0.000  -0.000   0.000   0.000
  0.000   0.000   0.000   0.003   0.000   0.000  -0.000   0.000
  0.000   0.000   0.000   0.000   0.003   0.000   0.000  -0.000
  0.000   0.000  -0.000   0.000   0.000   0.000   0.000   0.000
  0.000   0.000   0.000  -0.000   0.000   0.000   0.000   0.000
  0.000   0.000   0.000   0.000  -0.000   0.000   0.000   0.000


------------------------ aborting loop because EDIFF is reached ----------------------------------------





 total charge

# of ion       s       p       d       tot
------------------------------------------
    1        0.425   0.340   0.000   0.764



 magnetization (x)

# of ion       s       p       d       tot
------------------------------------------
    1       -0.000  -0.000   0.000  -0.000

    CHARGE:  cpu time    0.0359: real time    0.0359
    FORLOC:  cpu time    0.0002: real time    0.0002
    FORNL :  cpu time    0.0075: real time    0.0076
    STRESS:  cpu time    0.1011: real time    0.1012
    FORCOR:  cpu time    0.0052: real time    0.0052
    FORHAR:  cpu time    0.0007: real time    0.0007
    MIXING:  cpu time    0.0003: real time    0.0003
    OFIELD:  cpu time    0.0000: real time    0.0000

  FORCE on cell =-STRESS in cart. coord.  units (eV):
  Direction    XX          YY          ZZ          XY          YZ          ZX
  --------------------------------------------------------------------------------------
  Alpha Z    -0.20255    -0.20255    -0.20255
  Ewald     -24.46432   -24.46432   -24.46432    -0.00000    -0.00000     0.00000
  Hartree     0.03564     0.03564     0.03564     0.00000     0.00000     0.00000
  E(xc)      -8.54843    -8.54843    -8.54843     0.00000     0.00000     0.00000
  Local       0.34501     0.34501     0.34501    -0.00000    -0.00000    -0.00000
  n-local    18.87984    18.49713    18.98506     0.46426    -0.57568     0.50022
  augment    -1.02055    -1.02055    -1.02055     0.00000     0.00000     0.00000
  Kinetic    12.28730    10.93469    21.70154    -9.43990     8.23054    -6.13507
  Fock        0.00000     0.00000     0.00000     0.00000     0.00000     0.00000
  -------------------------------------------------------------------------------------
  Total      -0.09334    -0.09334    -0.09334    -0.00000    -0.00000     0.00000
  in kB      -9.01785    -9.01785    -9.01785    -0.00000    -0.00000     0.00000
  external pressure =       -9.02 kB  Pullay stress =        0.00 kB


 VOLUME and BASIS-vectors are now :
 -----------------------------------------------------------------------------
  energy-cutoff  :      600.00
  volume of cell :       16.58
      direct lattice vectors                 reciprocal lattice vectors
     0.000000000  2.024000000  2.024000000    -0.247035573  0.247035573  0.247035573
     2.024000000  0.000000000  2.024000000     0.247035573 -0.247035573  0.247035573
     2.024000000  2.024000000  0.000000000     0.247035573  0.247035573 -0.247035573

  length of vectors
     2.862368250  2.862368250  2.862368250     0.427878164  0.427878164  0.427878164


 FORCES acting on ions
    electron-ion (+dipol)            ewald-force                    non-local-force                 convergence-correction
 -----------------------------------------------------------------------------------------------
   0.157E-14 -.262E-15 0.539E-15   0.817E-16 0.470E-16 -.229E-15   0.000E+00 0.258E-25 0.258E-25   -.461E-17 0.911E-17 0.874E-17
 -----------------------------------------------------------------------------------------------
   0.157E-14 -.262E-15 0.539E-15   0.817E-16 0.470E-16 -.229E-15   0.000E+00 0.258E-25 0.258E-25   -.461E-17 0.911E-17 0.874E-17


 POSITION                                       TOTAL-FORCE (eV/Angst)
 -----------------------------------------------------------------------------------
      0.00000      0.00000      0.00000         0.000000      0.000000      0.000000
 -----------------------------------------------------------------------------------
    total drift:                                0.000000     -0.000000      0.000000


--------------------------------------------------------------------------------------------------------



  FREE ENERGIE OF THE ION-ELECTRON SYSTEM (eV)
  ---------------------------------------------------
  free  energy   TOTEN  =        -3.74593893 eV

  energy  without entropy=       -3.74593893  energy(sigma->0) =       -3.74593893



--------------------------------------------------------------------------------------------------------


    POTLOK:  cpu time    0.1599: real time    0.1599


--------------------------------------------------------------------------------------------------------


 stress matrix after NEB project (eV)
     -0.09334     -0.00000      0.00000
     -0.00000     -0.09334     -0.00000
      0.00000     -0.00000     -0.09334
  FORCES: max atom, RMS     0.000000    0.000000
  FORCE total and by dimension    0.000000    0.000000
  Stress total and by dimension    0.161665    0.093337
     LOOP+:  cpu time   52.8207: real time   52.8279
 -----------------------------------------------------------------------------
|                                                                             |
|           W    W    AA    RRRRR   N    N  II  N    N   GGGG   !!!           |
|           W    W   A  A   R    R  NN   N  II  NN   N  G    G  !!!           |
|           W    W  A    A  R    R  N N  N  II  N N  N  G       !!!           |
|           W WW W  AAAAAA  RRRRR   N  N N  II  N  N N  G  GGG   !            |
|           WW  WW  A    A  R   R   N   NN  II  N   NN  G    G                |
|           W    W  A    A  R    R  N    N  II  N    N   GGGG   !!!           |
|                                                                             |
|     Tetrahedron method does not include variations of the Fermi             |
|     occupations, so forces and stress will be inaccurate. We suggest        |
|     using a different smearing scheme ISMEAR = 1 or 2 for metals in         |
|     relaxations.                                                            |
|                                                                             |
 -----------------------------------------------------------------------------

    4ORBIT:  cpu time    0.0000: real time    0.0000



 total charge

# of ion       s       p       d       tot
------------------------------------------
    1        0.425   0.340   0.000   0.764



 magnetization (x)

# of ion       s       p       d       tot
------------------------------------------
    1       -0.000  -0.000   0.000  -0.000

 BZINTS: Fermi energy:    8.002391;    3.000000 electrons
         Band energy: 0.106117E+02;  BLOECHL correction:   -0.119123

 total amount of memory used by VASP MPI-rank0    34642. kBytes
=======================================================================

   base      :      30000. kBytes
   nonl-proj :       2073. kBytes
   fftplans  :        150. kBytes
   grid      :       1295. kBytes
   one-center:          6. kBytes
   wavefun   :       1118. kBytes

  
  
 General timing and accounting informations for this job:
 ========================================================
  
                  Total CPU time used (sec):       55.320
                            User time (sec):       53.712
                          System time (sec):        1.608
                         Elapsed time (sec):       55.544
  
                   Maximum memory used (kb):       51876.
                   Average memory used (kb):          N/A
  
                          Minor page faults:        29452
                          Major page faults:          416
                 Voluntary context switches:         3417
