<?xml version="1.0" encoding="ISO-8859-1"?>
<modeling>
 <generator>
  <i name="program" type="string">vasp </i>
  <i name="version" type="string">6.2.1  </i>
  <i name="subversion" type="string">16May21 (build Aug 15 2022 14:47:30) complex                          parallel </i>
  <i name="platform" type="string">LinuxGNU </i>
  <i name="date" type="string">2025 12 11 </i>
  <i name="time" type="string">13:44:31 </i>
 </generator>
 <incar>
  <i type="string" name="PREC">Accurate</i>
  <i type="string" name="ALGO">Fast</i>
  <i type="int" name="ISPIN">     2</i>
  <i type="int" name="NELM">   100</i>
  <i name="EDIFF">      0.00005000</i>
  <i type="int" name="NSW">     0</i>
  <i name="ENCUT">    600.00000000</i>
  <v name="MAGMOM">      0.60000000</v>
  <i type="logical" name="LREAL"> F  </i>
  <i type="int" name="ISMEAR">    -5</i>
  <i name="SIGMA">      0.05000000</i>
  <i type="logical" name="LWAVE"> F  </i>
  <i type="logical" name="LCHARG"> T  </i>
  <i type="int" name="LORBIT">    11</i>
  <i type="logical" name="LASPH"> T  </i>
 </incar>
 <primitive_cell>
  <structure name="primitive_cell" >
   <crystal>
    <varray name="basis" >
     <v>       0.00000000       2.02400000       2.02400000 </v>
     <v>       2.02400000       0.00000000       2.02400000 </v>
     <v>       2.02400000       2.02400000       0.00000000 </v>
    </varray>
    <i name="volume">     16.58293965 </i>
    <varray name="rec_basis" >
     <v>      -0.24703557       0.24703557       0.24703557 </v>
     <v>       0.24703557      -0.24703557       0.24703557 </v>
     <v>       0.24703557       0.24703557      -0.24703557 </v>
    </varray>
   </crystal>
   <varray name="positions" >
    <v>       0.00000000       0.00000000       0.00000000 </v>
   </varray>
  </structure>
  <varray name="primitive_index" >
   <v type="int" >        1 </v>
  </varray>
 </primitive_cell>
 <kpoints>
  <generation param="Gamma">
   <v type="int" name="divisions">      11       11       11 </v>
   <v name="usershift">      0.00000000       0.00000000       0.00000000 </v>
   <v name="genvec1">      0.09090909       0.00000000       0.00000000 </v>
   <v name="genvec2">      0.00000000       0.09090909       0.00000000 </v>
   <v name="genvec3">      0.00000000       0.00000000       0.09090909 </v>
   <v name="shift">      0.00000000       0.00000000       0.00000000 </v>
  </generation>
  <varray name="kpointlist" >
   <v>       0.00000000       0.00000000       0.00000000 </v>
   <v>       0.09090909       0.00000000       0.00000000 </v>
   <v>       0.18181818       0.00000000       0.00000000 </v>
   <v>       0.27272727       0.00000000       0.00000000 </v>
   <v>       0.36363636       0.00000000       0.00000000 </v>
   <v>       0.45454545       0.00000000       0.00000000 </v>
   <v>       0.09090909       0.09090909       0.00000000 </v>
   <v>       0.18181818       0.09090909       0.00000000 </v>
   <v>       0.27272727       0.09090909       0.00000000 </v>
   <v>       0.36363636       0.09090909       0.00000000 </v>
   <v>       0.45454545       0.09090909       0.00000000 </v>
   <v>      -0.45454545       0.09090909       0.00000000 </v>
   <v>      -0.36363636       0.09090909       0.00000000 </v>
   <v>      -0.27272727       0.09090909       0.00000000 </v>
   <v>      -0.18181818       0.09090909       0.00000000 </v>
   <v>      -0.09090909       0.09090909       0.00000000 </v>
   <v>       0.18181818       0.18181818       0.00000000 </v>
   <v>       0.27272727       0.18181818       0.00000000 </v>
   <v>       0.36363636       0.18181818       0.00000000 </v>
   <v>       0.45454545       0.18181818       0.00000000 </v>
   <v>      -0.45454545       0.18181818       0.00000000 </v>
   <v>      -0.36363636       0.18181818       0.00000000 </v>
   <v>      -0.27272727       0.18181818       0.00000000 </v>
   <v>      -0.18181818       0.18181818       0.00000000 </v>
   <v>       0.27272727       0.27272727       0.00000000 </v>
   <v>       0.36363636       0.27272727       0.00000000 </v>
   <v>       0.45454545       0.27272727       0.00000000 </v>
   <v>      -0.45454545       0.27272727       0.00000000 </v>
   <v>      -0.36363636       0.27272727       0.00000000 </v>
   <v>      -0.27272727       0.27272727       0.00000000 </v>
   <v>       0.36363636       0.36363636       0.00000000 </v>
   <v>       0.45454545       0.36363636       0.00000000 </v>
   <v>      -0.45454545       0.36363636       0.00000000 </v>
   <v>      -0.36363636       0.36363636       0.00000000 </v>
   <v>       0.45454545       0.45454545       0.00000000 </v>
   <v>      -0.45454545       0.45454545       0.00000000 </v>
   <v>       0.27272727       0.18181818       0.09090909 </v>
   <v>       0.36363636       0.18181818       0.09090909 </v>
   <v>       0.45454545       0.18181818       0.09090909 </v>
   <v>      -0.45454545       0.18181818       0.09090909 </v>
   <v>       0.36363636       0.27272727       0.09090909 </v>
   <v>       0.45454545       0.27272727       0.09090909 </v>
   <v>      -0.45454545       0.27272727       0.09090909 </v>
   <v>      -0.36363636       0.27272727       0.09090909 </v>
   <v>      -0.27272727       0.27272727       0.09090909 </v>
   <v>      -0.18181818       0.27272727       0.09090909 </v>
   <v>       0.45454545       0.36363636       0.09090909 </v>
   <v>      -0.45454545       0.36363636       0.09090909 </v>
   <v>      -0.36363636       0.36363636       0.09090909 </v>
   <v>      -0.27272727       0.36363636       0.09090909 </v>
   <v>      -0.45454545       0.45454545       0.09090909 </v>
   <v>      -0.36363636       0.45454545       0.09090909 </v>
   <v>      -0.45454545       0.36363636       0.18181818 </v>
   <v>      -0.36363636       0.36363636       0.18181818 </v>
   <v>      -0.36363636       0.45454545       0.18181818 </v>
   <v>      -0.27272727       0.45454545       0.18181818 </v>
  </varray>
  <varray name="weights" >
   <v>       0.00075131 </v>
   <v>       0.00601052 </v>
   <v>       0.00601052 </v>
   <v>       0.00601052 </v>
   <v>       0.00601052 </v>
   <v>       0.00601052 </v>
   <v>       0.00450789 </v>
   <v>       0.01803156 </v>
   <v>       0.01803156 </v>
   <v>       0.01803156 </v>
   <v>       0.01803156 </v>
   <v>       0.01803156 </v>
   <v>       0.01803156 </v>
   <v>       0.01803156 </v>
   <v>       0.01803156 </v>
   <v>       0.00901578 </v>
   <v>       0.00450789 </v>
   <v>       0.01803156 </v>
   <v>       0.01803156 </v>
   <v>       0.01803156 </v>
   <v>       0.01803156 </v>
   <v>       0.01803156 </v>
   <v>       0.01803156 </v>
   <v>       0.00901578 </v>
   <v>       0.00450789 </v>
   <v>       0.01803156 </v>
   <v>       0.01803156 </v>
   <v>       0.01803156 </v>
   <v>       0.01803156 </v>
   <v>       0.00901578 </v>
   <v>       0.00450789 </v>
   <v>       0.01803156 </v>
   <v>       0.01803156 </v>
   <v>       0.00901578 </v>
   <v>       0.00450789 </v>
   <v>       0.00901578 </v>
   <v>       0.01803156 </v>
   <v>       0.03606311 </v>
   <v>       0.03606311 </v>
   <v>       0.03606311 </v>
   <v>       0.01803156 </v>
   <v>       0.03606311 </v>
   <v>       0.03606311 </v>
   <v>       0.03606311 </v>
   <v>       0.03606311 </v>
   <v>       0.01803156 </v>
   <v>       0.01803156 </v>
   <v>       0.03606311 </v>
   <v>       0.03606311 </v>
   <v>       0.01803156 </v>
   <v>       0.01803156 </v>
   <v>       0.01803156 </v>
   <v>       0.01803156 </v>
   <v>       0.03606311 </v>
   <v>       0.01803156 </v>
   <v>       0.01803156 </v>
  </varray>
  <varray name="tetrahedronlist"  type="int" >
   <v type="int" >       24        1        2        2        7 </v>
   <v type="int" >       48        2        7        8       16 </v>
   <v type="int" >       48        2        3        8       16 </v>
   <v type="int" >       24        2        2        7       16 </v>
   <v type="int" >       48        3        8        9       15 </v>
   <v type="int" >       48        3        4        9       15 </v>
   <v type="int" >       48        3        8       15       16 </v>
   <v type="int" >       48        4        9       10       14 </v>
   <v type="int" >       48        4        5       10       14 </v>
   <v type="int" >       48        4        9       14       15 </v>
   <v type="int" >       48        5       10       11       13 </v>
   <v type="int" >       48        5        6       11       13 </v>
   <v type="int" >       48        5       10       13       14 </v>
   <v type="int" >       48        6       11       12       12 </v>
   <v type="int" >       24        6        6       12       12 </v>
   <v type="int" >       48        6       11       12       13 </v>
   <v type="int" >       24        7        8        8       17 </v>
   <v type="int" >       24        7        8        8       16 </v>
   <v type="int" >       48        8       17       18       37 </v>
   <v type="int" >       48        8        9       18       37 </v>
   <v type="int" >       48        8        9       15       37 </v>
   <v type="int" >       24        8        8       17       37 </v>
   <v type="int" >       24        8        8       16       37 </v>
   <v type="int" >       48        8       15       16       37 </v>
   <v type="int" >       48        9       18       19       38 </v>
   <v type="int" >       48        9       10       19       38 </v>
   <v type="int" >       48        9       10       14       38 </v>
   <v type="int" >       48        9       18       37       38 </v>
   <v type="int" >       48        9       15       37       38 </v>
   <v type="int" >       48        9       14       15       38 </v>
   <v type="int" >       48       10       19       20       39 </v>
   <v type="int" >       48       10       11       20       39 </v>
   <v type="int" >       48       10       11       13       39 </v>
   <v type="int" >       48       10       19       38       39 </v>
   <v type="int" >       48       10       14       38       39 </v>
   <v type="int" >       48       10       13       14       39 </v>
   <v type="int" >       48       11       20       21       40 </v>
   <v type="int" >       48       11       12       21       40 </v>
   <v type="int" >       48       11       12       12       40 </v>
   <v type="int" >       48       11       20       39       40 </v>
   <v type="int" >       48       11       13       39       40 </v>
   <v type="int" >       48       11       12       13       40 </v>
   <v type="int" >       48       12       21       22       40 </v>
   <v type="int" >       48       12       13       22       40 </v>
   <v type="int" >       48       12       21       40       40 </v>
   <v type="int" >       24       12       12       40       40 </v>
   <v type="int" >       48       13       22       23       39 </v>
   <v type="int" >       48       13       14       23       39 </v>
   <v type="int" >       48       13       22       39       40 </v>
   <v type="int" >       48       14       23       24       38 </v>
   <v type="int" >       48       14       15       24       38 </v>
   <v type="int" >       48       14       23       38       39 </v>
   <v type="int" >       24       15       15       24       37 </v>
   <v type="int" >       24       15       15       16       37 </v>
   <v type="int" >       48       15       24       37       38 </v>
   <v type="int" >       24       17       18       18       25 </v>
   <v type="int" >       24       17       18       18       37 </v>
   <v type="int" >       48       18       25       26       41 </v>
   <v type="int" >       48       18       19       26       41 </v>
   <v type="int" >       48       18       19       38       41 </v>
   <v type="int" >       24       18       18       25       41 </v>
   <v type="int" >       24       18       18       37       41 </v>
   <v type="int" >       48       18       37       38       41 </v>
   <v type="int" >       48       19       26       27       42 </v>
   <v type="int" >       48       19       20       27       42 </v>
   <v type="int" >       48       19       20       39       42 </v>
   <v type="int" >       48       19       26       41       42 </v>
   <v type="int" >       48       19       38       41       42 </v>
   <v type="int" >       48       19       38       39       42 </v>
   <v type="int" >       48       20       27       28       43 </v>
   <v type="int" >       48       20       21       28       43 </v>
   <v type="int" >       48       20       21       40       43 </v>
   <v type="int" >       48       20       27       42       43 </v>
   <v type="int" >       48       20       39       42       43 </v>
   <v type="int" >       48       20       39       40       43 </v>
   <v type="int" >       48       21       28       29       44 </v>
   <v type="int" >       48       21       22       29       44 </v>
   <v type="int" >       48       21       22       40       44 </v>
   <v type="int" >       48       21       28       43       44 </v>
   <v type="int" >       48       21       40       43       44 </v>
   <v type="int" >       48       21       40       40       44 </v>
   <v type="int" >       48       22       29       30       45 </v>
   <v type="int" >       48       22       23       30       45 </v>
   <v type="int" >       48       22       23       39       45 </v>
   <v type="int" >       48       22       29       44       45 </v>
   <v type="int" >       48       22       40       44       45 </v>
   <v type="int" >       48       22       39       40       45 </v>
   <v type="int" >       24       23       23       30       46 </v>
   <v type="int" >       24       23       23       24       46 </v>
   <v type="int" >       48       23       24       38       46 </v>
   <v type="int" >       48       23       30       45       46 </v>
   <v type="int" >       48       23       39       45       46 </v>
   <v type="int" >       48       23       38       39       46 </v>
   <v type="int" >       24       24       38       38       46 </v>
   <v type="int" >       24       24       37       38       38 </v>
   <v type="int" >       24       25       26       26       31 </v>
   <v type="int" >       24       25       26       26       41 </v>
   <v type="int" >       48       26       31       32       47 </v>
   <v type="int" >       48       26       27       32       47 </v>
   <v type="int" >       48       26       27       42       47 </v>
   <v type="int" >       24       26       26       31       47 </v>
   <v type="int" >       24       26       26       41       47 </v>
   <v type="int" >       48       26       41       42       47 </v>
   <v type="int" >       48       27       32       33       48 </v>
   <v type="int" >       48       27       28       33       48 </v>
   <v type="int" >       48       27       28       43       48 </v>
   <v type="int" >       48       27       32       47       48 </v>
   <v type="int" >       48       27       42       47       48 </v>
   <v type="int" >       48       27       42       43       48 </v>
   <v type="int" >       48       28       33       34       49 </v>
   <v type="int" >       48       28       29       34       49 </v>
   <v type="int" >       48       28       29       44       49 </v>
   <v type="int" >       48       28       33       48       49 </v>
   <v type="int" >       48       28       43       48       49 </v>
   <v type="int" >       48       28       43       44       49 </v>
   <v type="int" >       24       29       29       34       50 </v>
   <v type="int" >       24       29       29       30       50 </v>
   <v type="int" >       48       29       30       45       50 </v>
   <v type="int" >       48       29       34       49       50 </v>
   <v type="int" >       48       29       44       49       50 </v>
   <v type="int" >       48       29       44       45       50 </v>
   <v type="int" >       24       30       45       45       50 </v>
   <v type="int" >       24       30       45       45       46 </v>
   <v type="int" >       24       31       32       32       35 </v>
   <v type="int" >       24       31       32       32       47 </v>
   <v type="int" >       48       32       35       36       51 </v>
   <v type="int" >       48       32       33       36       51 </v>
   <v type="int" >       48       32       33       48       51 </v>
   <v type="int" >       24       32       32       35       51 </v>
   <v type="int" >       24       32       32       47       51 </v>
   <v type="int" >       48       32       47       48       51 </v>
   <v type="int" >       24       33       33       36       52 </v>
   <v type="int" >       24       33       33       34       52 </v>
   <v type="int" >       48       33       34       49       52 </v>
   <v type="int" >       48       33       36       51       52 </v>
   <v type="int" >       48       33       48       51       52 </v>
   <v type="int" >       48       33       48       49       52 </v>
   <v type="int" >       24       34       49       49       52 </v>
   <v type="int" >       24       34       49       49       50 </v>
   <v type="int" >       12       35       35       36       36 </v>
   <v type="int" >       24       35       36       36       51 </v>
   <v type="int" >       12       36       36       51       51 </v>
   <v type="int" >       24       36       51       51       52 </v>
   <v type="int" >       24       37       38       38       41 </v>
   <v type="int" >       48       38       41       42       46 </v>
   <v type="int" >       48       38       39       42       46 </v>
   <v type="int" >       24       38       38       41       46 </v>
   <v type="int" >       48       39       42       43       45 </v>
   <v type="int" >       48       39       40       43       45 </v>
   <v type="int" >       48       39       42       45       46 </v>
   <v type="int" >       48       40       43       44       44 </v>
   <v type="int" >       24       40       40       44       44 </v>
   <v type="int" >       48       40       43       44       45 </v>
   <v type="int" >       24       41       42       42       47 </v>
   <v type="int" >       24       41       42       42       46 </v>
   <v type="int" >       48       42       47       48       53 </v>
   <v type="int" >       48       42       43       48       53 </v>
   <v type="int" >       48       42       43       45       53 </v>
   <v type="int" >       24       42       42       47       53 </v>
   <v type="int" >       24       42       42       46       53 </v>
   <v type="int" >       48       42       45       46       53 </v>
   <v type="int" >       48       43       48       49       54 </v>
   <v type="int" >       48       43       44       49       54 </v>
   <v type="int" >       48       43       44       44       54 </v>
   <v type="int" >       48       43       48       53       54 </v>
   <v type="int" >       48       43       45       53       54 </v>
   <v type="int" >       48       43       44       45       54 </v>
   <v type="int" >       48       44       49       50       54 </v>
   <v type="int" >       48       44       45       50       54 </v>
   <v type="int" >       48       44       49       54       54 </v>
   <v type="int" >       24       44       44       54       54 </v>
   <v type="int" >       24       45       45       50       53 </v>
   <v type="int" >       24       45       45       46       53 </v>
   <v type="int" >       48       45       50       53       54 </v>
   <v type="int" >       24       47       48       48       51 </v>
   <v type="int" >       24       47       48       48       53 </v>
   <v type="int" >       48       48       51       52       55 </v>
   <v type="int" >       48       48       49       52       55 </v>
   <v type="int" >       48       48       49       54       55 </v>
   <v type="int" >       24       48       48       51       55 </v>
   <v type="int" >       24       48       48       53       55 </v>
   <v type="int" >       48       48       53       54       55 </v>
   <v type="int" >       24       49       49       52       56 </v>
   <v type="int" >       24       49       49       50       56 </v>
   <v type="int" >       48       49       50       54       56 </v>
   <v type="int" >       48       49       52       55       56 </v>
   <v type="int" >       48       49       54       55       56 </v>
   <v type="int" >       48       49       54       54       56 </v>
   <v type="int" >       24       50       54       54       56 </v>
   <v type="int" >       24       50       53       54       54 </v>
   <v type="int" >       12       51       51       52       52 </v>
   <v type="int" >       24       51       52       52       55 </v>
   <v type="int" >       12       52       52       55       55 </v>
   <v type="int" >       24       52       55       55       56 </v>
   <v type="int" >       24       53       54       54       55 </v>
   <v type="int" >       48       54       55       56       56 </v>
   <v type="int" >       24       54       54       56       56 </v>
   <v type="int" >       24       54       54       55       56 </v>
   <v type="int" >       12       55       55       56       56 </v>
   <v type="int" >       24       55       56       56       56 </v>
   <v type="int" >        6       56       56       56       56 </v>
  </varray>
  <i name="volumeweight">      0.00012522 </i>
 </kpoints>
 <parameters>
  <separator name="general" >
   <i type="string" name="SYSTEM">unknown system</i>
   <i type="logical" name="LCOMPAT"> F  </i>
  </separator>
  <separator name="electronic" >
   <i type="string" name="PREC">accura</i>
   <i name="ENMAX">    600.00000000</i>
   <i name="ENAUG">    291.05200000</i>
   <i name="EDIFF">      0.00005000</i>
   <i type="int" name="IALGO">    68</i>
   <i type="int" name="IWAVPR">    10</i>
   <i type="int" name="NBANDS">    48</i>
   <i type="int" name="NBANDSLOW">    -1</i>
   <i type="int" name="NBANDSHIGH">    -1</i>
   <i name="NELECT">      3.00000000</i>
   <i type="int" name="TURBO">     0</i>
   <i type="int" name="IRESTART">     0</i>
   <i type="int" name="NREBOOT">     0</i>
   <i type="int" name="NMIN">     0</i>
   <i name="EREF">      0.00000000</i>
   <separator name="electronic smearing" >
    <i type="int" name="ISMEAR">    -5</i>
    <i name="SIGMA">      0.05000000</i>
    <i name="KSPACING">      0.50000000</i>
    <i type="logical" name="KGAMMA"> T  </i>
    <i type="logical" name="KBLOWUP"> T  </i>
   </separator>
   <separator name="electronic projectors" >
    <i type="logical" name="LREAL"> F  </i>
    <v name="ROPT">      0.00000000</v>
    <i type="int" name="LMAXPAW">  -100</i>
    <i type="int" name="LMAXMIX">     2</i>
    <i type="logical" name="NLSPLINE"> F  </i>
   </separator>
   <separator name="electronic startup" >
    <i type="int" name="ISTART">     0</i>
    <i type="int" name="ICHARG">     2</i>
    <i type="int" name="INIWAV">     1</i>
   </separator>
   <separator name="electronic spin" >
    <i type="int" name="ISPIN">     2</i>
    <i type="logical" name="LNONCOLLINEAR"> F  </i>
    <v name="MAGMOM">      0.60000000</v>
    <i name="NUPDOWN">     -1.00000000</i>
    <i type="logical" name="LSORBIT"> F  </i>
    <v name="SAXIS">      0.00000000      0.00000000      1.00000000</v>
    <i type="logical" name="LSPIRAL"> F  </i>
    <v name="QSPIRAL">      0.00000000      0.00000000      0.00000000</v>
    <i type="logical" name="LZEROZ"> F  </i>
   </separator>
   <separator name="electronic exchange-correlation" >
    <i type="logical" name="LASPH"> T  </i>
    <i type="logical" name="LMETAGGA"> F  </i>
   </separator>
   <separator name="electronic convergence" >
    <i type="int" name="NELM">   100</i>
    <i type="int" name="NELMDL">    -5</i>
    <i type="int" name="NELMIN">     2</i>
    <i name="ENINI">    600.00000000</i>
    <separator name="electronic convergence detail" >
     <i type="logical" name="LDIAG"> T  </i>
     <i type="logical" name="LSUBROT"> F  </i>
     <i name="WEIMIN">      0.00000000</i>
     <i name="EBREAK">      0.00000026</i>
     <i name="DEPER">      0.30000000</i>
     <i type="int" name="NRMM">     4</i>
     <i name="TIME">      0.40000000</i>
    </separator>
   </separator>
   <separator name="electronic mixer" >
    <i name="AMIX">      0.40000000</i>
    <i name="BMIX">      1.00000000</i>
    <i name="AMIN">      0.10000000</i>
    <i name="AMIX_MAG">      1.60000000</i>
    <i name="BMIX_MAG">      1.00000000</i>
    <separator name="electronic mixer details" >
     <i type="int" name="IMIX">     4</i>
     <i type="logical" name="MIXFIRST"> F  </i>
     <i type="int" name="MAXMIX">   -45</i>
     <i name="WC">    100.00000000</i>
     <i type="int" name="INIMIX">     1</i>
     <i type="int" name="MIXPRE">     1</i>
     <i type="int" name="MREMOVE">     5</i>
    </separator>
   </separator>
   <separator name="electronic dipolcorrection" >
    <i type="logical" name="LDIPOL"> F  </i>
    <i type="logical" name="LMONO"> F  </i>
    <i type="int" name="IDIPOL">     0</i>
    <i name="EPSILON">      1.00000000</i>
    <v name="DIPOL">   -100.00000000   -100.00000000   -100.00000000</v>
    <i name="EFIELD">      0.00000000</i>
   </separator>
  </separator>
  <separator name="grids" >
   <i type="int" name="NGX">    24</i>
   <i type="int" name="NGY">    24</i>
   <i type="int" name="NGZ">    24</i>
   <i type="int" name="NGXF">    48</i>
   <i type="int" name="NGYF">    48</i>
   <i type="int" name="NGZF">    48</i>
   <i type="logical" name="ADDGRID"> F  </i>
  </separator>
  <separator name="ionic" >
   <i type="int" name="NSW">     0</i>
   <i type="int" name="IBRION">    -1</i>
   <i type="int" name="MDALGO">     0</i>
   <i type="int" name="ISIF">     2</i>
   <i name="PSTRESS">      0.00000000</i>
   <i name="EDIFFG">      0.00050000</i>
   <i type="int" name="NFREE">     0</i>
   <i name="POTIM">      0.50000000</i>
   <i name="SMASS">     -3.00000000</i>
   <i name="SCALEE">      1.00000000</i>
  </separator>
  <separator name="ionic md" >
   <i name="TEBEG">      0.00010000</i>
   <i name="TEEND">      0.00010000</i>
   <i type="int" name="NBLOCK">     1</i>
   <i type="int" name="KBLOCK">     1</i>
   <i type="int" name="NPACO">   256</i>
   <i name="APACO">     16.00000000</i>
  </separator>
  <separator name="symmetry" >
   <i type="int" name="ISYM">     2</i>
   <i name="SYMPREC">      0.00001000</i>
  </separator>
  <separator name="dos" >
   <i type="int" name="LORBIT">    11</i>
   <v name="RWIGS">     -1.00000000</v>
   <i type="int" name="NEDOS">   301</i>
   <i name="EMIN">     10.00000000</i>
   <i name="EMAX">    -10.00000000</i>
   <i name="EFERMI">      0.00000000</i>
  </separator>
  <separator name="writing" >
   <i type="int" name="NWRITE">     2</i>
   <i type="logical" name="LWAVE"> F  </i>
   <i type="logical" name="LDOWNSAMPLE"> F  </i>
   <i type="logical" name="LCHARG"> T  </i>
   <i type="logical" name="LPARD"> F  </i>
   <i type="logical" name="LVTOT"> F  </i>
   <i type="logical" name="LVHAR"> F  </i>
   <i type="logical" name="LELF"> F  </i>
   <i type="logical" name="LOPTICS"> F  </i>
   <v name="STM">      0.00000000      0.00000000      0.00000000      0.00000000      0.00000000      0.00000000      0.00000000</v>
  </separator>
  <separator name="performance" >
   <i type="int" name="NPAR">    48</i>
   <i type="int" name="NSIM">     4</i>
   <i type="int" name="NBLK">    -1</i>
   <i type="logical" name="LPLANE"> T  </i>
   <i type="logical" name="LSCALAPACK"> T  </i>
   <i type="logical" name="LSCAAWARE"> T  </i>
   <i type="logical" name="LSCALU"> F  </i>
   <i type="logical" name="LASYNC"> F  </i>
   <i type="logical" name="LORBITALREAL"> F  </i>
  </separator>
  <separator name="miscellaneous" >
   <i type="int" name="IDIOT">     3</i>
   <i type="int" name="PHON_NSTRUCT">    -1</i>
   <i type="logical" name="LMUSIC"> F  </i>
   <v name="POMASS">     26.98100000</v>
   <v name="DARWINR">      0.00000000</v>
   <v name="DARWINV">      1.00000000</v>
   <i type="logical" name="LCORR"> T  </i>
  </separator>
  <i type="logical" name="GGA_COMPAT"> T  </i>
  <i type="logical" name="LBERRY"> F  </i>
  <i type="int" name="ICORELEVEL">     0</i>
  <i type="logical" name="LDAU"> F  </i>
  <i type="int" name="I_CONSTRAINED_M">     0</i>
  <separator name="electronic exchange-correlation" >
   <i type="string" name="GGA">--</i>
   <i type="int" name="VOSKOWN">     0</i>
   <i type="logical" name="LHFCALC"> F  </i>
   <i type="string" name="PRECFOCK"></i>
   <i type="logical" name="LSYMGRAD"> F  </i>
   <i type="logical" name="LHFONE"> F  </i>
   <i type="logical" name="LRHFCALC"> F  </i>
   <i type="logical" name="LTHOMAS"> F  </i>
   <i type="logical" name="LMODELHF"> F  </i>
   <i type="logical" name="LFOCKACE"> F  </i>
   <i name="ENCUT4O">     -1.00000000</i>
   <i type="int" name="EXXOEP">     0</i>
   <i type="int" name="FOURORBIT">     0</i>
   <i name="AEXX">      0.00000000</i>
   <i name="HFALPHA">      0.00000000</i>
   <i name="MCALPHA">      0.00000000</i>
   <i name="ALDAX">      1.00000000</i>
   <i name="AGGAX">      1.00000000</i>
   <i name="ALDAC">      1.00000000</i>
   <i name="AGGAC">      1.00000000</i>
   <i type="int" name="NKREDX">     1</i>
   <i type="int" name="NKREDY">     1</i>
   <i type="int" name="NKREDZ">     1</i>
   <i type="logical" name="SHIFTRED"> F  </i>
   <i type="logical" name="ODDONLY"> F  </i>
   <i type="logical" name="EVENONLY"> F  </i>
   <i type="int" name="LMAXFOCK">     0</i>
   <i type="int" name="NMAXFOCKAE">     0</i>
   <i type="logical" name="LFOCKAEDFT"> F  </i>
   <i name="HFSCREEN">      0.00000000</i>
   <i name="HFSCREENC">      0.00000000</i>
   <i type="int" name="NBANDSGWLOW">     0</i>
  </separator>
  <separator name="vdW DFT" >
   <i type="logical" name="LUSE_VDW"> F  </i>
   <i name="Zab_VDW">     -0.84910000</i>
   <i name="PARAM1">      0.12340000</i>
   <i name="PARAM2">      1.00000000</i>
   <i name="PARAM3">      0.00000000</i>
  </separator>
  <separator name="model GW" >
   <i type="int" name="MODEL_GW">     0</i>
   <i name="MODEL_EPS0">      9.94976379</i>
   <i name="MODEL_ALPHA">      1.00000000</i>
  </separator>
  <separator name="linear response parameters" >
   <i type="logical" name="LEPSILON"> F  </i>
   <i type="logical" name="LRPA"> F  </i>
   <i type="logical" name="LNABLA"> F  </i>
   <i type="logical" name="LVEL"> F  </i>
   <i type="int" name="KINTER">     0</i>
   <i name="CSHIFT">      0.10000000</i>
   <i name="OMEGAMAX">     -1.00000000</i>
   <i name="DEG_THRESHOLD">      0.00200000</i>
   <i name="RTIME">     -0.10000000</i>
   <i name="WPLASMAI">      0.00000000</i>
   <v name="DFIELD">      0.00000000      0.00000000      0.00000000</v>
   <v name="WPLASMA">      0.00000000      0.00000000      0.00000000      0.00000000      0.00000000      0.00000000      0.00000000      0.00000000      0.00000000</v>
  </separator>
  <separator name="orbital magnetization" >
   <i type="logical" name="NUCIND"> F  </i>
   <v name="MAGPOS">      0.00000000      0.00000000      0.00000000</v>
   <i type="logical" name="LNICSALL"> T  </i>
   <i type="logical" name="ORBITALMAG"> F  </i>
   <i type="logical" name="LMAGBLOCH"> F  </i>
   <i type="logical" name="LCHIMAG"> F  </i>
   <i type="logical" name="LGAUGE"> T  </i>
   <i type="int" name="MAGATOM">     0</i>
   <v name="MAGDIPOL">      0.00000000      0.00000000      0.00000000</v>
   <v name="AVECCONST">      0.00000000      0.00000000      0.00000000</v>
  </separator>
  <separator name="response functions" >
   <i type="logical" name="LFINITE_TEMPERATURE"> F  </i>
   <i type="logical" name="LADDER"> F  </i>
   <i type="logical" name="LRPAFORCE"> F  </i>
   <i type="logical" name="LFXC"> F  </i>
   <i type="logical" name="LHARTREE"> T  </i>
   <i type="int" name="IBSE">     0</i>
   <v type="int" name="KPOINT">    -1     0     0     0</v>
   <i type="logical" name="LTCTC"> F  </i>
   <i type="logical" name="LTCTE"> F  </i>
   <i type="logical" name="LTETE"> F  </i>
   <i type="logical" name="LTRIPLET"> F  </i>
   <i type="logical" name="LFXCEPS"> F  </i>
   <i type="logical" name="LFXHEG"> F  </i>
   <i type="int" name="NATURALO">     2</i>
   <i type="logical" name="LHOLEGF"> F  </i>
   <i type="logical" name="L2ORDER"> F  </i>
   <i type="logical" name="LDMP1"> F  </i>
   <i type="logical" name="LMP2LT"> F  </i>
   <i type="logical" name="LSMP2LT"> F  </i>
   <i type="logical" name="LGWLF"> F  </i>
   <i name="ENCUTGW">     -2.00000000</i>
   <i name="ENCUTGWSOFT">     -2.00000000</i>
   <i name="ENCUTLF">     -1.00000000</i>
   <i type="logical" name="LESF_SPLINES"> F  </i>
   <i type="int" name="LMAXMP2">    -1</i>
   <i name="SCISSOR">      0.00000000</i>
   <i type="int" name="NOMEGA">     0</i>
   <i type="int" name="NOMEGAR">     0</i>
   <i type="int" name="NBANDSGW">    -1</i>
   <i type="int" name="NBANDSO">    -1</i>
   <i type="int" name="NBANDSV">    -1</i>
   <i type="int" name="NELM">   100</i>
   <i type="int" name="NELMHF">     1</i>
   <i type="int" name="DIM">     3</i>
   <i type="int" name="IESPILON">     4</i>
   <i type="int" name="ANTIRES">     0</i>
   <i name="OMEGAMAX">    -30.00000000</i>
   <i name="OMEGAMIN">    -30.00000000</i>
   <i name="OMEGATL">   -200.00000000</i>
   <i type="int" name="OMEGAGRID">     0</i>
   <i name="CSHIFT">     -0.10000000</i>
   <i type="logical" name="LSELFENERGY"> F  </i>
   <i type="logical" name="LSPECTRAL"> F  </i>
   <i type="logical" name="LSPECTRALGW"> F  </i>
   <i type="logical" name="LSINGLES"> F  </i>
   <i type="logical" name="LFERMIGW"> F  </i>
   <i type="logical" name="ODDONLYGW"> F  </i>
   <i type="logical" name="EVENONLYGW"> F  </i>
   <i type="int" name="NKREDLFX">     1</i>
   <i type="int" name="NKREDLFY">     1</i>
   <i type="int" name="NKREDLFZ">     1</i>
   <i type="int" name="MAXMEM">  2800</i>
   <i type="int" name="TELESCOPE">     0</i>
   <i type="int" name="NTAUPAR">    -1</i>
   <i type="int" name="NOMEGAPAR">    -1</i>
   <i name="DAMP_NEWTON">      0.80000001</i>
   <i name="LAMBDA">      1.00000000</i>
  </separator>
  <separator name="External order field" >
   <i name="OFIELD_KAPPA">      0.00000000</i>
   <v name="OFIELD_K">      0.00000000      0.00000000      0.00000000</v>
   <i name="OFIELD_Q6_NEAR">      0.00000000</i>
   <i name="OFIELD_Q6_FAR">      0.00000000</i>
   <i name="OFIELD_A">      0.00000000</i>
  </separator>
 </parameters>
 <atominfo>
  <atoms>       1 </atoms>
  <types>       1 </types>
  <array name="atoms" >
   <dimension dim="1">ion</dimension>
   <field type="string">element</field>
   <field type="int">atomtype</field>
   <set>
    <rc><c>Al</c><c>   1</c></rc>
   </set>
  </array>
  <array name="atomtypes" >
   <dimension dim="1">type</dimension>
   <field type="int">atomspertype</field>
   <field type="string">element</field>
   <field>mass</field>
   <field>valence</field>
   <field type="string">pseudopotential</field>
   <set>
    <rc><c>   1</c><c>Al</c><c>     26.98100000</c><c>      3.00000000</c><c>  PAW_PBE Al 04Jan2001                  </c></rc>
   </set>
  </array>
 </atominfo>
 <structure name="initialpos" >
  <crystal>
   <varray name="basis" >
    <v>       0.00000000       2.02400000       2.02400000 </v>
    <v>       2.02400000       0.00000000       2.02400000 </v>
    <v>       2.02400000       2.02400000       0.00000000 </v>
   </varray>
   <i name="volume">     16.58293965 </i>
   <varray name="rec_basis" >
    <v>      -0.24703557       0.24703557       0.24703557 </v>
    <v>       0.24703557      -0.24703557       0.24703557 </v>
    <v>       0.24703557       0.24703557      -0.24703557 </v>
   </varray>
  </crystal>
  <varray name="positions" >
   <v>       0.00000000       0.00000000       0.00000000 </v>
  </varray>
 </structure>
 <calculation>
  <scstep>
   <time name="dav">    8.41    8.41</time>
   <time name="total">    8.64    8.64</time>
   <energy>
    <i name="alphaZ">     -0.20254611 </i>
    <i name="ewald">    -73.39295237 </i>
    <i name="hartreedc">     -0.10329695 </i>
    <i name="XCdc">    -26.19545267 </i>
    <i name="pawpsdc">     66.16230985 </i>
    <i name="pawaedc">    -34.20858819 </i>
    <i name="eentropy">      0.00000000 </i>
    <i name="bandstr">     10.79636891 </i>
    <i name="atom">     53.53854971 </i>
    <i name="e_fr_energy">     -3.60560783 </i>
    <i name="e_wo_entrp">     -3.60560783 </i>
    <i name="e_0_energy">     -3.60560783 </i>
   </energy>
  </scstep>
  <scstep>
   <time name="dav">    9.93    9.93</time>
   <time name="total">    9.98    9.98</time>
   <energy>
    <i name="e_fr_energy">     -3.68278249 </i>
    <i name="e_wo_entrp">     -3.68278249 </i>
    <i name="e_0_energy">     -3.68278249 </i>
   </energy>
  </scstep>
  <scstep>
   <time name="dav">    7.55    7.55</time>
   <time name="total">    7.59    7.60</time>
   <energy>
    <i name="e_fr_energy">     -3.68278659 </i>
    <i name="e_wo_entrp">     -3.68278659 </i>
    <i name="e_0_energy">     -3.68278659 </i>
   </energy>
  </scstep>
  <scstep>
   <time name="dav">   15.67   15.67</time>
   <time name="total">   15.71   15.71</time>
   <energy>
    <i name="e_fr_energy">     -3.68278658 </i>
    <i name="e_wo_entrp">     -3.68278658 </i>
    <i name="e_0_energy">     -3.68278658 </i>
   </energy>
  </scstep>
  <scstep>
   <time name="dav">    6.69    6.69</time>
   <time name="total">    6.78    6.78</time>
   <energy>
    <i name="e_fr_energy">     -3.68278658 </i>
    <i name="e_wo_entrp">     -3.68278658 </i>
    <i name="e_0_energy">     -3.68278658 </i>
   </energy>
  </scstep>
  <scstep>
   <time name="diag">    0.35    0.35</time>
   <time name="diis">    0.21    0.21</time>
   <time name="orth">    0.05    0.05</time>
   <time name="total">    0.86    0.86</time>
   <energy>
    <i name="e_fr_energy">     -3.75440883 </i>
    <i name="e_wo_entrp">     -3.75440883 </i>
    <i name="e_0_energy">     -3.75440883 </i>
   </energy>
  </scstep>
  <scstep>
   <time name="diag">    0.35    0.35</time>
   <time name="diis">    0.24    0.24</time>
   <time name="orth">    0.05    0.05</time>
   <time name="total">    0.87    0.87</time>
   <energy>
    <i name="e_fr_energy">     -3.74600585 </i>
    <i name="e_wo_entrp">     -3.74600585 </i>
    <i name="e_0_energy">     -3.74600585 </i>
   </energy>
  </scstep>
  <scstep>
   <time name="diag">    0.35    0.35</time>
   <time name="diis">    0.24    0.24</time>
   <time name="orth">    0.05    0.05</time>
   <time name="total">    0.88    0.88</time>
   <energy>
    <i name="e_fr_energy">     -3.74593679 </i>
    <i name="e_wo_entrp">     -3.74593679 </i>
    <i name="e_0_energy">     -3.74593679 </i>
   </energy>
  </scstep>
  <scstep>
   <time name="diag">    0.35    0.35</time>
   <time name="diis">    0.30    0.30</time>
   <time name="orth">    0.05    0.05</time>
   <time name="total">    0.89    0.89</time>
   <energy>
    <i name="alphaZ">     -0.20254611 </i>
    <i name="ewald">    -73.39295237 </i>
    <i name="hartreedc">     -0.10531672 </i>
    <i name="XCdc">    -26.14023011 </i>
    <i name="pawpsdc">    145.40793109 </i>
    <i name="pawaedc">   -113.46310580 </i>
    <i name="eentropy">      0.00000000 </i>
    <i name="bandstr">     10.61173138 </i>
    <i name="atom">     53.53854971 </i>
    <i name="e_fr_energy">     -3.74593893 </i>
    <i name="e_wo_entrp">     -3.74593893 </i>
    <i name="e_0_energy">     -3.74593893 </i>
   </energy>
  </scstep>
  <structure>
   <crystal>
    <varray name="basis" >
     <v>       0.00000000       2.02400000       2.02400000 </v>
     <v>       2.02400000       0.00000000       2.02400000 </v>
     <v>       2.02400000       2.02400000       0.00000000 </v>
    </varray>
    <i name="volume">     16.58293965 </i>
    <varray name="rec_basis" >
     <v>      -0.24703557       0.24703557       0.24703557 </v>
     <v>       0.24703557      -0.24703557       0.24703557 </v>
     <v>       0.24703557       0.24703557      -0.24703557 </v>
    </varray>
   </crystal>
   <varray name="positions" >
    <v>       0.00000000       0.00000000       0.00000000 </v>
   </varray>
  </structure>
  <varray name="forces" >
   <v>       0.00000000       0.00000000       0.00000000 </v>
  </varray>
  <varray name="stress" >
   <v>      -9.01785292      -0.00000000       0.00000000 </v>
   <v>      -0.00000000      -9.01785292      -0.00000000 </v>
   <v>       0.00000000      -0.00000000      -9.01785292 </v>
  </varray>
  <energy>
   <i name="e_fr_energy">     -3.74593893 </i>
   <i name="e_wo_entrp">     -3.74593893 </i>
   <i name="e_0_energy">     -3.74593893 </i>
  </energy>
  <time name="totalsc">   52.82   52.83</time>
  <eigenvalues>
   <array>
    <dimension dim="1">band</dimension>
    <dimension dim="2">kpoint</dimension>
    <dimension dim="3">spin</dimension>
    <field>eigene</field>
    <field>occ</field>
    <set>
     <set comment="spin 1">
      <set comment="kpoint 1">
       <r>   -3.1512    1.0000 </r>
       <r>   20.5405    0.0000 </r>
       <r>   20.5405    0.0000 </r>
       <r>   20.5405    0.0000 </r>
       <r>   21.9952    0.0000 </r>
       <r>   21.9952    0.0000 </r>
       <r>   21.9952    0.0000 </r>
       <r>   24.3776    0.0000 </r>
       <r>   27.3151    0.0000 </r>
       <r>   27.3151    0.0000 </r>
       <r>   30.1607    0.0000 </r>
       <r>   32.5110    0.0000 </r>
       <r>   32.5110    0.0000 </r>
       <r>   32.5110    0.0000 </r>
       <r>   41.0635    0.0000 </r>
       <r>   55.9944    0.0000 </r>
       <r>   55.9944    0.0000 </r>
       <r>   55.9944    0.0000 </r>
       <r>   56.0457    0.0000 </r>
       <r>   59.2120    0.0000 </r>
       <r>   59.2120    0.0000 </r>
       <r>   59.2120    0.0000 </r>
       <r>   62.8326    0.0000 </r>
       <r>   62.8326    0.0000 </r>
       <r>   65.0762    0.0000 </r>
       <r>   65.0762    0.0000 </r>
       <r>   65.0762    0.0000 </r>
       <r>   73.1735    0.0000 </r>
       <r>   73.1735    0.0000 </r>
       <r>   73.1735    0.0000 </r>
       <r>   80.8171    0.0000 </r>
       <r>   83.0713    0.0000 </r>
       <r>   83.0713    0.0000 </r>
       <r>   87.2010    0.0000 </r>
       <r>   87.2010    0.0000 </r>
       <r>   87.2010    0.0000 </r>
       <r>   90.0837    0.0000 </r>
       <r>   90.0837    0.0000 </r>
       <r>   90.0837    0.0000 </r>
       <r>   90.8915    0.0000 </r>
       <r>   93.4575    0.0000 </r>
       <r>   93.4575    0.0000 </r>
       <r>   93.4575    0.0000 </r>
       <r>   93.9323    0.0000 </r>
       <r>   93.9323    0.0000 </r>
       <r>   93.9323    0.0000 </r>
       <r>   96.3733    0.0000 </r>
       <r>   96.3733    0.0000 </r>
      </set>
      <set comment="kpoint 2">
       <r>   -2.9274    1.0000 </r>
       <r>   17.6193    0.0000 </r>
       <r>   19.8939    0.0000 </r>
       <r>   19.8939    0.0000 </r>
       <r>   22.6698    0.0000 </r>
       <r>   22.9805    0.0000 </r>
       <r>   22.9805    0.0000 </r>
       <r>   26.2023    0.0000 </r>
       <r>   26.2023    0.0000 </r>
       <r>   26.4706    0.0000 </r>
       <r>   29.4087    0.0000 </r>
       <r>   33.6039    0.0000 </r>
       <r>   34.0812    0.0000 </r>
       <r>   34.0812    0.0000 </r>
       <r>   41.9385    0.0000 </r>
       <r>   55.2677    0.0000 </r>
       <r>   55.5577    0.0000 </r>
       <r>   55.5577    0.0000 </r>
       <r>   56.3408    0.0000 </r>
       <r>   57.1667    0.0000 </r>
       <r>   57.1667    0.0000 </r>
       <r>   59.1958    0.0000 </r>
       <r>   61.5786    0.0000 </r>
       <r>   61.5786    0.0000 </r>
       <r>   65.2764    0.0000 </r>
       <r>   68.9323    0.0000 </r>
       <r>   68.9323    0.0000 </r>
       <r>   71.5272    0.0000 </r>
       <r>   72.9738    0.0000 </r>
       <r>   72.9738    0.0000 </r>
       <r>   81.8238    0.0000 </r>
       <r>   81.8238    0.0000 </r>
       <r>   82.2996    0.0000 </r>
       <r>   84.0853    0.0000 </r>
       <r>   85.7874    0.0000 </r>
       <r>   85.7874    0.0000 </r>
       <r>   87.9819    0.0000 </r>
       <r>   87.9819    0.0000 </r>
       <r>   89.0034    0.0000 </r>
       <r>   90.0834    0.0000 </r>
       <r>   91.3007    0.0000 </r>
       <r>   91.3007    0.0000 </r>
       <r>   92.8772    0.0000 </r>
       <r>   94.8035    0.0000 </r>
       <r>   95.6427    0.0000 </r>
       <r>   95.6427    0.0000 </r>
       <r>   97.0957    0.0000 </r>
       <r>   97.0957    0.0000 </r>
      </set>
      <set comment="kpoint 3">
       <r>   -2.2580    1.0000 </r>
       <r>   13.9743    0.0000 </r>
       <r>   19.1608    0.0000 </r>
       <r>   19.1608    0.0000 </r>
       <r>   22.4371    0.0000 </r>
       <r>   23.8029    0.0000 </r>
       <r>   23.8029    0.0000 </r>
       <r>   25.3161    0.0000 </r>
       <r>   25.3161    0.0000 </r>
       <r>   27.8928    0.0000 </r>
       <r>   29.9795    0.0000 </r>
       <r>   36.4313    0.0000 </r>
       <r>   37.2349    0.0000 </r>
       <r>   37.2349    0.0000 </r>
       <r>   44.1451    0.0000 </r>
       <r>   51.7092    0.0000 </r>
       <r>   51.7092    0.0000 </r>
       <r>   53.8758    0.0000 </r>
       <r>   56.3763    0.0000 </r>
       <r>   56.3763    0.0000 </r>
       <r>   56.5415    0.0000 </r>
       <r>   58.8579    0.0000 </r>
       <r>   61.7185    0.0000 </r>
       <r>   61.7185    0.0000 </r>
       <r>   65.8667    0.0000 </r>
       <r>   68.8938    0.0000 </r>
       <r>   71.0628    0.0000 </r>
       <r>   71.0628    0.0000 </r>
       <r>   73.9446    0.0000 </r>
       <r>   73.9446    0.0000 </r>
       <r>   78.8445    0.0000 </r>
       <r>   78.9811    0.0000 </r>
       <r>   78.9811    0.0000 </r>
       <r>   82.8119    0.0000 </r>
       <r>   82.8119    0.0000 </r>
       <r>   84.8197    0.0000 </r>
       <r>   85.6513    0.0000 </r>
       <r>   86.5800    0.0000 </r>
       <r>   86.5800    0.0000 </r>
       <r>   87.4912    0.0000 </r>
       <r>   89.4440    0.0000 </r>
       <r>   90.0120    0.0000 </r>
       <r>   90.0120    0.0000 </r>
       <r>   93.9098    0.0000 </r>
       <r>   97.2829    0.0000 </r>
       <r>   97.2829    0.0000 </r>
       <r>   99.4843    0.0000 </r>
       <r>   99.4843    0.0000 </r>
      </set>
      <set comment="kpoint 4">
       <r>   -1.1493    1.0000 </r>
       <r>   10.5496   -0.0162 </r>
       <r>   18.7520    0.0000 </r>
       <r>   18.7520    0.0000 </r>
       <r>   22.2252    0.0000 </r>
       <r>   22.2579    0.0000 </r>
       <r>   22.2579    0.0000 </r>
       <r>   26.2471    0.0000 </r>
       <r>   27.3611    0.0000 </r>
       <r>   27.3611    0.0000 </r>
       <r>   33.3143    0.0000 </r>
       <r>   40.5162    0.0000 </r>
       <r>   40.8489    0.0000 </r>
       <r>   40.8489    0.0000 </r>
       <r>   47.0298    0.0000 </r>
       <r>   47.3680    0.0000 </r>
       <r>   47.3680    0.0000 </r>
       <r>   51.9099    0.0000 </r>
       <r>   56.3325    0.0000 </r>
       <r>   56.3325    0.0000 </r>
       <r>   56.7671    0.0000 </r>
       <r>   57.9081    0.0000 </r>
       <r>   62.1666    0.0000 </r>
       <r>   62.1666    0.0000 </r>
       <r>   66.3256    0.0000 </r>
       <r>   66.8053    0.0000 </r>
       <r>   67.8364    0.0000 </r>
       <r>   67.8364    0.0000 </r>
       <r>   74.3822    0.0000 </r>
       <r>   74.3822    0.0000 </r>
       <r>   75.7443    0.0000 </r>
       <r>   78.3805    0.0000 </r>
       <r>   79.1176    0.0000 </r>
       <r>   79.1176    0.0000 </r>
       <r>   79.9646    0.0000 </r>
       <r>   79.9646    0.0000 </r>
       <r>   81.1815    0.0000 </r>
       <r>   88.1613    0.0000 </r>
       <r>   88.1613    0.0000 </r>
       <r>   88.7388    0.0000 </r>
       <r>   89.4808    0.0000 </r>
       <r>   89.4808    0.0000 </r>
       <r>   91.1137    0.0000 </r>
       <r>   93.0304    0.0000 </r>
       <r>   97.5077    0.0000 </r>
       <r>   97.5077    0.0000 </r>
       <r>  101.4936    0.0000 </r>
       <r>  102.4388    0.0000 </r>
      </set>
      <set comment="kpoint 5">
       <r>    0.3888    1.0000 </r>
       <r>    7.4471    0.7111 </r>
       <r>   18.7080    0.0000 </r>
       <r>   18.7080    0.0000 </r>
       <r>   20.8287    0.0000 </r>
       <r>   20.8287    0.0000 </r>
       <r>   22.2962    0.0000 </r>
       <r>   24.7594    0.0000 </r>
       <r>   29.8895    0.0000 </r>
       <r>   29.8895    0.0000 </r>
       <r>   36.4448    0.0000 </r>
       <r>   41.9028    0.0000 </r>
       <r>   41.9028    0.0000 </r>
       <r>   45.0377    0.0000 </r>
       <r>   46.4370    0.0000 </r>
       <r>   46.4370    0.0000 </r>
       <r>   48.3298    0.0000 </r>
       <r>   51.7444    0.0000 </r>
       <r>   56.2577    0.0000 </r>
       <r>   56.2577    0.0000 </r>
       <r>   56.3820    0.0000 </r>
       <r>   57.0555    0.0000 </r>
       <r>   61.3445    0.0000 </r>
       <r>   61.3445    0.0000 </r>
       <r>   63.7408    0.0000 </r>
       <r>   64.4050    0.0000 </r>
       <r>   64.4050    0.0000 </r>
       <r>   67.9665    0.0000 </r>
       <r>   69.6715    0.0000 </r>
       <r>   73.8309    0.0000 </r>
       <r>   73.8309    0.0000 </r>
       <r>   76.5542    0.0000 </r>
       <r>   76.9670    0.0000 </r>
       <r>   76.9670    0.0000 </r>
       <r>   78.2191    0.0000 </r>
       <r>   80.4334    0.0000 </r>
       <r>   80.4334    0.0000 </r>
       <r>   88.5376    0.0000 </r>
       <r>   89.1191    0.0000 </r>
       <r>   89.1191    0.0000 </r>
       <r>   90.4661    0.0000 </r>
       <r>   92.0087    0.0000 </r>
       <r>   92.0087    0.0000 </r>
       <r>   94.2229    0.0000 </r>
       <r>   98.9615    0.0000 </r>
       <r>   98.9615    0.0000 </r>
       <r>  102.3372    0.0000 </r>
       <r>  104.0873    0.0000 </r>
      </set>
      <set comment="kpoint 6">
       <r>    2.3417    1.0000 </r>
       <r>    4.7079    1.0000 </r>
       <r>   19.0372    0.0000 </r>
       <r>   19.0372    0.0000 </r>
       <r>   19.7494    0.0000 </r>
       <r>   19.7494    0.0000 </r>
       <r>   22.7337    0.0000 </r>
       <r>   23.5707    0.0000 </r>
       <r>   32.2130    0.0000 </r>
       <r>   32.2130    0.0000 </r>
       <r>   39.0084    0.0000 </r>
       <r>   39.2263    0.0000 </r>
       <r>   39.2263    0.0000 </r>
       <r>   45.8112    0.0000 </r>
       <r>   49.6285    0.0000 </r>
       <r>   50.3210    0.0000 </r>
       <r>   50.3210    0.0000 </r>
       <r>   54.1939    0.0000 </r>
       <r>   55.4486    0.0000 </r>
       <r>   55.4486    0.0000 </r>
       <r>   55.4507    0.0000 </r>
       <r>   57.6456    0.0000 </r>
       <r>   57.9372    0.0000 </r>
       <r>   57.9372    0.0000 </r>
       <r>   61.6627    0.0000 </r>
       <r>   63.6225    0.0000 </r>
       <r>   64.2294    0.0000 </r>
       <r>   64.2294    0.0000 </r>
       <r>   68.9555    0.0000 </r>
       <r>   73.6001    0.0000 </r>
       <r>   73.6001    0.0000 </r>
       <r>   75.5290    0.0000 </r>
       <r>   75.5290    0.0000 </r>
       <r>   76.3288    0.0000 </r>
       <r>   76.8629    0.0000 </r>
       <r>   80.5350    0.0000 </r>
       <r>   80.5350    0.0000 </r>
       <r>   88.5880    0.0000 </r>
       <r>   88.8757    0.0000 </r>
       <r>   88.8757    0.0000 </r>
       <r>   89.2061    0.0000 </r>
       <r>   94.1953    0.0000 </r>
       <r>   95.0928    0.0000 </r>
       <r>   95.0928    0.0000 </r>
       <r>  101.1787    0.0000 </r>
       <r>  101.1787    0.0000 </r>
       <r>  105.1203    0.0000 </r>
       <r>  105.1203    0.0000 </r>
      </set>
      <set comment="kpoint 7">
       <r>   -2.8529    1.0000 </r>
       <r>   18.6319    0.0000 </r>
       <r>   18.6319    0.0000 </r>
       <r>   18.9316    0.0000 </r>
       <r>   21.3282    0.0000 </r>
       <r>   24.2918    0.0000 </r>
       <r>   24.3361    0.0000 </r>
       <r>   24.3361    0.0000 </r>
       <r>   26.5828    0.0000 </r>
       <r>   27.5911    0.0000 </r>
       <r>   30.5943    0.0000 </r>
       <r>   32.8567    0.0000 </r>
       <r>   32.8567    0.0000 </r>
       <r>   35.5667    0.0000 </r>
       <r>   42.3737    0.0000 </r>
       <r>   55.1778    0.0000 </r>
       <r>   55.1778    0.0000 </r>
       <r>   55.4027    0.0000 </r>
       <r>   56.5113    0.0000 </r>
       <r>   57.4446    0.0000 </r>
       <r>   57.4446    0.0000 </r>
       <r>   57.8546    0.0000 </r>
       <r>   59.4064    0.0000 </r>
       <r>   62.7536    0.0000 </r>
       <r>   67.4699    0.0000 </r>
       <r>   67.4699    0.0000 </r>
       <r>   70.3897    0.0000 </r>
       <r>   70.4316    0.0000 </r>
       <r>   73.4312    0.0000 </r>
       <r>   73.4312    0.0000 </r>
       <r>   80.6199    0.0000 </r>
       <r>   82.5694    0.0000 </r>
       <r>   82.6827    0.0000 </r>
       <r>   82.6827    0.0000 </r>
       <r>   83.4049    0.0000 </r>
       <r>   84.1241    0.0000 </r>
       <r>   88.7388    0.0000 </r>
       <r>   90.0775    0.0000 </r>
       <r>   90.0775    0.0000 </r>
       <r>   90.1081    0.0000 </r>
       <r>   90.1081    0.0000 </r>
       <r>   92.1281    0.0000 </r>
       <r>   93.1296    0.0000 </r>
       <r>   94.3985    0.0000 </r>
       <r>   94.7926    0.0000 </r>
       <r>   97.7771    0.0000 </r>
       <r>   97.8023    0.0000 </r>
       <r>   97.8023    0.0000 </r>
      </set>
      <set comment="kpoint 8">
       <r>   -2.3322    1.0000 </r>
       <r>   15.2962    0.0000 </r>
       <r>   17.7058    0.0000 </r>
       <r>   19.0470    0.0000 </r>
       <r>   21.6655    0.0000 </r>
       <r>   22.2807    0.0000 </r>
       <r>   24.7152    0.0000 </r>
       <r>   25.7360    0.0000 </r>
       <r>   27.0758    0.0000 </r>
       <r>   29.5004    0.0000 </r>
       <r>   29.9516    0.0000 </r>
       <r>   34.7296    0.0000 </r>
       <r>   35.0374    0.0000 </r>
       <r>   37.8752    0.0000 </r>
       <r>   44.4209    0.0000 </r>
       <r>   51.7165    0.0000 </r>
       <r>   52.8038    0.0000 </r>
       <r>   55.4013    0.0000 </r>
       <r>   55.6564    0.0000 </r>
       <r>   56.1690    0.0000 </r>
       <r>   56.9899    0.0000 </r>
       <r>   57.9648    0.0000 </r>
       <r>   59.3667    0.0000 </r>
       <r>   62.3058    0.0000 </r>
       <r>   67.4618    0.0000 </r>
       <r>   68.4122    0.0000 </r>
       <r>   71.3117    0.0000 </r>
       <r>   72.5333    0.0000 </r>
       <r>   72.5759    0.0000 </r>
       <r>   74.9084    0.0000 </r>
       <r>   77.2969    0.0000 </r>
       <r>   78.4264    0.0000 </r>
       <r>   80.6579    0.0000 </r>
       <r>   81.7010    0.0000 </r>
       <r>   82.4831    0.0000 </r>
       <r>   84.0864    0.0000 </r>
       <r>   86.2081    0.0000 </r>
       <r>   86.2715    0.0000 </r>
       <r>   89.1397    0.0000 </r>
       <r>   89.2550    0.0000 </r>
       <r>   89.7783    0.0000 </r>
       <r>   91.3516    0.0000 </r>
       <r>   93.7387    0.0000 </r>
       <r>   94.4150    0.0000 </r>
       <r>   94.5148    0.0000 </r>
       <r>   96.1739    0.0000 </r>
       <r>   97.0319    0.0000 </r>
       <r>   97.6146    0.0000 </r>
      </set>
      <set comment="kpoint 9">
       <r>   -1.3704    1.0000 </r>
       <r>   11.8216    0.0000 </r>
       <r>   17.1496    0.0000 </r>
       <r>   18.7069    0.0000 </r>
       <r>   20.0160    0.0000 </r>
       <r>   23.7957    0.0000 </r>
       <r>   24.6495    0.0000 </r>
       <r>   24.7575    0.0000 </r>
       <r>   28.2543    0.0000 </r>
       <r>   28.5397    0.0000 </r>
       <r>   33.0556    0.0000 </r>
       <r>   38.0844    0.0000 </r>
       <r>   39.0264    0.0000 </r>
       <r>   40.8799    0.0000 </r>
       <r>   47.1320    0.0000 </r>
       <r>   47.3268    0.0000 </r>
       <r>   49.0795    0.0000 </r>
       <r>   53.6684    0.0000 </r>
       <r>   55.5362    0.0000 </r>
       <r>   56.1702    0.0000 </r>
       <r>   57.1193    0.0000 </r>
       <r>   58.5423    0.0000 </r>
       <r>   58.6117    0.0000 </r>
       <r>   62.5240    0.0000 </r>
       <r>   65.0117    0.0000 </r>
       <r>   68.7815    0.0000 </r>
       <r>   68.8461    0.0000 </r>
       <r>   71.5288    0.0000 </r>
       <r>   72.0144    0.0000 </r>
       <r>   73.7246    0.0000 </r>
       <r>   76.9966    0.0000 </r>
       <r>   77.1199    0.0000 </r>
       <r>   78.6085    0.0000 </r>
       <r>   80.6862    0.0000 </r>
       <r>   81.0149    0.0000 </r>
       <r>   81.4762    0.0000 </r>
       <r>   82.6251    0.0000 </r>
       <r>   86.7464    0.0000 </r>
       <r>   86.7927    0.0000 </r>
       <r>   87.0471    0.0000 </r>
       <r>   91.0077    0.0000 </r>
       <r>   92.3784    0.0000 </r>
       <r>   92.6021    0.0000 </r>
       <r>   94.1365    0.0000 </r>
       <r>   94.4820    0.0000 </r>
       <r>   97.2725    0.0000 </r>
       <r>   99.7250    0.0000 </r>
       <r>  100.7971    0.0000 </r>
      </set>
      <set comment="kpoint 10">
       <r>    0.0239    1.0000 </r>
       <r>    8.6210    0.1967 </r>
       <r>   16.9704    0.0000 </r>
       <r>   18.3664    0.0000 </r>
       <r>   18.6183    0.0000 </r>
       <r>   23.2986    0.0000 </r>
       <r>   24.3943    0.0000 </r>
       <r>   26.0459    0.0000 </r>
       <r>   27.2164    0.0000 </r>
       <r>   30.8506    0.0000 </r>
       <r>   36.2801    0.0000 </r>
       <r>   40.8717    0.0000 </r>
       <r>   43.2325    0.0000 </r>
       <r>   43.7146    0.0000 </r>
       <r>   44.2178    0.0000 </r>
       <r>   46.3844    0.0000 </r>
       <r>   49.7839    0.0000 </r>
       <r>   52.2644    0.0000 </r>
       <r>   55.6272    0.0000 </r>
       <r>   56.2400    0.0000 </r>
       <r>   56.6641    0.0000 </r>
       <r>   57.5904    0.0000 </r>
       <r>   59.1535    0.0000 </r>
       <r>   61.7246    0.0000 </r>
       <r>   63.2194    0.0000 </r>
       <r>   64.9132    0.0000 </r>
       <r>   66.4551    0.0000 </r>
       <r>   70.4259    0.0000 </r>
       <r>   70.4800    0.0000 </r>
       <r>   71.3578    0.0000 </r>
       <r>   72.6029    0.0000 </r>
       <r>   76.1245    0.0000 </r>
       <r>   77.1559    0.0000 </r>
       <r>   78.1695    0.0000 </r>
       <r>   80.5787    0.0000 </r>
       <r>   81.5381    0.0000 </r>
       <r>   83.3299    0.0000 </r>
       <r>   84.6166    0.0000 </r>
       <r>   87.2815    0.0000 </r>
       <r>   88.6161    0.0000 </r>
       <r>   92.5167    0.0000 </r>
       <r>   93.5847    0.0000 </r>
       <r>   93.7247    0.0000 </r>
       <r>   94.4607    0.0000 </r>
       <r>   96.1811    0.0000 </r>
       <r>   98.3229    0.0000 </r>
       <r>  101.1340    0.0000 </r>
       <r>  103.2476    0.0000 </r>
      </set>
      <set comment="kpoint 11">
       <r>    1.8380    1.0000 </r>
       <r>    5.7645    1.0451 </r>
       <r>   17.1432    0.0000 </r>
       <r>   17.1707    0.0000 </r>
       <r>   18.8341    0.0000 </r>
       <r>   22.1214    0.0000 </r>
       <r>   24.6449    0.0000 </r>
       <r>   25.3361    0.0000 </r>
       <r>   29.4678    0.0000 </r>
       <r>   32.7304    0.0000 </r>
       <r>   39.1071    0.0000 </r>
       <r>   39.1535    0.0000 </r>
       <r>   40.6666    0.0000 </r>
       <r>   47.1223    0.0000 </r>
       <r>   47.4428    0.0000 </r>
       <r>   48.7408    0.0000 </r>
       <r>   49.8144    0.0000 </r>
       <r>   54.2037    0.0000 </r>
       <r>   55.0562    0.0000 </r>
       <r>   55.6624    0.0000 </r>
       <r>   56.1998    0.0000 </r>
       <r>   56.8103    0.0000 </r>
       <r>   58.7367    0.0000 </r>
       <r>   59.0874    0.0000 </r>
       <r>   62.0783    0.0000 </r>
       <r>   62.8244    0.0000 </r>
       <r>   63.9780    0.0000 </r>
       <r>   66.0824    0.0000 </r>
       <r>   69.1229    0.0000 </r>
       <r>   69.7638    0.0000 </r>
       <r>   71.9439    0.0000 </r>
       <r>   74.9617    0.0000 </r>
       <r>   76.1209    0.0000 </r>
       <r>   78.1163    0.0000 </r>
       <r>   80.4072    0.0000 </r>
       <r>   81.2872    0.0000 </r>
       <r>   82.7906    0.0000 </r>
       <r>   83.6110    0.0000 </r>
       <r>   88.4635    0.0000 </r>
       <r>   88.6962    0.0000 </r>
       <r>   92.3844    0.0000 </r>
       <r>   94.6247    0.0000 </r>
       <r>   95.6656    0.0000 </r>
       <r>   96.9422    0.0000 </r>
       <r>   99.6835    0.0000 </r>
       <r>  101.3771    0.0000 </r>
       <r>  101.4582    0.0000 </r>
       <r>  102.1320    0.0000 </r>
      </set>
      <set comment="kpoint 12">
       <r>    3.2642    1.0000 </r>
       <r>    4.0764    1.0000 </r>
       <r>   16.2847    0.0000 </r>
       <r>   17.7516    0.0000 </r>
       <r>   19.4595    0.0000 </r>
       <r>   21.2981    0.0000 </r>
       <r>   24.2597    0.0000 </r>
       <r>   25.4722    0.0000 </r>
       <r>   31.7375    0.0000 </r>
       <r>   31.8943    0.0000 </r>
       <r>   38.0385    0.0000 </r>
       <r>   39.7849    0.0000 </r>
       <r>   40.5275    0.0000 </r>
       <r>   46.3944    0.0000 </r>
       <r>   49.4013    0.0000 </r>
       <r>   50.6193    0.0000 </r>
       <r>   51.4103    0.0000 </r>
       <r>   53.6367    0.0000 </r>
       <r>   54.9421    0.0000 </r>
       <r>   55.3053    0.0000 </r>
       <r>   56.4054    0.0000 </r>
       <r>   56.9329    0.0000 </r>
       <r>   57.1765    0.0000 </r>
       <r>   58.8532    0.0000 </r>
       <r>   61.6936    0.0000 </r>
       <r>   61.8218    0.0000 </r>
       <r>   62.7682    0.0000 </r>
       <r>   64.7510    0.0000 </r>
       <r>   68.8609    0.0000 </r>
       <r>   69.3194    0.0000 </r>
       <r>   72.1606    0.0000 </r>
       <r>   74.6664    0.0000 </r>
       <r>   76.1239    0.0000 </r>
       <r>   78.1922    0.0000 </r>
       <r>   80.1400    0.0000 </r>
       <r>   81.3830    0.0000 </r>
       <r>   82.1656    0.0000 </r>
       <r>   83.4843    0.0000 </r>
       <r>   88.4926    0.0000 </r>
       <r>   88.6228    0.0000 </r>
       <r>   92.1275    0.0000 </r>
       <r>   94.8799    0.0000 </r>
       <r>   96.5895    0.0000 </r>
       <r>   98.1658    0.0000 </r>
       <r>   99.9167    0.0000 </r>
       <r>  100.5954    0.0000 </r>
       <r>  103.7034    0.0000 </r>
       <r>  104.5772    0.0000 </r>
      </set>
      <set comment="kpoint 13">
       <r>    1.1878    1.0000 </r>
       <r>    6.6742    1.0095 </r>
       <r>   15.8199    0.0000 </r>
       <r>   18.7107    0.0000 </r>
       <r>   20.4698    0.0000 </r>
       <r>   20.8463    0.0000 </r>
       <r>   23.7274    0.0000 </r>
       <r>   26.4145    0.0000 </r>
       <r>   29.2325    0.0000 </r>
       <r>   31.3130    0.0000 </r>
       <r>   38.1071    0.0000 </r>
       <r>   39.3517    0.0000 </r>
       <r>   42.8032    0.0000 </r>
       <r>   45.2727    0.0000 </r>
       <r>   46.5745    0.0000 </r>
       <r>   48.6872    0.0000 </r>
       <r>   49.4240    0.0000 </r>
       <r>   53.6079    0.0000 </r>
       <r>   55.5302    0.0000 </r>
       <r>   55.7055    0.0000 </r>
       <r>   55.7998    0.0000 </r>
       <r>   57.7239    0.0000 </r>
       <r>   59.1576    0.0000 </r>
       <r>   60.5252    0.0000 </r>
       <r>   60.9371    0.0000 </r>
       <r>   62.7464    0.0000 </r>
       <r>   64.9051    0.0000 </r>
       <r>   68.6676    0.0000 </r>
       <r>   69.3655    0.0000 </r>
       <r>   70.1680    0.0000 </r>
       <r>   71.3541    0.0000 </r>
       <r>   75.3283    0.0000 </r>
       <r>   76.4564    0.0000 </r>
       <r>   78.7476    0.0000 </r>
       <r>   79.8149    0.0000 </r>
       <r>   81.7440    0.0000 </r>
       <r>   82.9756    0.0000 </r>
       <r>   83.6703    0.0000 </r>
       <r>   87.8941    0.0000 </r>
       <r>   88.0842    0.0000 </r>
       <r>   92.9084    0.0000 </r>
       <r>   93.6516    0.0000 </r>
       <r>   94.8157    0.0000 </r>
       <r>   95.8889    0.0000 </r>
       <r>   98.7953    0.0000 </r>
       <r>  100.1715    0.0000 </r>
       <r>  102.3874    0.0000 </r>
       <r>  106.0336    0.0000 </r>
      </set>
      <set comment="kpoint 14">
       <r>   -0.4882    1.0000 </r>
       <r>    9.6456   -0.0577 </r>
       <r>   15.7543    0.0000 </r>
       <r>   20.0181    0.0000 </r>
       <r>   20.7849    0.0000 </r>
       <r>   21.8410    0.0000 </r>
       <r>   23.5149    0.0000 </r>
       <r>   26.5209    0.0000 </r>
       <r>   27.4025    0.0000 </r>
       <r>   29.3518    0.0000 </r>
       <r>   35.3831    0.0000 </r>
       <r>   39.7890    0.0000 </r>
       <r>   42.2392    0.0000 </r>
       <r>   43.8472    0.0000 </r>
       <r>   43.9655    0.0000 </r>
       <r>   48.0319    0.0000 </r>
       <r>   48.8535    0.0000 </r>
       <r>   51.9624    0.0000 </r>
       <r>   55.6978    0.0000 </r>
       <r>   55.9189    0.0000 </r>
       <r>   57.1741    0.0000 </r>
       <r>   57.8575    0.0000 </r>
       <r>   59.9972    0.0000 </r>
       <r>   61.3998    0.0000 </r>
       <r>   64.0331    0.0000 </r>
       <r>   64.9507    0.0000 </r>
       <r>   68.3822    0.0000 </r>
       <r>   70.3356    0.0000 </r>
       <r>   70.5907    0.0000 </r>
       <r>   72.6817    0.0000 </r>
       <r>   75.2129    0.0000 </r>
       <r>   75.9045    0.0000 </r>
       <r>   77.6257    0.0000 </r>
       <r>   78.8479    0.0000 </r>
       <r>   79.3918    0.0000 </r>
       <r>   82.9839    0.0000 </r>
       <r>   84.3272    0.0000 </r>
       <r>   84.6776    0.0000 </r>
       <r>   86.1398    0.0000 </r>
       <r>   86.7693    0.0000 </r>
       <r>   90.8191    0.0000 </r>
       <r>   91.1148    0.0000 </r>
       <r>   94.5308    0.0000 </r>
       <r>   95.2498    0.0000 </r>
       <r>   96.3019    0.0000 </r>
       <r>   99.7327    0.0000 </r>
       <r>  100.6419    0.0000 </r>
       <r>  104.0420    0.0000 </r>
      </set>
      <set comment="kpoint 15">
       <r>   -1.7395    1.0000 </r>
       <r>   12.9264    0.0000 </r>
       <r>   16.1030    0.0000 </r>
       <r>   20.9368    0.0000 </r>
       <r>   21.7509    0.0000 </r>
       <r>   23.4403    0.0000 </r>
       <r>   23.6122    0.0000 </r>
       <r>   24.2057    0.0000 </r>
       <r>   26.3097    0.0000 </r>
       <r>   29.6154    0.0000 </r>
       <r>   32.1552    0.0000 </r>
       <r>   36.0531    0.0000 </r>
       <r>   38.4267    0.0000 </r>
       <r>   40.4574    0.0000 </r>
       <r>   45.9036    0.0000 </r>
       <r>   47.6913    0.0000 </r>
       <r>   51.8739    0.0000 </r>
       <r>   53.7812    0.0000 </r>
       <r>   55.5817    0.0000 </r>
       <r>   55.8299    0.0000 </r>
       <r>   57.1667    0.0000 </r>
       <r>   58.9539    0.0000 </r>
       <r>   59.4277    0.0000 </r>
       <r>   61.0856    0.0000 </r>
       <r>   66.9978    0.0000 </r>
       <r>   68.5552    0.0000 </r>
       <r>   69.4696    0.0000 </r>
       <r>   71.0068    0.0000 </r>
       <r>   73.8320    0.0000 </r>
       <r>   74.8345    0.0000 </r>
       <r>   76.9718    0.0000 </r>
       <r>   77.8724    0.0000 </r>
       <r>   78.8611    0.0000 </r>
       <r>   79.1977    0.0000 </r>
       <r>   82.7520    0.0000 </r>
       <r>   83.1943    0.0000 </r>
       <r>   84.6605    0.0000 </r>
       <r>   85.3355    0.0000 </r>
       <r>   86.6851    0.0000 </r>
       <r>   87.0123    0.0000 </r>
       <r>   89.1573    0.0000 </r>
       <r>   90.7678    0.0000 </r>
       <r>   91.6596    0.0000 </r>
       <r>   94.4600    0.0000 </r>
       <r>   96.4233    0.0000 </r>
       <r>   97.1799    0.0000 </r>
       <r>   99.3798    0.0000 </r>
       <r>  101.4734    0.0000 </r>
      </set>
      <set comment="kpoint 16">
       <r>   -2.5551    1.0000 </r>
       <r>   16.1359    0.0000 </r>
       <r>   17.1422    0.0000 </r>
       <r>   21.1207    0.0000 </r>
       <r>   22.3030    0.0000 </r>
       <r>   23.3734    0.0000 </r>
       <r>   24.1092    0.0000 </r>
       <r>   24.4758    0.0000 </r>
       <r>   25.4822    0.0000 </r>
       <r>   28.8066    0.0000 </r>
       <r>   30.2751    0.0000 </r>
       <r>   33.2766    0.0000 </r>
       <r>   35.6235    0.0000 </r>
       <r>   36.9547    0.0000 </r>
       <r>   43.3411    0.0000 </r>
       <r>   52.1678    0.0000 </r>
       <r>   55.1710    0.0000 </r>
       <r>   55.6430    0.0000 </r>
       <r>   55.6825    0.0000 </r>
       <r>   55.6908    0.0000 </r>
       <r>   56.9745    0.0000 </r>
       <r>   59.3054    0.0000 </r>
       <r>   59.8588    0.0000 </r>
       <r>   60.9619    0.0000 </r>
       <r>   68.6193    0.0000 </r>
       <r>   68.9790    0.0000 </r>
       <r>   69.5370    0.0000 </r>
       <r>   71.6130    0.0000 </r>
       <r>   73.0593    0.0000 </r>
       <r>   73.7171    0.0000 </r>
       <r>   80.0725    0.0000 </r>
       <r>   80.4037    0.0000 </r>
       <r>   80.7909    0.0000 </r>
       <r>   81.9535    0.0000 </r>
       <r>   82.4439    0.0000 </r>
       <r>   86.1080    0.0000 </r>
       <r>   86.2342    0.0000 </r>
       <r>   86.8236    0.0000 </r>
       <r>   87.4487    0.0000 </r>
       <r>   89.8946    0.0000 </r>
       <r>   90.7818    0.0000 </r>
       <r>   92.2644    0.0000 </r>
       <r>   92.3865    0.0000 </r>
       <r>   92.9581    0.0000 </r>
       <r>   93.3308    0.0000 </r>
       <r>   95.7462    0.0000 </r>
       <r>   97.7169    0.0000 </r>
       <r>   98.7417    0.0000 </r>
      </set>
      <set comment="kpoint 17">
       <r>   -1.9615    1.0000 </r>
       <r>   16.6291    0.0000 </r>
       <r>   16.6291    0.0000 </r>
       <r>   16.7617    0.0000 </r>
       <r>   19.5893    0.0000 </r>
       <r>   19.9622    0.0000 </r>
       <r>   27.5150    0.0000 </r>
       <r>   27.5150    0.0000 </r>
       <r>   28.4096    0.0000 </r>
       <r>   30.5399    0.0000 </r>
       <r>   32.5173    0.0000 </r>
       <r>   33.9977    0.0000 </r>
       <r>   33.9977    0.0000 </r>
       <r>   38.7744    0.0000 </r>
       <r>   46.5382    0.0000 </r>
       <r>   51.7486    0.0000 </r>
       <r>   51.7486    0.0000 </r>
       <r>   52.4485    0.0000 </r>
       <r>   54.5883    0.0000 </r>
       <r>   56.8263    0.0000 </r>
       <r>   56.8263    0.0000 </r>
       <r>   56.9235    0.0000 </r>
       <r>   59.9396    0.0000 </r>
       <r>   61.6780    0.0000 </r>
       <r>   66.8683    0.0000 </r>
       <r>   70.0596    0.0000 </r>
       <r>   70.0596    0.0000 </r>
       <r>   72.4742    0.0000 </r>
       <r>   72.4742    0.0000 </r>
       <r>   76.2007    0.0000 </r>
       <r>   76.2575    0.0000 </r>
       <r>   78.0552    0.0000 </r>
       <r>   78.2042    0.0000 </r>
       <r>   78.2042    0.0000 </r>
       <r>   82.4906    0.0000 </r>
       <r>   84.1364    0.0000 </r>
       <r>   87.3599    0.0000 </r>
       <r>   87.3599    0.0000 </r>
       <r>   88.1978    0.0000 </r>
       <r>   89.8707    0.0000 </r>
       <r>   91.7731    0.0000 </r>
       <r>   91.7731    0.0000 </r>
       <r>   93.5199    0.0000 </r>
       <r>   93.6295    0.0000 </r>
       <r>   93.6295    0.0000 </r>
       <r>   93.7502    0.0000 </r>
       <r>   98.1463    0.0000 </r>
       <r>   98.2556    0.0000 </r>
      </set>
      <set comment="kpoint 18">
       <r>   -1.1493    1.0000 </r>
       <r>   13.4108    0.0000 </r>
       <r>   15.9348    0.0000 </r>
       <r>   17.2243    0.0000 </r>
       <r>   17.5070    0.0000 </r>
       <r>   20.4893    0.0000 </r>
       <r>   27.4369    0.0000 </r>
       <r>   28.1391    0.0000 </r>
       <r>   29.8069    0.0000 </r>
       <r>   31.3793    0.0000 </r>
       <r>   33.6730    0.0000 </r>
       <r>   36.1716    0.0000 </r>
       <r>   37.4458    0.0000 </r>
       <r>   40.5698    0.0000 </r>
       <r>   47.2923    0.0000 </r>
       <r>   49.0698    0.0000 </r>
       <r>   49.5039    0.0000 </r>
       <r>   52.6988    0.0000 </r>
       <r>   54.4317    0.0000 </r>
       <r>   55.8397    0.0000 </r>
       <r>   56.8384    0.0000 </r>
       <r>   57.1795    0.0000 </r>
       <r>   59.8295    0.0000 </r>
       <r>   61.0000    0.0000 </r>
       <r>   64.7680    0.0000 </r>
       <r>   68.4350    0.0000 </r>
       <r>   68.8439    0.0000 </r>
       <r>   71.0144    0.0000 </r>
       <r>   71.3057    0.0000 </r>
       <r>   73.8668    0.0000 </r>
       <r>   76.9300    0.0000 </r>
       <r>   77.2881    0.0000 </r>
       <r>   77.8359    0.0000 </r>
       <r>   79.3652    0.0000 </r>
       <r>   81.9964    0.0000 </r>
       <r>   82.7806    0.0000 </r>
       <r>   84.8859    0.0000 </r>
       <r>   86.0175    0.0000 </r>
       <r>   87.6904    0.0000 </r>
       <r>   89.9544    0.0000 </r>
       <r>   90.2077    0.0000 </r>
       <r>   91.9107    0.0000 </r>
       <r>   92.7509    0.0000 </r>
       <r>   93.6304    0.0000 </r>
       <r>   94.5511    0.0000 </r>
       <r>   98.0273    0.0000 </r>
       <r>   98.2872    0.0000 </r>
       <r>   98.9268    0.0000 </r>
      </set>
      <set comment="kpoint 19">
       <r>    0.0966    1.0000 </r>
       <r>   10.1736   -0.0476 </r>
       <r>   15.6213    0.0000 </r>
       <r>   15.6227    0.0000 </r>
       <r>   17.2761    0.0000 </r>
       <r>   22.6119    0.0000 </r>
       <r>   26.0846    0.0000 </r>
       <r>   28.1619    0.0000 </r>
       <r>   29.9223    0.0000 </r>
       <r>   31.9541    0.0000 </r>
       <r>   36.9941    0.0000 </r>
       <r>   39.4933    0.0000 </r>
       <r>   42.2203    0.0000 </r>
       <r>   42.8716    0.0000 </r>
       <r>   43.3739    0.0000 </r>
       <r>   45.9881    0.0000 </r>
       <r>   52.4531    0.0000 </r>
       <r>   53.5285    0.0000 </r>
       <r>   54.3628    0.0000 </r>
       <r>   54.6292    0.0000 </r>
       <r>   56.2512    0.0000 </r>
       <r>   56.9089    0.0000 </r>
       <r>   58.9672    0.0000 </r>
       <r>   60.7965    0.0000 </r>
       <r>   62.5116    0.0000 </r>
       <r>   65.4593    0.0000 </r>
       <r>   66.1812    0.0000 </r>
       <r>   68.3784    0.0000 </r>
       <r>   69.6857    0.0000 </r>
       <r>   72.8718    0.0000 </r>
       <r>   74.9237    0.0000 </r>
       <r>   75.4952    0.0000 </r>
       <r>   77.6882    0.0000 </r>
       <r>   78.3226    0.0000 </r>
       <r>   81.1712    0.0000 </r>
       <r>   81.4654    0.0000 </r>
       <r>   83.3453    0.0000 </r>
       <r>   87.2475    0.0000 </r>
       <r>   87.6468    0.0000 </r>
       <r>   90.2838    0.0000 </r>
       <r>   91.8913    0.0000 </r>
       <r>   93.0689    0.0000 </r>
       <r>   93.3310    0.0000 </r>
       <r>   94.6694    0.0000 </r>
       <r>   97.4509    0.0000 </r>
       <r>   98.2591    0.0000 </r>
       <r>   99.6400    0.0000 </r>
       <r>  101.7054    0.0000 </r>
      </set>
      <set comment="kpoint 20">
       <r>    1.7644    1.0000 </r>
       <r>    7.2258    0.8247 </r>
       <r>   14.2166    0.0000 </r>
       <r>   15.6927    0.0000 </r>
       <r>   17.4279    0.0000 </r>
       <r>   24.8538    0.0000 </r>
       <r>   25.1540    0.0000 </r>
       <r>   28.0071    0.0000 </r>
       <r>   29.1360    0.0000 </r>
       <r>   33.3388    0.0000 </r>
       <r>   39.6326    0.0000 </r>
       <r>   39.8725    0.0000 </r>
       <r>   41.4557    0.0000 </r>
       <r>   44.8118    0.0000 </r>
       <r>   46.4877    0.0000 </r>
       <r>   48.0605    0.0000 </r>
       <r>   51.2736    0.0000 </r>
       <r>   53.3013    0.0000 </r>
       <r>   54.3789    0.0000 </r>
       <r>   54.8003    0.0000 </r>
       <r>   56.2875    0.0000 </r>
       <r>   56.9345    0.0000 </r>
       <r>   57.8661    0.0000 </r>
       <r>   60.3530    0.0000 </r>
       <r>   61.2080    0.0000 </r>
       <r>   63.4714    0.0000 </r>
       <r>   63.9263    0.0000 </r>
       <r>   65.5621    0.0000 </r>
       <r>   67.0055    0.0000 </r>
       <r>   69.7310    0.0000 </r>
       <r>   72.5684    0.0000 </r>
       <r>   74.7816    0.0000 </r>
       <r>   76.5317    0.0000 </r>
       <r>   76.9323    0.0000 </r>
       <r>   80.3052    0.0000 </r>
       <r>   81.6012    0.0000 </r>
       <r>   84.9619    0.0000 </r>
       <r>   87.5827    0.0000 </r>
       <r>   87.8110    0.0000 </r>
       <r>   90.4690    0.0000 </r>
       <r>   93.0049    0.0000 </r>
       <r>   93.5984    0.0000 </r>
       <r>   96.4005    0.0000 </r>
       <r>   96.8853    0.0000 </r>
       <r>   98.8029    0.0000 </r>
       <r>  100.3736    0.0000 </r>
       <r>  100.6530    0.0000 </r>
       <r>  102.7005    0.0000 </r>
      </set>
      <set comment="kpoint 21">
       <r>    3.8257    1.0000 </r>
       <r>    4.6455    1.0000 </r>
       <r>   13.2089    0.0000 </r>
       <r>   16.1451    0.0000 </r>
       <r>   17.9542    0.0000 </r>
       <r>   23.9315    0.0000 </r>
       <r>   26.4081    0.0000 </r>
       <r>   28.7899    0.0000 </r>
       <r>   29.3989    0.0000 </r>
       <r>   31.8347    0.0000 </r>
       <r>   37.9402    0.0000 </r>
       <r>   40.7291    0.0000 </r>
       <r>   42.5918    0.0000 </r>
       <r>   47.2093    0.0000 </r>
       <r>   49.1858    0.0000 </r>
       <r>   49.7594    0.0000 </r>
       <r>   50.1266    0.0000 </r>
       <r>   54.2603    0.0000 </r>
       <r>   54.6208    0.0000 </r>
       <r>   54.9061    0.0000 </r>
       <r>   55.5225    0.0000 </r>
       <r>   56.3742    0.0000 </r>
       <r>   57.5432    0.0000 </r>
       <r>   59.2444    0.0000 </r>
       <r>   61.4409    0.0000 </r>
       <r>   61.6507    0.0000 </r>
       <r>   62.9166    0.0000 </r>
       <r>   63.5317    0.0000 </r>
       <r>   65.4875    0.0000 </r>
       <r>   67.1285    0.0000 </r>
       <r>   72.5653    0.0000 </r>
       <r>   75.1095    0.0000 </r>
       <r>   76.4411    0.0000 </r>
       <r>   76.5757    0.0000 </r>
       <r>   79.6316    0.0000 </r>
       <r>   80.7405    0.0000 </r>
       <r>   85.1576    0.0000 </r>
       <r>   87.6240    0.0000 </r>
       <r>   88.3927    0.0000 </r>
       <r>   89.3343    0.0000 </r>
       <r>   93.1046    0.0000 </r>
       <r>   94.8333    0.0000 </r>
       <r>   97.7753    0.0000 </r>
       <r>   98.6995    0.0000 </r>
       <r>   99.6256    0.0000 </r>
       <r>  100.0422    0.0000 </r>
       <r>  102.8785    0.0000 </r>
       <r>  106.2047    0.0000 </r>
      </set>
      <set comment="kpoint 22">
       <r>    2.4129    1.0000 </r>
       <r>    6.3066    1.0782 </r>
       <r>   12.6162    0.0000 </r>
       <r>   16.9801    0.0000 </r>
       <r>   18.8752    0.0000 </r>
       <r>   23.3613    0.0000 </r>
       <r>   25.9760    0.0000 </r>
       <r>   28.9255    0.0000 </r>
       <r>   29.8000    0.0000 </r>
       <r>   30.6539    0.0000 </r>
       <r>   36.4163    0.0000 </r>
       <r>   41.2837    0.0000 </r>
       <r>   43.8097    0.0000 </r>
       <r>   44.9459    0.0000 </r>
       <r>   48.3980    0.0000 </r>
       <r>   49.8842    0.0000 </r>
       <r>   51.5196    0.0000 </r>
       <r>   54.2167    0.0000 </r>
       <r>   54.9543    0.0000 </r>
       <r>   55.0768    0.0000 </r>
       <r>   55.9438    0.0000 </r>
       <r>   55.9968    0.0000 </r>
       <r>   58.5775    0.0000 </r>
       <r>   59.2498    0.0000 </r>
       <r>   60.3900    0.0000 </r>
       <r>   60.5154    0.0000 </r>
       <r>   63.9039    0.0000 </r>
       <r>   64.0672    0.0000 </r>
       <r>   65.7348    0.0000 </r>
       <r>   70.0361    0.0000 </r>
       <r>   73.4780    0.0000 </r>
       <r>   74.4135    0.0000 </r>
       <r>   76.6360    0.0000 </r>
       <r>   77.2630    0.0000 </r>
       <r>   79.1236    0.0000 </r>
       <r>   80.9179    0.0000 </r>
       <r>   84.6227    0.0000 </r>
       <r>   87.1423    0.0000 </r>
       <r>   87.9049    0.0000 </r>
       <r>   89.7257    0.0000 </r>
       <r>   90.2623    0.0000 </r>
       <r>   95.3914    0.0000 </r>
[...]
       <set comment="band 2">
        <r>  0.0791  0.0240  0.0004  0.1389  0.0000  0.0000  0.0000  0.0000  0.0000 </r>
       </set>
       <set comment="band 3">
        <r>  0.0575  0.0774  0.0035  0.0633  0.0000  0.0000  0.0000  0.0000  0.0000 </r>
       </set>
       <set comment="band 4">
        <r>  0.2139  0.0064  0.1193  0.0134  0.0000  0.0000  0.0000  0.0000  0.0000 </r>
       </set>
       <set comment="band 5">
        <r>  0.0127  0.1192  0.0101  0.0650  0.0000  0.0000  0.0000  0.0000  0.0000 </r>
       </set>
       <set comment="band 6">
        <r>  0.0341  0.0896  0.0329  0.0044  0.0000  0.0000  0.0000  0.0000  0.0000 </r>
       </set>
       <set comment="band 7">
        <r>  0.0401  0.1196  0.0002  0.0387  0.0000  0.0000  0.0000  0.0000  0.0000 </r>
       </set>
       <set comment="band 8">
        <r>  0.0195  0.0409  0.0775  0.0080  0.0000  0.0000  0.0000  0.0000  0.0000 </r>
       </set>
       <set comment="band 9">
        <r>  0.0099  0.0004  0.0107  0.0552  0.0000  0.0000  0.0000  0.0000  0.0000 </r>
       </set>
       <set comment="band 10">
        <r>  0.0004  0.0032  0.0105  0.0086  0.0000  0.0000  0.0000  0.0000  0.0000 </r>
       </set>
       <set comment="band 11">
        <r>  0.0705  0.0048  0.0472  0.0000  0.0000  0.0000  0.0000  0.0000  0.0000 </r>
       </set>
       <set comment="band 12">
        <r>  0.0459  0.0029  0.0013  0.0121  0.0000  0.0000  0.0000  0.0000  0.0000 </r>
       </set>
       <set comment="band 13">
        <r>  0.0002  0.0014  0.0455  0.1084  0.0000  0.0000  0.0000  0.0000  0.0000 </r>
       </set>
       <set comment="band 14">
        <r>  0.0101  0.0102  0.0148  0.0296  0.0000  0.0000  0.0000  0.0000  0.0000 </r>
       </set>
       <set comment="band 15">
        <r>  0.0989  0.0000  0.0986  0.0413  0.0000  0.0000  0.0000  0.0000  0.0000 </r>
       </set>
       <set comment="band 16">
        <r>  0.0330  0.0645  0.1345  0.0672  0.0000  0.0000  0.0000  0.0000  0.0000 </r>
       </set>
       <set comment="band 17">
        <r>  0.2878  0.0464  0.2711  0.0336  0.0000  0.0000  0.0000  0.0000  0.0000 </r>
       </set>
       <set comment="band 18">
        <r>  0.3784  0.0007  0.0709  0.0809  0.0000  0.0000  0.0000  0.0000  0.0000 </r>
       </set>
       <set comment="band 19">
        <r>  0.2009  0.5235  0.0033  0.9029  0.0000  0.0000  0.0000  0.0000  0.0000 </r>
       </set>
       <set comment="band 20">
        <r>  5.9734  0.2551  0.3475  0.0016  0.0000  0.0000  0.0000  0.0000  0.0000 </r>
       </set>
       <set comment="band 21">
        <r>  0.6783  2.1036  0.0861  0.5220  0.0000  0.0000  0.0000  0.0000  0.0000 </r>
       </set>
       <set comment="band 22">
        <r>  1.9817  0.0034  0.0184  0.1870  0.0000  0.0000  0.0000  0.0000  0.0000 </r>
       </set>
       <set comment="band 23">
        <r>  0.0004  0.2352  1.9789  0.1847  0.0000  0.0000  0.0000  0.0000  0.0000 </r>
       </set>
       <set comment="band 24">
        <r>  0.4150  0.0052  1.1441  2.0073  0.0000  0.0000  0.0000  0.0000  0.0000 </r>
       </set>
       <set comment="band 25">
        <r>  0.0224  0.0936  0.5533  0.4599  0.0000  0.0000  0.0000  0.0000  0.0000 </r>
       </set>
       <set comment="band 26">
        <r>  0.0627  0.2764  0.1567  0.4254  0.0000  0.0000  0.0000  0.0000  0.0000 </r>
       </set>
       <set comment="band 27">
        <r>  0.0058  0.3933  0.0011  0.0530  0.0000  0.0000  0.0000  0.0000  0.0000 </r>
       </set>
       <set comment="band 28">
        <r>  0.0177  0.4670  0.0047  0.0058  0.0000  0.0000  0.0000  0.0000  0.0000 </r>
       </set>
       <set comment="band 29">
        <r>  0.2128  0.7691  0.0171  0.0502  0.0000  0.0000  0.0000  0.0000  0.0000 </r>
       </set>
       <set comment="band 30">
        <r>  0.0230  0.0029  0.0124  0.0701  0.0000  0.0000  0.0000  0.0000  0.0000 </r>
       </set>
       <set comment="band 31">
        <r>  0.0821  0.0717  0.0560  0.0775  0.0000  0.0000  0.0000  0.0000  0.0000 </r>
       </set>
       <set comment="band 32">
        <r>  0.0460  0.0088  0.4379  0.0066  0.0000  0.0000  0.0000  0.0000  0.0000 </r>
       </set>
       <set comment="band 33">
        <r>  0.0877  0.0149  0.0299  0.1500  0.0000  0.0000  0.0000  0.0000  0.0000 </r>
       </set>
       <set comment="band 34">
        <r>  0.6274  0.0075  0.1120  0.0048  0.0000  0.0000  0.0000  0.0000  0.0000 </r>
       </set>
       <set comment="band 35">
        <r>  0.0153  0.0707  0.0120  0.0042  0.0000  0.0000  0.0000  0.0000  0.0000 </r>
       </set>
       <set comment="band 36">
        <r>  0.0166  0.0283  0.0154  0.1038  0.0000  0.0000  0.0000  0.0000  0.0000 </r>
       </set>
       <set comment="band 37">
        <r>  0.0692  0.0285  0.0051  0.0400  0.0000  0.0000  0.0000  0.0000  0.0000 </r>
       </set>
       <set comment="band 38">
        <r>  0.0397  0.0674  0.0666  0.0450  0.0000  0.0000  0.0000  0.0000  0.0000 </r>
       </set>
       <set comment="band 39">
        <r>  0.0289  0.0152  0.0140  0.0000  0.0000  0.0000  0.0000  0.0000  0.0000 </r>
       </set>
       <set comment="band 40">
        <r>  0.0012  0.0042  0.0274  0.0095  0.0000  0.0000  0.0000  0.0000  0.0000 </r>
       </set>
       <set comment="band 41">
        <r>  0.0378  0.0029  0.0047  0.0291  0.0000  0.0000  0.0000  0.0000  0.0000 </r>
       </set>
       <set comment="band 42">
        <r>  0.0069  0.0022  0.0312  0.0253  0.0000  0.0000  0.0000  0.0000  0.0000 </r>
       </set>
       <set comment="band 43">
        <r>  0.0181  0.0015  0.0048  0.0920  0.0000  0.0000  0.0000  0.0000  0.0000 </r>
       </set>
       <set comment="band 44">
        <r>  0.0164  0.1508  0.0001  0.0022  0.0000  0.0000  0.0000  0.0000  0.0000 </r>
       </set>
       <set comment="band 45">
        <r>  0.0312  0.0076  0.0008  0.0696  0.0000  0.0000  0.0000  0.0000  0.0000 </r>
       </set>
       <set comment="band 46">
        <r>  0.0001  0.0476  0.0462  0.0025  0.0000  0.0000  0.0000  0.0000  0.0000 </r>
       </set>
       <set comment="band 47">
        <r>  0.0178  0.0002  0.0705  0.0071  0.0000  0.0000  0.0000  0.0000  0.0000 </r>
       </set>
       <set comment="band 48">
        <r>  0.0000  0.0287  0.0119  0.0001  0.0000  0.0000  0.0000  0.0000  0.0000 </r>
       </set>
      </set>
      <set comment="kpoint 55">
       <set comment="band 1">
        <r>  0.0824  0.0144  0.1490  0.0000  0.0000  0.0000  0.0000  0.0000  0.0000 </r>
       </set>
       <set comment="band 2">
        <r>  0.0000  0.0000  0.0000  0.2075  0.0000  0.0000  0.0000  0.0000  0.0000 </r>
       </set>
       <set comment="band 3">
        <r>  0.0780  0.0530  0.0743  0.0000  0.0000  0.0000  0.0000  0.0000  0.0000 </r>
       </set>
       <set comment="band 4">
        <r>  0.2987  0.0807  0.0097  0.0000  0.0000  0.0000  0.0000  0.0000  0.0000 </r>
       </set>
       <set comment="band 5">
        <r>  0.0000  0.0000  0.0000  0.1257  0.0000  0.0000  0.0000  0.0000  0.0000 </r>
       </set>
       <set comment="band 6">
        <r>  0.0841  0.2423  0.0040  0.0000  0.0000  0.0000  0.0000  0.0000  0.0000 </r>
       </set>
       <set comment="band 7">
        <r>  0.0246  0.0391  0.0460  0.0000  0.0000  0.0000  0.0000  0.0000  0.0000 </r>
       </set>
       <set comment="band 8">
        <r>  0.0222  0.0709  0.0380  0.0000  0.0000  0.0000  0.0000  0.0000  0.0000 </r>
       </set>
       <set comment="band 9">
        <r>  0.0000  0.0000  0.0000  0.0230  0.0000  0.0000  0.0000  0.0000  0.0000 </r>
       </set>
       <set comment="band 10">
        <r>  0.0033  0.0000  0.0029  0.0000  0.0000  0.0000  0.0000  0.0000  0.0000 </r>
       </set>
       <set comment="band 11">
        <r>  0.0642  0.0197  0.0933  0.0000  0.0000  0.0000  0.0000  0.0000  0.0000 </r>
       </set>
       <set comment="band 12">
        <r>  0.0000  0.0000  0.0000  0.0735  0.0000  0.0000  0.0000  0.0000  0.0000 </r>
       </set>
       <set comment="band 13">
        <r>  0.0000  0.0000  0.0000  0.1779  0.0000  0.0000  0.0000  0.0000  0.0000 </r>
       </set>
       <set comment="band 14">
        <r>  0.0185  0.0101  0.0499  0.0000  0.0000  0.0000  0.0000  0.0000  0.0000 </r>
       </set>
       <set comment="band 15">
        <r>  0.1197  0.0121  0.0222  0.0000  0.0000  0.0000  0.0000  0.0000  0.0000 </r>
       </set>
       <set comment="band 16">
        <r>  0.0000  0.0000  0.0000  0.0213  0.0000  0.0000  0.0000  0.0000  0.0000 </r>
       </set>
       <set comment="band 17">
        <r>  0.1209  0.0294  0.5916  0.0000  0.0000  0.0000  0.0000  0.0000  0.0000 </r>
       </set>
       <set comment="band 18">
        <r>  0.0000  0.0000  0.0000  0.0319  0.0000  0.0000  0.0000  0.0000  0.0000 </r>
       </set>
       <set comment="band 19">
        <r>  2.6022  0.1858  0.1337  0.0000  0.0000  0.0000  0.0000  0.0000  0.0000 </r>
       </set>
       <set comment="band 20">
        <r>  1.1357  1.3770  0.0167  0.0000  0.0000  0.0000  0.0000  0.0000  0.0000 </r>
       </set>
       <set comment="band 21">
        <r>  0.0000  0.0000  0.0000  2.4451  0.0000  0.0000  0.0000  0.0000  0.0000 </r>
       </set>
       <set comment="band 22">
        <r>  5.6407  1.3531  0.0218  0.0000  0.0000  0.0000  0.0000  0.0000  0.0000 </r>
       </set>
       <set comment="band 23">
        <r>  0.0008  0.0769  3.1698  0.0000  0.0000  0.0000  0.0000  0.0000  0.0000 </r>
       </set>
       <set comment="band 24">
        <r>  0.0000  0.0000  0.0000  1.3945  0.0000  0.0000  0.0000  0.0000  0.0000 </r>
       </set>
       <set comment="band 25">
        <r>  0.1775  0.0573  0.7920  0.0000  0.0000  0.0000  0.0000  0.0000  0.0000 </r>
       </set>
       <set comment="band 26">
        <r>  0.3368  1.4478  0.1476  0.0000  0.0000  0.0000  0.0000  0.0000  0.0000 </r>
       </set>
       <set comment="band 27">
        <r>  0.0000  0.0000  0.0000  1.0532  0.0000  0.0000  0.0000  0.0000  0.0000 </r>
       </set>
       <set comment="band 28">
        <r>  0.0000  0.0000  0.0000  0.1632  0.0000  0.0000  0.0000  0.0000  0.0000 </r>
       </set>
       <set comment="band 29">
        <r>  0.3211  0.3079  0.2490  0.0000  0.0000  0.0000  0.0000  0.0000  0.0000 </r>
       </set>
       <set comment="band 30">
        <r>  0.0006  0.3568  0.0505  0.0000  0.0000  0.0000  0.0000  0.0000  0.0000 </r>
       </set>
       <set comment="band 31">
        <r>  0.0000  0.0000  0.0000  0.0431  0.0000  0.0000  0.0000  0.0000  0.0000 </r>
       </set>
       <set comment="band 32">
        <r>  0.1604  0.0010  0.3333  0.0000  0.0000  0.0000  0.0000  0.0000  0.0000 </r>
       </set>
       <set comment="band 33">
        <r>  0.3861  0.1476  0.0000  0.0000  0.0000  0.0000  0.0000  0.0000  0.0000 </r>
       </set>
       <set comment="band 34">
        <r>  0.0000  0.0000  0.0000  0.0027  0.0000  0.0000  0.0000  0.0000  0.0000 </r>
       </set>
       <set comment="band 35">
        <r>  0.2570  0.0100  0.0294  0.0000  0.0000  0.0000  0.0000  0.0000  0.0000 </r>
       </set>
       <set comment="band 36">
        <r>  0.0948  0.1080  0.1020  0.0000  0.0000  0.0000  0.0000  0.0000  0.0000 </r>
       </set>
       <set comment="band 37">
        <r>  0.0000  0.0000  0.0000  0.4437  0.0000  0.0000  0.0000  0.0000  0.0000 </r>
       </set>
       <set comment="band 38">
        <r>  0.0010  0.0389  0.0150  0.0000  0.0000  0.0000  0.0000  0.0000  0.0000 </r>
       </set>
       <set comment="band 39">
        <r>  0.0000  0.0000  0.0000  0.0076  0.0000  0.0000  0.0000  0.0000  0.0000 </r>
       </set>
       <set comment="band 40">
        <r>  0.0020  0.0192  0.0112  0.0000  0.0000  0.0000  0.0000  0.0000  0.0000 </r>
       </set>
       <set comment="band 41">
        <r>  0.0000  0.0000  0.0000  0.0202  0.0000  0.0000  0.0000  0.0000  0.0000 </r>
       </set>
       <set comment="band 42">
        <r>  0.1131  0.0072  0.0666  0.0000  0.0000  0.0000  0.0000  0.0000  0.0000 </r>
       </set>
       <set comment="band 43">
        <r>  0.0102  0.1086  0.0454  0.0000  0.0000  0.0000  0.0000  0.0000  0.0000 </r>
       </set>
       <set comment="band 44">
        <r>  0.0472  0.0518  0.0006  0.0000  0.0000  0.0000  0.0000  0.0000  0.0000 </r>
       </set>
       <set comment="band 45">
        <r>  0.0000  0.0000  0.0000  0.0706  0.0000  0.0000  0.0000  0.0000  0.0000 </r>
       </set>
       <set comment="band 46">
        <r>  0.0000  0.0000  0.0000  0.0066  0.0000  0.0000  0.0000  0.0000  0.0000 </r>
       </set>
       <set comment="band 47">
        <r>  0.0776  0.0130  0.0540  0.0000  0.0000  0.0000  0.0000  0.0000  0.0000 </r>
       </set>
       <set comment="band 48">
        <r>  0.0406  0.0469  0.0172  0.0000  0.0000  0.0000  0.0000  0.0000  0.0000 </r>
       </set>
      </set>
      <set comment="kpoint 56">
       <set comment="band 1">
        <r>  0.0481  0.0362  0.0000  0.1403  0.0000  0.0000  0.0000  0.0000  0.0000 </r>
       </set>
       <set comment="band 2">
        <r>  0.0000  0.0000  0.2244  0.0000  0.0000  0.0000  0.0000  0.0000  0.0000 </r>
       </set>
       <set comment="band 3">
        <r>  0.1923  0.0653  0.0000  0.0036  0.0000  0.0000  0.0000  0.0000  0.0000 </r>
       </set>
       <set comment="band 4">
        <r>  0.2292  0.0359  0.0000  0.0758  0.0000  0.0000  0.0000  0.0000  0.0000 </r>
       </set>
       <set comment="band 5">
        <r>  0.0233  0.0849  0.0000  0.0715  0.0000  0.0000  0.0000  0.0000  0.0000 </r>
       </set>
       <set comment="band 6">
        <r>  0.0056  0.2584  0.0000  0.0286  0.0000  0.0000  0.0000  0.0000  0.0000 </r>
       </set>
       <set comment="band 7">
        <r>  0.0000  0.0000  0.0970  0.0000  0.0000  0.0000  0.0000  0.0000  0.0000 </r>
       </set>
       <set comment="band 8">
        <r>  0.0903  0.0357  0.0000  0.0175  0.0000  0.0000  0.0000  0.0000  0.0000 </r>
       </set>
       <set comment="band 9">
        <r>  0.0000  0.0000  0.0235  0.0000  0.0000  0.0000  0.0000  0.0000  0.0000 </r>
       </set>
       <set comment="band 10">
        <r>  0.0091  0.0004  0.0000  0.0312  0.0000  0.0000  0.0000  0.0000  0.0000 </r>
       </set>
       <set comment="band 11">
        <r>  0.0000  0.0000  0.0006  0.0000  0.0000  0.0000  0.0000  0.0000  0.0000 </r>
       </set>
       <set comment="band 12">
        <r>  0.0742  0.0003  0.0000  0.1169  0.0000  0.0000  0.0000  0.0000  0.0000 </r>
       </set>
       <set comment="band 13">
        <r>  0.0000  0.0000  0.1881  0.0000  0.0000  0.0000  0.0000  0.0000  0.0000 </r>
       </set>
       <set comment="band 14">
        <r>  0.0010  0.0009  0.0000  0.0061  0.0000  0.0000  0.0000  0.0000  0.0000 </r>
       </set>
       <set comment="band 15">
        <r>  0.1411  0.0052  0.0000  0.1054  0.0000  0.0000  0.0000  0.0000  0.0000 </r>
       </set>
       <set comment="band 16">
        <r>  0.0000  0.0000  0.0142  0.0000  0.0000  0.0000  0.0000  0.0000  0.0000 </r>
       </set>
       <set comment="band 17">
        <r>  0.0000  0.0000  0.7374  0.0000  0.0000  0.0000  0.0000  0.0000  0.0000 </r>
       </set>
       <set comment="band 18">
        <r>  0.0887  0.3355  0.0000  0.6083  0.0000  0.0000  0.0000  0.0000  0.0000 </r>
       </set>
       <set comment="band 19">
        <r>  3.5367  1.5624  0.0000  0.1022  0.0000  0.0000  0.0000  0.0000  0.0000 </r>
       </set>
       <set comment="band 20">
        <r>  5.8152  0.8964  0.0000  0.2904  0.0000  0.0000  0.0000  0.0000  0.0000 </r>
       </set>
       <set comment="band 21">
        <r>  0.1930  0.2054  0.0000  1.6567  0.0000  0.0000  0.0000  0.0000  0.0000 </r>
       </set>
       <set comment="band 22">
        <r>  0.0000  0.0000  2.3548  0.0000  0.0000  0.0000  0.0000  0.0000  0.0000 </r>
       </set>
       <set comment="band 23">
        <r>  0.0415  0.1061  0.0000  1.1564  0.0000  0.0000  0.0000  0.0000  0.0000 </r>
       </set>
       <set comment="band 24">
        <r>  0.0000  0.0000  0.0846  0.0000  0.0000  0.0000  0.0000  0.0000  0.0000 </r>
       </set>
       <set comment="band 25">
        <r>  0.2048  0.2937  0.0000  0.0452  0.0000  0.0000  0.0000  0.0000  0.0000 </r>
       </set>
       <set comment="band 26">
        <r>  0.0000  0.0000  1.2580  0.0000  0.0000  0.0000  0.0000  0.0000  0.0000 </r>
       </set>
       <set comment="band 27">
        <r>  0.0000  0.0000  0.4231  0.0000  0.0000  0.0000  0.0000  0.0000  0.0000 </r>
       </set>
       <set comment="band 28">
        <r>  0.1322  0.0216  0.0000  1.1421  0.0000  0.0000  0.0000  0.0000  0.0000 </r>
       </set>
       <set comment="band 29">
        <r>  0.0863  1.6548  0.0000  0.0022  0.0000  0.0000  0.0000  0.0000  0.0000 </r>
       </set>
       <set comment="band 30">
        <r>  0.0000  0.0000  0.4469  0.0000  0.0000  0.0000  0.0000  0.0000  0.0000 </r>
       </set>
       <set comment="band 31">
        <r>  0.0279  0.2745  0.0000  0.1030  0.0000  0.0000  0.0000  0.0000  0.0000 </r>
       </set>
       <set comment="band 32">
        <r>  0.3793  0.0093  0.0000  0.1739  0.0000  0.0000  0.0000  0.0000  0.0000 </r>
       </set>
       <set comment="band 33">
        <r>  0.2534  0.0205  0.0000  0.0105  0.0000  0.0000  0.0000  0.0000  0.0000 </r>
       </set>
       <set comment="band 34">
        <r>  0.3751  0.0722  0.0000  0.0012  0.0000  0.0000  0.0000  0.0000  0.0000 </r>
       </set>
       <set comment="band 35">
        <r>  0.0000  0.0000  0.1628  0.0000  0.0000  0.0000  0.0000  0.0000  0.0000 </r>
       </set>
       <set comment="band 36">
        <r>  0.1177  0.0020  0.0000  0.0202  0.0000  0.0000  0.0000  0.0000  0.0000 </r>
       </set>
       <set comment="band 37">
        <r>  0.0000  0.0000  0.0888  0.0000  0.0000  0.0000  0.0000  0.0000  0.0000 </r>
       </set>
       <set comment="band 38">
        <r>  0.0405  0.0181  0.0000  0.3151  0.0000  0.0000  0.0000  0.0000  0.0000 </r>
       </set>
       <set comment="band 39">
        <r>  0.0017  0.0223  0.0000  0.0086  0.0000  0.0000  0.0000  0.0000  0.0000 </r>
       </set>
       <set comment="band 40">
        <r>  0.0000  0.0000  0.1397  0.0000  0.0000  0.0000  0.0000  0.0000  0.0000 </r>
       </set>
       <set comment="band 41">
        <r>  0.0094  0.1115  0.0000  0.0009  0.0000  0.0000  0.0000  0.0000  0.0000 </r>
       </set>
       <set comment="band 42">
        <r>  0.0000  0.0000  0.0052  0.0000  0.0000  0.0000  0.0000  0.0000  0.0000 </r>
       </set>
       <set comment="band 43">
        <r>  0.0000  0.0000  0.0077  0.0000  0.0000  0.0000  0.0000  0.0000  0.0000 </r>
       </set>
       <set comment="band 44">
        <r>  0.0292  0.0636  0.0000  0.0025  0.0000  0.0000  0.0000  0.0000  0.0000 </r>
       </set>
       <set comment="band 45">
        <r>  0.0064  0.0005  0.0000  0.0166  0.0000  0.0000  0.0000  0.0000  0.0000 </r>
       </set>
       <set comment="band 46">
        <r>  0.0000  0.0000  0.0137  0.0000  0.0000  0.0000  0.0000  0.0000  0.0000 </r>
       </set>
       <set comment="band 47">
        <r>  0.0760  0.1183  0.0000  0.0109  0.0000  0.0000  0.0000  0.0000  0.0000 </r>
       </set>
       <set comment="band 48">
        <r>  0.0000  0.0000  0.0644  0.0000  0.0000  0.0000  0.0000  0.0000  0.0000 </r>
       </set>
      </set>
     </set>
    </set>
   </array>
  </projected>
 </calculation>
 <structure name="finalpos" >
  <crystal>
   <varray name="basis" >
    <v>       0.00000000       2.02400000       2.02400000 </v>
    <v>       2.02400000       0.00000000       2.02400000 </v>
    <v>       2.02400000       2.02400000       0.00000000 </v>
   </varray>
   <i name="volume">     16.58293965 </i>
   <varray name="rec_basis" >
    <v>      -0.24703557       0.24703557       0.24703557 </v>
    <v>       0.24703557      -0.24703557       0.24703557 </v>
    <v>       0.24703557       0.24703557      -0.24703557 </v>
   </varray>
  </crystal>
  <varray name="positions" >
   <v>       0.00000000       0.00000000       0.00000000 </v>
  </varray>
 </structure>
</modeling>
