   1   1   1   0
  0.1658294E+02  0.2862368E-09  0.2862368E-09  0.2862368E-09  0.5000000E-15
   1.0000000000000000E-004
  CAR 
 unknown system                          
    115.87049151     -8.82053613  301      7.97339836      1.00000000
     -8.821  0.0000E+00  0.0000E+00  0.0000E+00  0.0000E+00
     -8.405  0.0000E+00  0.0000E+00  0.0000E+00  0.0000E+00
     -7.989  0.0000E+00  0.0000E+00  0.0000E+00  0.0000E+00
     -7.574  0.0000E+00  0.0000E+00  0.0000E+00  0.0000E+00
     -7.158  0.0000E+00  0.0000E+00  0.0000E+00  0.0000E+00
     -6.742  0.0000E+00  0.0000E+00  0.0000E+00  0.0000E+00
     -6.327  0.0000E+00  0.0000E+00  0.0000E+00  0.0000E+00
     -5.911  0.0000E+00  0.0000E+00  0.0000E+00  0.0000E+00
     -5.495  0.0000E+00  0.0000E+00  0.0000E+00  0.0000E+00
     -5.080  0.0000E+00  0.0000E+00  0.0000E+00  0.0000E+00
     -4.664  0.0000E+00  0.0000E+00  0.0000E+00  0.0000E+00
     -4.249  0.0000E+00  0.0000E+00  0.0000E+00  0.0000E+00
     -3.833  0.0000E+00  0.0000E+00  0.0000E+00  0.0000E+00
     -3.417  0.0000E+00  0.0000E+00  0.0000E+00  0.0000E+00
     -3.002  0.2114E-01  0.2121E-01  0.1701E-02  0.1714E-02
     -2.586  0.5247E-01  0.5249E-01  0.1542E-01  0.1545E-01
     -2.170  0.5681E-01  0.5683E-01  0.3630E-01  0.3634E-01
     -1.755  0.6853E-01  0.6854E-01  0.6250E-01  0.6255E-01
     -1.339  0.7907E-01  0.7909E-01  0.9311E-01  0.9316E-01
     -0.923  0.8744E-01  0.8745E-01  0.1276E+00  0.1277E+00
     -0.508  0.9574E-01  0.9575E-01  0.1658E+00  0.1659E+00
     -0.092  0.1036E+00  0.1036E+00  0.2072E+00  0.2073E+00
      0.323  0.1107E+00  0.1107E+00  0.2519E+00  0.2519E+00
      0.739  0.1179E+00  0.1179E+00  0.2993E+00  0.2994E+00
      1.155  0.1244E+00  0.1244E+00  0.3497E+00  0.3498E+00
      1.570  0.1309E+00  0.1309E+00  0.4028E+00  0.4029E+00
      1.986  0.1373E+00  0.1373E+00  0.4586E+00  0.4587E+00
      2.402  0.1434E+00  0.1434E+00  0.5169E+00  0.5170E+00
      2.817  0.1522E+00  0.1522E+00  0.5781E+00  0.5782E+00
      3.233  0.1670E+00  0.1670E+00  0.6457E+00  0.6458E+00
      3.649  0.1599E+00  0.1597E+00  0.7131E+00  0.7132E+00
      4.064  0.1579E+00  0.1581E+00  0.7755E+00  0.7756E+00
      4.480  0.1775E+00  0.1775E+00  0.8473E+00  0.8474E+00
      4.895  0.1961E+00  0.1962E+00  0.9229E+00  0.9230E+00
      5.311  0.1909E+00  0.1909E+00  0.1004E+01  0.1005E+01
      5.727  0.1817E+00  0.1789E+00  0.1082E+01  0.1083E+01
      6.142  0.1610E+00  0.1610E+00  0.1151E+01  0.1152E+01
      6.558  0.1966E+00  0.1965E+00  0.1224E+01  0.1224E+01
      6.974  0.2209E+00  0.2210E+00  0.1305E+01  0.1305E+01
      7.389  0.1936E+00  0.1936E+00  0.1390E+01  0.1390E+01
      7.805  0.1828E+00  0.1829E+00  0.1468E+01  0.1468E+01
      8.221  0.2172E+00  0.2173E+00  0.1550E+01  0.1550E+01
      8.636  0.2126E+00  0.2126E+00  0.1638E+01  0.1638E+01
      9.052  0.2135E+00  0.2135E+00  0.1725E+01  0.1725E+01
      9.467  0.2278E+00  0.2272E+00  0.1816E+01  0.1816E+01
      9.883  0.2188E+00  0.2189E+00  0.1907E+01  0.1907E+01
     10.299  0.2238E+00  0.2238E+00  0.1999E+01  0.1999E+01
     10.714  0.2345E+00  0.2346E+00  0.2095E+01  0.2096E+01
     11.130  0.2375E+00  0.2376E+00  0.2193E+01  0.2194E+01
     11.546  0.2410E+00  0.2410E+00  0.2292E+01  0.2293E+01
     11.961  0.2527E+00  0.2527E+00  0.2394E+01  0.2395E+01
     12.377  0.2512E+00  0.2513E+00  0.2499E+01  0.2499E+01
     12.793  0.2645E+00  0.2646E+00  0.2606E+01  0.2606E+01
     13.208  0.2821E+00  0.2807E+00  0.2719E+01  0.2719E+01
     13.624  0.3098E+00  0.3100E+00  0.2841E+01  0.2842E+01
     14.039  0.2856E+00  0.2855E+00  0.2964E+01  0.2964E+01
     14.455  0.2735E+00  0.2735E+00  0.3081E+01  0.3081E+01
     14.871  0.2691E+00  0.2691E+00  0.3193E+01  0.3193E+01
     15.286  0.2626E+00  0.2626E+00  0.3303E+01  0.3304E+01
     15.702  0.2650E+00  0.2650E+00  0.3412E+01  0.3412E+01
     16.118  0.2657E+00  0.2657E+00  0.3522E+01  0.3523E+01
     16.533  0.2641E+00  0.2641E+00  0.3633E+01  0.3633E+01
     16.949  0.2644E+00  0.2644E+00  0.3743E+01  0.3743E+01
     17.365  0.2712E+00  0.2713E+00  0.3853E+01  0.3854E+01
     17.780  0.2792E+00  0.2792E+00  0.3968E+01  0.3969E+01
     18.196  0.2808E+00  0.2809E+00  0.4084E+01  0.4085E+01
     18.611  0.2899E+00  0.2900E+00  0.4203E+01  0.4203E+01
     19.027  0.3201E+00  0.3201E+00  0.4330E+01  0.4330E+01
     19.443  0.3302E+00  0.3303E+00  0.4464E+01  0.4465E+01
     19.858  0.3772E+00  0.3772E+00  0.4612E+01  0.4613E+01
     20.274  0.3346E+00  0.3345E+00  0.4765E+01  0.4765E+01
     20.690  0.3204E+00  0.3202E+00  0.4902E+01  0.4903E+01
     21.105  0.2903E+00  0.2904E+00  0.5027E+01  0.5028E+01
     21.521  0.3029E+00  0.3030E+00  0.5154E+01  0.5154E+01
     21.937  0.2620E+00  0.2621E+00  0.5267E+01  0.5267E+01
     22.352  0.3131E+00  0.3138E+00  0.5383E+01  0.5383E+01
     22.768  0.3799E+00  0.3642E+00  0.5540E+01  0.5540E+01
     23.183  0.3927E+00  0.3928E+00  0.5696E+01  0.5697E+01
     23.599  0.2818E+00  0.2817E+00  0.5837E+01  0.5837E+01
     24.015  0.3469E+00  0.3474E+00  0.5963E+01  0.5964E+01
     24.430  0.3263E+00  0.3259E+00  0.6106E+01  0.6107E+01
     24.846  0.3767E+00  0.3766E+00  0.6247E+01  0.6248E+01
     25.262  0.4043E+00  0.3979E+00  0.6411E+01  0.6411E+01
     25.677  0.3665E+00  0.3665E+00  0.6565E+01  0.6566E+01
     26.093  0.3976E+00  0.3975E+00  0.6725E+01  0.6726E+01
     26.509  0.3750E+00  0.3746E+00  0.6887E+01  0.6888E+01
     26.924  0.3510E+00  0.3510E+00  0.7032E+01  0.7033E+01
     27.340  0.3545E+00  0.3554E+00  0.7176E+01  0.7176E+01
     27.755  0.3388E+00  0.3388E+00  0.7318E+01  0.7319E+01
     28.171  0.3770E+00  0.3768E+00  0.7462E+01  0.7462E+01
     28.587  0.4232E+00  0.4236E+00  0.7623E+01  0.7624E+01
     29.002  0.4024E+00  0.4013E+00  0.7805E+01  0.7806E+01
     29.418  0.4164E+00  0.4164E+00  0.7962E+01  0.7963E+01
     29.834  0.4185E+00  0.4188E+00  0.8132E+01  0.8133E+01
     30.249  0.3926E+00  0.3927E+00  0.8305E+01  0.8306E+01
     30.665  0.3663E+00  0.3663E+00  0.8460E+01  0.8462E+01
     31.081  0.4036E+00  0.4037E+00  0.8620E+01  0.8621E+01
     31.496  0.4627E+00  0.4622E+00  0.8796E+01  0.8798E+01
     31.912  0.4365E+00  0.4366E+00  0.8979E+01  0.8980E+01
     32.328  0.4281E+00  0.4298E+00  0.9157E+01  0.9159E+01
     32.743  0.4011E+00  0.4008E+00  0.9333E+01  0.9334E+01
     33.159  0.3626E+00  0.3623E+00  0.9493E+01  0.9494E+01
     33.574  0.3106E+00  0.3103E+00  0.9630E+01  0.9631E+01
     33.990  0.3076E+00  0.3029E+00  0.9756E+01  0.9757E+01
     34.406  0.2474E+00  0.2470E+00  0.9871E+01  0.9871E+01
     34.821  0.2232E+00  0.2089E+00  0.9966E+01  0.9967E+01
     35.237  0.1682E+00  0.1682E+00  0.1004E+02  0.1004E+02
     35.653  0.1755E+00  0.1756E+00  0.1011E+02  0.1011E+02
     36.068  0.1978E+00  0.1978E+00  0.1018E+02  0.1018E+02
     36.484  0.2474E+00  0.2474E+00  0.1027E+02  0.1027E+02
     36.900  0.2596E+00  0.2596E+00  0.1038E+02  0.1038E+02
     37.315  0.2744E+00  0.2745E+00  0.1049E+02  0.1049E+02
     37.731  0.2902E+00  0.2902E+00  0.1061E+02  0.1061E+02
     38.146  0.3233E+00  0.3234E+00  0.1073E+02  0.1073E+02
     38.562  0.3496E+00  0.3495E+00  0.1088E+02  0.1088E+02
     38.978  0.3120E+00  0.3121E+00  0.1101E+02  0.1101E+02
     39.393  0.3805E+00  0.3805E+00  0.1115E+02  0.1115E+02
     39.809  0.5577E+00  0.5584E+00  0.1133E+02  0.1133E+02
     40.225  0.5333E+00  0.5334E+00  0.1157E+02  0.1157E+02
     40.640  0.4819E+00  0.4818E+00  0.1177E+02  0.1177E+02
     41.056  0.5410E+00  0.5414E+00  0.1197E+02  0.1197E+02
     41.472  0.5061E+00  0.5051E+00  0.1218E+02  0.1218E+02
     41.887  0.4239E+00  0.4244E+00  0.1235E+02  0.1235E+02
     42.303  0.5361E+00  0.5369E+00  0.1255E+02  0.1255E+02
     42.718  0.5344E+00  0.5345E+00  0.1277E+02  0.1277E+02
     43.134  0.4849E+00  0.4861E+00  0.1298E+02  0.1298E+02
     43.550  0.5896E+00  0.5899E+00  0.1319E+02  0.1319E+02
     43.965  0.4726E+00  0.4733E+00  0.1341E+02  0.1341E+02
     44.381  0.3887E+00  0.3886E+00  0.1358E+02  0.1358E+02
     44.797  0.3844E+00  0.3847E+00  0.1374E+02  0.1374E+02
     45.212  0.4297E+00  0.4298E+00  0.1391E+02  0.1391E+02
     45.628  0.5194E+00  0.5192E+00  0.1410E+02  0.1410E+02
     46.044  0.5289E+00  0.5294E+00  0.1431E+02  0.1431E+02
     46.459  0.5161E+00  0.5156E+00  0.1453E+02  0.1454E+02
     46.875  0.4400E+00  0.4398E+00  0.1473E+02  0.1473E+02
     47.290  0.4125E+00  0.4124E+00  0.1491E+02  0.1491E+02
     47.706  0.4498E+00  0.4497E+00  0.1508E+02  0.1508E+02
     48.122  0.4750E+00  0.4751E+00  0.1527E+02  0.1527E+02
     48.537  0.5409E+00  0.5414E+00  0.1548E+02  0.1548E+02
     48.953  0.4993E+00  0.4992E+00  0.1569E+02  0.1569E+02
     49.369  0.4445E+00  0.4444E+00  0.1589E+02  0.1589E+02
     49.784  0.3935E+00  0.3934E+00  0.1607E+02  0.1607E+02
     50.200  0.4310E+00  0.4310E+00  0.1625E+02  0.1625E+02
     50.616  0.4233E+00  0.4227E+00  0.1641E+02  0.1641E+02
     51.031  0.4717E+00  0.4718E+00  0.1659E+02  0.1659E+02
     51.447  0.6070E+00  0.6071E+00  0.1681E+02  0.1681E+02
     51.862  0.5029E+00  0.5025E+00  0.1705E+02  0.1705E+02
     52.278  0.4491E+00  0.4488E+00  0.1724E+02  0.1724E+02
     52.694  0.4967E+00  0.5006E+00  0.1742E+02  0.1742E+02
     53.109  0.7204E+00  0.7200E+00  0.1768E+02  0.1768E+02
     53.525  0.7038E+00  0.7038E+00  0.1797E+02  0.1797E+02
     53.941  0.8819E+00  0.8804E+00  0.1831E+02  0.1831E+02
     54.356  0.9171E+00  0.9169E+00  0.1869E+02  0.1869E+02
     54.772  0.1065E+01  0.1065E+01  0.1906E+02  0.1906E+02
     55.188  0.1285E+01  0.1287E+01  0.1954E+02  0.1954E+02
     55.603  0.1276E+01  0.1282E+01  0.2000E+02  0.2000E+02
     56.019  0.1524E+01  0.1525E+01  0.2052E+02  0.2052E+02
     56.434  0.1060E+01  0.1057E+01  0.2107E+02  0.2107E+02
     56.850  0.1352E+01  0.1354E+01  0.2151E+02  0.2151E+02
     57.266  0.1044E+01  0.1043E+01  0.2198E+02  0.2198E+02
     57.681  0.7828E+00  0.7818E+00  0.2232E+02  0.2232E+02
     58.097  0.5644E+00  0.5604E+00  0.2259E+02  0.2259E+02
     58.513  0.6378E+00  0.6368E+00  0.2283E+02  0.2283E+02
     58.928  0.7721E+00  0.7731E+00  0.2310E+02  0.2310E+02
     59.344  0.1279E+01  0.1268E+01  0.2352E+02  0.2352E+02
     59.760  0.6640E+00  0.6626E+00  0.2384E+02  0.2384E+02
     60.175  0.5408E+00  0.5420E+00  0.2406E+02  0.2406E+02
     60.591  0.5909E+00  0.5911E+00  0.2430E+02  0.2430E+02
     61.006  0.5711E+00  0.5703E+00  0.2454E+02  0.2454E+02
     61.422  0.6006E+00  0.6008E+00  0.2477E+02  0.2477E+02
     61.838  0.7794E+00  0.7807E+00  0.2505E+02  0.2505E+02
     62.253  0.5612E+00  0.5611E+00  0.2531E+02  0.2531E+02
     62.669  0.5176E+00  0.5180E+00  0.2552E+02  0.2552E+02
     63.085  0.5423E+00  0.5421E+00  0.2575E+02  0.2576E+02
     63.500  0.5772E+00  0.5774E+00  0.2598E+02  0.2598E+02
     63.916  0.4692E+00  0.4692E+00  0.2619E+02  0.2619E+02
     64.332  0.4615E+00  0.4616E+00  0.2638E+02  0.2638E+02
     64.747  0.5484E+00  0.5484E+00  0.2659E+02  0.2659E+02
     65.163  0.5004E+00  0.5003E+00  0.2681E+02  0.2681E+02
     65.578  0.5026E+00  0.5026E+00  0.2701E+02  0.2701E+02
     65.994  0.5406E+00  0.5404E+00  0.2723E+02  0.2723E+02
     66.410  0.4839E+00  0.4839E+00  0.2744E+02  0.2744E+02
     66.825  0.4222E+00  0.4221E+00  0.2763E+02  0.2763E+02
     67.241  0.4018E+00  0.4016E+00  0.2780E+02  0.2780E+02
     67.657  0.4265E+00  0.4266E+00  0.2797E+02  0.2797E+02
     68.072  0.4793E+00  0.4793E+00  0.2816E+02  0.2816E+02
     68.488  0.4678E+00  0.4679E+00  0.2836E+02  0.2836E+02
     68.904  0.4656E+00  0.4657E+00  0.2855E+02  0.2855E+02
     69.319  0.4533E+00  0.4531E+00  0.2875E+02  0.2875E+02
     69.735  0.4668E+00  0.4667E+00  0.2894E+02  0.2894E+02
     70.150  0.4666E+00  0.4666E+00  0.2913E+02  0.2913E+02
     70.566  0.4483E+00  0.4484E+00  0.2932E+02  0.2932E+02
     70.982  0.4495E+00  0.4495E+00  0.2951E+02  0.2951E+02
     71.397  0.4904E+00  0.4903E+00  0.2970E+02  0.2970E+02
     71.813  0.5344E+00  0.5345E+00  0.2991E+02  0.2991E+02
     72.229  0.5768E+00  0.5770E+00  0.3015E+02  0.3015E+02
     72.644  0.6273E+00  0.6360E+00  0.3038E+02  0.3038E+02
     73.060  0.4919E+00  0.4918E+00  0.3060E+02  0.3060E+02
     73.476  0.4322E+00  0.4322E+00  0.3080E+02  0.3080E+02
     73.891  0.4002E+00  0.4003E+00  0.3097E+02  0.3097E+02
     74.307  0.4481E+00  0.4488E+00  0.3114E+02  0.3114E+02
     74.722  0.4515E+00  0.4513E+00  0.3133E+02  0.3133E+02
     75.138  0.4033E+00  0.4035E+00  0.3150E+02  0.3150E+02
     75.554  0.4238E+00  0.4239E+00  0.3167E+02  0.3167E+02
     75.969  0.4706E+00  0.4708E+00  0.3185E+02  0.3185E+02
     76.385  0.5080E+00  0.5076E+00  0.3205E+02  0.3205E+02
     76.801  0.4980E+00  0.4980E+00  0.3226E+02  0.3226E+02
     77.216  0.5210E+00  0.5214E+00  0.3247E+02  0.3247E+02
     77.632  0.5538E+00  0.5540E+00  0.3269E+02  0.3269E+02
     78.048  0.6123E+00  0.6145E+00  0.3292E+02  0.3292E+02
     78.463  0.6858E+00  0.6862E+00  0.3319E+02  0.3319E+02
     78.879  0.6681E+00  0.6674E+00  0.3349E+02  0.3350E+02
     79.294  0.4224E+00  0.4218E+00  0.3369E+02  0.3370E+02
     79.710  0.6837E+00  0.6830E+00  0.3392E+02  0.3392E+02
     80.126  0.6824E+00  0.6831E+00  0.3420E+02  0.3420E+02
     80.541  0.5826E+00  0.5820E+00  0.3447E+02  0.3447E+02
     80.957  0.4617E+00  0.4617E+00  0.3468E+02  0.3468E+02
     81.373  0.5222E+00  0.5221E+00  0.3488E+02  0.3488E+02
     81.788  0.5495E+00  0.5499E+00  0.3510E+02  0.3510E+02
     82.204  0.5816E+00  0.5815E+00  0.3533E+02  0.3533E+02
     82.620  0.5118E+00  0.5114E+00  0.3556E+02  0.3556E+02
     83.035  0.5194E+00  0.5194E+00  0.3577E+02  0.3577E+02
     83.451  0.5152E+00  0.5151E+00  0.3599E+02  0.3599E+02
     83.866  0.5929E+00  0.5930E+00  0.3620E+02  0.3621E+02
     84.282  0.6247E+00  0.6246E+00  0.3647E+02  0.3647E+02
     84.698  0.4486E+00  0.4486E+00  0.3670E+02  0.3670E+02
     85.113  0.4733E+00  0.4737E+00  0.3688E+02  0.3688E+02
     85.529  0.5188E+00  0.5189E+00  0.3708E+02  0.3708E+02
     85.945  0.4673E+00  0.4672E+00  0.3729E+02  0.3729E+02
     86.360  0.4951E+00  0.4951E+00  0.3749E+02  0.3749E+02
     86.776  0.4631E+00  0.4632E+00  0.3769E+02  0.3769E+02
     87.192  0.6510E+00  0.6507E+00  0.3792E+02  0.3792E+02
     87.607  0.7046E+00  0.7048E+00  0.3821E+02  0.3821E+02
     88.023  0.5976E+00  0.5975E+00  0.3847E+02  0.3847E+02
     88.438  0.5853E+00  0.5847E+00  0.3872E+02  0.3872E+02
     88.854  0.6322E+00  0.6320E+00  0.3897E+02  0.3897E+02
     89.270  0.7159E+00  0.7167E+00  0.3926E+02  0.3926E+02
     89.685  0.5074E+00  0.5070E+00  0.3950E+02  0.3950E+02
     90.101  0.4036E+00  0.4034E+00  0.3968E+02  0.3968E+02
     90.517  0.4898E+00  0.4898E+00  0.3987E+02  0.3987E+02
     90.932  0.4786E+00  0.4786E+00  0.4005E+02  0.4005E+02
     91.348  0.5126E+00  0.5124E+00  0.4027E+02  0.4027E+02
     91.764  0.4893E+00  0.4895E+00  0.4047E+02  0.4047E+02
     92.179  0.6048E+00  0.6051E+00  0.4070E+02  0.4070E+02
     92.595  0.6879E+00  0.6881E+00  0.4097E+02  0.4097E+02
     93.010  0.6307E+00  0.6304E+00  0.4124E+02  0.4124E+02
     93.426  0.5620E+00  0.5618E+00  0.4150E+02  0.4150E+02
     93.842  0.4803E+00  0.4801E+00  0.4170E+02  0.4170E+02
     94.257  0.5210E+00  0.5210E+00  0.4191E+02  0.4191E+02
     94.673  0.5276E+00  0.5275E+00  0.4213E+02  0.4213E+02
     95.089  0.5899E+00  0.5901E+00  0.4235E+02  0.4235E+02
     95.504  0.8020E+00  0.8021E+00  0.4264E+02  0.4264E+02
     95.920  0.6632E+00  0.6630E+00  0.4295E+02  0.4295E+02
     96.336  0.6559E+00  0.6560E+00  0.4322E+02  0.4322E+02
     96.751  0.6214E+00  0.6217E+00  0.4348E+02  0.4348E+02
     97.167  0.5262E+00  0.5261E+00  0.4372E+02  0.4373E+02
     97.582  0.4688E+00  0.4688E+00  0.4393E+02  0.4393E+02
     97.998  0.4643E+00  0.4643E+00  0.4412E+02  0.4412E+02
     98.414  0.4668E+00  0.4668E+00  0.4432E+02  0.4432E+02
     98.829  0.5109E+00  0.5110E+00  0.4452E+02  0.4452E+02
     99.245  0.5564E+00  0.5563E+00  0.4473E+02  0.4473E+02
     99.661  0.6209E+00  0.6211E+00  0.4497E+02  0.4497E+02
    100.076  0.7082E+00  0.7081E+00  0.4525E+02  0.4525E+02
    100.492  0.6458E+00  0.6456E+00  0.4553E+02  0.4553E+02
    100.908  0.6916E+00  0.6917E+00  0.4581E+02  0.4581E+02
    101.323  0.5336E+00  0.5338E+00  0.4605E+02  0.4605E+02
    101.739  0.4987E+00  0.4988E+00  0.4626E+02  0.4626E+02
    102.154  0.5508E+00  0.5507E+00  0.4648E+02  0.4648E+02
    102.570  0.5065E+00  0.5067E+00  0.4670E+02  0.4670E+02
    102.986  0.5056E+00  0.5053E+00  0.4690E+02  0.4690E+02
    103.401  0.4483E+00  0.4484E+00  0.4710E+02  0.4710E+02
    103.817  0.3982E+00  0.3978E+00  0.4728E+02  0.4728E+02
    104.233  0.3833E+00  0.3833E+00  0.4744E+02  0.4744E+02
    104.648  0.2936E+00  0.2932E+00  0.4758E+02  0.4758E+02
    105.064  0.2648E+00  0.2649E+00  0.4769E+02  0.4769E+02
    105.480  0.2782E+00  0.2779E+00  0.4780E+02  0.4780E+02
    105.895  0.1566E+00  0.1564E+00  0.4789E+02  0.4789E+02
    106.311  0.9869E-01  0.9842E-01  0.4795E+02  0.4795E+02
    106.726  0.1799E-01  0.1795E-01  0.4797E+02  0.4797E+02
    107.142  0.1244E-01  0.1243E-01  0.4797E+02  0.4797E+02
    107.558  0.1046E-01  0.1046E-01  0.4798E+02  0.4798E+02
    107.973  0.9764E-02  0.9773E-02  0.4798E+02  0.4798E+02
    108.389  0.1025E-01  0.1026E-01  0.4799E+02  0.4799E+02
    108.805  0.1138E-01  0.1139E-01  0.4799E+02  0.4799E+02
    109.220  0.1415E-01  0.1423E-01  0.4799E+02  0.4799E+02
    109.636  0.5369E-02  0.5341E-02  0.4800E+02  0.4800E+02
    110.052  0.3888E-03  0.3836E-03  0.4800E+02  0.4800E+02
    110.467  0.0000E+00  0.0000E+00  0.4800E+02  0.4800E+02
    110.883  0.0000E+00  0.0000E+00  0.4800E+02  0.4800E+02
    111.298  0.0000E+00  0.0000E+00  0.4800E+02  0.4800E+02
    111.714  0.0000E+00  0.0000E+00  0.4800E+02  0.4800E+02
    112.130  0.0000E+00  0.0000E+00  0.4800E+02  0.4800E+02
    112.545  0.0000E+00  0.0000E+00  0.4800E+02  0.4800E+02
    112.961  0.0000E+00  0.0000E+00  0.4800E+02  0.4800E+02
    113.377  0.0000E+00  0.0000E+00  0.4800E+02  0.4800E+02
    113.792  0.0000E+00  0.0000E+00  0.4800E+02  0.4800E+02
    114.208  0.0000E+00  0.0000E+00  0.4800E+02  0.4800E+02
    114.624  0.0000E+00  0.0000E+00  0.4800E+02  0.4800E+02
    115.039  0.0000E+00  0.0000E+00  0.4800E+02  0.4800E+02
    115.455  0.0000E+00  0.0000E+00  0.4800E+02  0.4800E+02
    115.870  0.0000E+00  0.0000E+00  0.4800E+02  0.4800E+02
    115.87049151     -8.82053613  301      7.97339836      1.00000000
     -8.821  0.0000E+00  0.0000E+00  0.0000E+00  0.0000E+00  0.0000E+00  0.0000E+00  0.0000E+00  0.0000E+00  0.0000E+00  0.0000E+00  0.0000E+00  0.0000E+00  0.0000E+00  0.0000E+00  0.0000E+00  0.0000E+00  0.0000E+00  0.0000E+00
     -8.405  0.0000E+00  0.0000E+00  0.0000E+00  0.0000E+00  0.0000E+00  0.0000E+00  0.0000E+00  0.0000E+00  0.0000E+00  0.0000E+00  0.0000E+00  0.0000E+00  0.0000E+00  0.0000E+00  0.0000E+00  0.0000E+00  0.0000E+00  0.0000E+00
     -7.989  0.0000E+00  0.0000E+00  0.0000E+00  0.0000E+00  0.0000E+00  0.0000E+00  0.0000E+00  0.0000E+00  0.0000E+00  0.0000E+00  0.0000E+00  0.0000E+00  0.0000E+00  0.0000E+00  0.0000E+00  0.0000E+00  0.0000E+00  0.0000E+00
     -7.574  0.0000E+00  0.0000E+00  0.0000E+00  0.0000E+00  0.0000E+00  0.0000E+00  0.0000E+00  0.0000E+00  0.0000E+00  0.0000E+00  0.0000E+00  0.0000E+00  0.0000E+00  0.0000E+00  0.0000E+00  0.0000E+00  0.0000E+00  0.0000E+00
     -7.158  0.0000E+00  0.0000E+00  0.0000E+00  0.0000E+00  0.0000E+00  0.0000E+00  0.0000E+00  0.0000E+00  0.0000E+00  0.0000E+00  0.0000E+00  0.0000E+00  0.0000E+00  0.0000E+00  0.0000E+00  0.0000E+00  0.0000E+00  0.0000E+00
     -6.742  0.0000E+00  0.0000E+00  0.0000E+00  0.0000E+00  0.0000E+00  0.0000E+00  0.0000E+00  0.0000E+00  0.0000E+00  0.0000E+00  0.0000E+00  0.0000E+00  0.0000E+00  0.0000E+00  0.0000E+00  0.0000E+00  0.0000E+00  0.0000E+00
     -6.327  0.0000E+00  0.0000E+00  0.0000E+00  0.0000E+00  0.0000E+00  0.0000E+00  0.0000E+00  0.0000E+00  0.0000E+00  0.0000E+00  0.0000E+00  0.0000E+00  0.0000E+00  0.0000E+00  0.0000E+00  0.0000E+00  0.0000E+00  0.0000E+00
     -5.911  0.0000E+00  0.0000E+00  0.0000E+00  0.0000E+00  0.0000E+00  0.0000E+00  0.0000E+00  0.0000E+00  0.0000E+00  0.0000E+00  0.0000E+00  0.0000E+00  0.0000E+00  0.0000E+00  0.0000E+00  0.0000E+00  0.0000E+00  0.0000E+00
     -5.495  0.0000E+00  0.0000E+00  0.0000E+00  0.0000E+00  0.0000E+00  0.0000E+00  0.0000E+00  0.0000E+00  0.0000E+00  0.0000E+00  0.0000E+00  0.0000E+00  0.0000E+00  0.0000E+00  0.0000E+00  0.0000E+00  0.0000E+00  0.0000E+00
     -5.080  0.0000E+00  0.0000E+00  0.0000E+00  0.0000E+00  0.0000E+00  0.0000E+00  0.0000E+00  0.0000E+00  0.0000E+00  0.0000E+00  0.0000E+00  0.0000E+00  0.0000E+00  0.0000E+00  0.0000E+00  0.0000E+00  0.0000E+00  0.0000E+00
     -4.664  0.0000E+00  0.0000E+00  0.0000E+00  0.0000E+00  0.0000E+00  0.0000E+00  0.0000E+00  0.0000E+00  0.0000E+00  0.0000E+00  0.0000E+00  0.0000E+00  0.0000E+00  0.0000E+00  0.0000E+00  0.0000E+00  0.0000E+00  0.0000E+00
     -4.249  0.0000E+00  0.0000E+00  0.0000E+00  0.0000E+00  0.0000E+00  0.0000E+00  0.0000E+00  0.0000E+00  0.0000E+00  0.0000E+00  0.0000E+00  0.0000E+00  0.0000E+00  0.0000E+00  0.0000E+00  0.0000E+00  0.0000E+00  0.0000E+00
     -3.833  0.0000E+00  0.0000E+00  0.0000E+00  0.0000E+00  0.0000E+00  0.0000E+00  0.0000E+00  0.0000E+00  0.0000E+00  0.0000E+00  0.0000E+00  0.0000E+00  0.0000E+00  0.0000E+00  0.0000E+00  0.0000E+00  0.0000E+00  0.0000E+00
     -3.417  0.0000E+00  0.0000E+00  0.0000E+00  0.0000E+00  0.0000E+00  0.0000E+00  0.0000E+00  0.0000E+00  0.0000E+00  0.0000E+00  0.0000E+00  0.0000E+00  0.0000E+00  0.0000E+00  0.0000E+00  0.0000E+00  0.0000E+00  0.0000E+00
     -3.002  0.5624E-02  0.5645E-02  0.2334E-04  0.2349E-04  0.2334E-04  0.2349E-04  0.2334E-04  0.2349E-04  0.0000E+00  0.0000E+00  0.0000E+00  0.0000E+00  0.0000E+00  0.0000E+00  0.0000E+00  0.0000E+00  0.0000E+00  0.0000E+00
     -2.586  0.1357E-01  0.1358E-01  0.1894E-03  0.1897E-03  0.1894E-03  0.1897E-03  0.1894E-03  0.1897E-03  0.0000E+00  0.0000E+00  0.0000E+00  0.0000E+00  0.0000E+00  0.0000E+00  0.0000E+00  0.0000E+00  0.0000E+00  0.0000E+00
     -2.170  0.1417E-01  0.1419E-01  0.3777E-03  0.3782E-03  0.3777E-03  0.3782E-03  0.3777E-03  0.3782E-03  0.0000E+00  0.0000E+00  0.0000E+00  0.0000E+00  0.0000E+00  0.0000E+00  0.0000E+00  0.0000E+00  0.0000E+00  0.0000E+00
     -1.755  0.1655E-01  0.1656E-01  0.6358E-03  0.6365E-03  0.6358E-03  0.6365E-03  0.6358E-03  0.6365E-03  0.0000E+00  0.0000E+00  0.0000E+00  0.0000E+00  0.0000E+00  0.0000E+00  0.0000E+00  0.0000E+00  0.0000E+00  0.0000E+00
     -1.339  0.1850E-01  0.1851E-01  0.9270E-03  0.9278E-03  0.9270E-03  0.9278E-03  0.9270E-03  0.9278E-03  0.0000E+00  0.0000E+00  0.0000E+00  0.0000E+00  0.0000E+00  0.0000E+00  0.0000E+00  0.0000E+00  0.0000E+00  0.0000E+00
     -0.923  0.1970E-01  0.1972E-01  0.1265E-02  0.1266E-02  0.1265E-02  0.1266E-02  0.1265E-02  0.1266E-02  0.0000E+00  0.0000E+00  0.0000E+00  0.0000E+00  0.0000E+00  0.0000E+00  0.0000E+00  0.0000E+00  0.0000E+00  0.0000E+00
     -0.508  0.2081E-01  0.2082E-01  0.1627E-02  0.1628E-02  0.1627E-02  0.1628E-02  0.1627E-02  0.1628E-02  0.0000E+00  0.0000E+00  0.0000E+00  0.0000E+00  0.0000E+00  0.0000E+00  0.0000E+00  0.0000E+00  0.0000E+00  0.0000E+00
     -0.092  0.2171E-01  0.2173E-01  0.2011E-02  0.2012E-02  0.2011E-02  0.2012E-02  0.2011E-02  0.2012E-02  0.0000E+00  0.0000E+00  0.0000E+00  0.0000E+00  0.0000E+00  0.0000E+00  0.0000E+00  0.0000E+00  0.0000E+00  0.0000E+00
      0.323  0.2227E-01  0.2229E-01  0.2429E-02  0.2431E-02  0.2429E-02  0.2431E-02  0.2429E-02  0.2431E-02  0.0000E+00  0.0000E+00  0.0000E+00  0.0000E+00  0.0000E+00  0.0000E+00  0.0000E+00  0.0000E+00  0.0000E+00  0.0000E+00
      0.739  0.2280E-01  0.2282E-01  0.2861E-02  0.2863E-02  0.2861E-02  0.2863E-02  0.2861E-02  0.2863E-02  0.0000E+00  0.0000E+00  0.0000E+00  0.0000E+00  0.0000E+00  0.0000E+00  0.0000E+00  0.0000E+00  0.0000E+00  0.0000E+00
      1.155  0.2300E-01  0.2302E-01  0.3328E-02  0.3330E-02  0.3328E-02  0.3330E-02  0.3328E-02  0.3330E-02  0.0000E+00  0.0000E+00  0.0000E+00  0.0000E+00  0.0000E+00  0.0000E+00  0.0000E+00  0.0000E+00  0.0000E+00  0.0000E+00
      1.570  0.2314E-01  0.2316E-01  0.3813E-02  0.3815E-02  0.3813E-02  0.3815E-02  0.3813E-02  0.3815E-02  0.0000E+00  0.0000E+00  0.0000E+00  0.0000E+00  0.0000E+00  0.0000E+00  0.0000E+00  0.0000E+00  0.0000E+00  0.0000E+00
      1.986  0.2306E-01  0.2308E-01  0.4332E-02  0.4334E-02  0.4332E-02  0.4334E-02  0.4332E-02  0.4334E-02  0.0000E+00  0.0000E+00  0.0000E+00  0.0000E+00  0.0000E+00  0.0000E+00  0.0000E+00  0.0000E+00  0.0000E+00  0.0000E+00
      2.402  0.2269E-01  0.2271E-01  0.4905E-02  0.4907E-02  0.4905E-02  0.4907E-02  0.4905E-02  0.4907E-02  0.0000E+00  0.0000E+00  0.0000E+00  0.0000E+00  0.0000E+00  0.0000E+00  0.0000E+00  0.0000E+00  0.0000E+00  0.0000E+00
      2.817  0.2241E-01  0.2244E-01  0.5635E-02  0.5638E-02  0.5635E-02  0.5638E-02  0.5635E-02  0.5638E-02  0.0000E+00  0.0000E+00  0.0000E+00  0.0000E+00  0.0000E+00  0.0000E+00  0.0000E+00  0.0000E+00  0.0000E+00  0.0000E+00
      3.233  0.2226E-01  0.2228E-01  0.6768E-02  0.6766E-02  0.6768E-02  0.6766E-02  0.6768E-02  0.6766E-02  0.0000E+00  0.0000E+00  0.0000E+00  0.0000E+00  0.0000E+00  0.0000E+00  0.0000E+00  0.0000E+00  0.0000E+00  0.0000E+00
      3.649  0.1940E-01  0.1941E-01  0.6953E-02  0.6946E-02  0.6953E-02  0.6946E-02  0.6953E-02  0.6946E-02  0.0000E+00  0.0000E+00  0.0000E+00  0.0000E+00  0.0000E+00  0.0000E+00  0.0000E+00  0.0000E+00  0.0000E+00  0.0000E+00
      4.064  0.1888E-01  0.1892E-01  0.6988E-02  0.6995E-02  0.6988E-02  0.6995E-02  0.6988E-02  0.6995E-02  0.0000E+00  0.0000E+00  0.0000E+00  0.0000E+00  0.0000E+00  0.0000E+00  0.0000E+00  0.0000E+00  0.0000E+00  0.0000E+00
      4.480  0.2028E-01  0.2029E-01  0.8135E-02  0.8136E-02  0.8135E-02  0.8136E-02  0.8135E-02  0.8136E-02  0.0000E+00  0.0000E+00  0.0000E+00  0.0000E+00  0.0000E+00  0.0000E+00  0.0000E+00  0.0000E+00  0.0000E+00  0.0000E+00
      4.895  0.2104E-01  0.2106E-01  0.9475E-02  0.9482E-02  0.9475E-02  0.9482E-02  0.9475E-02  0.9482E-02  0.0000E+00  0.0000E+00  0.0000E+00  0.0000E+00  0.0000E+00  0.0000E+00  0.0000E+00  0.0000E+00  0.0000E+00  0.0000E+00
      5.311  0.1910E-01  0.1912E-01  0.9562E-02  0.9566E-02  0.9562E-02  0.9566E-02  0.9562E-02  0.9566E-02  0.0000E+00  0.0000E+00  0.0000E+00  0.0000E+00  0.0000E+00  0.0000E+00  0.0000E+00  0.0000E+00  0.0000E+00  0.0000E+00
      5.727  0.1803E-01  0.1762E-01  0.9154E-02  0.9047E-02  0.9154E-02  0.9047E-02  0.9154E-02  0.9047E-02  0.0000E+00  0.0000E+00  0.0000E+00  0.0000E+00  0.0000E+00  0.0000E+00  0.0000E+00  0.0000E+00  0.0000E+00  0.0000E+00
      6.142  0.1585E-01  0.1586E-01  0.8109E-02  0.8114E-02  0.8109E-02  0.8114E-02  0.8109E-02  0.8114E-02  0.0000E+00  0.0000E+00  0.0000E+00  0.0000E+00  0.0000E+00  0.0000E+00  0.0000E+00  0.0000E+00  0.0000E+00  0.0000E+00
      6.558  0.1796E-01  0.1798E-01  0.9977E-02  0.9977E-02  0.9977E-02  0.9977E-02  0.9977E-02  0.9977E-02  0.0000E+00  0.0000E+00  0.0000E+00  0.0000E+00  0.0000E+00  0.0000E+00  0.0000E+00  0.0000E+00  0.0000E+00  0.0000E+00
      6.974  0.1943E-01  0.1946E-01  0.1109E-01  0.1109E-01  0.1109E-01  0.1109E-01  0.1109E-01  0.1109E-01  0.0000E+00  0.0000E+00  0.0000E+00  0.0000E+00  0.0000E+00  0.0000E+00  0.0000E+00  0.0000E+00  0.0000E+00  0.0000E+00
      7.389  0.1675E-01  0.1676E-01  0.9473E-02  0.9476E-02  0.9473E-02  0.9476E-02  0.9473E-02  0.9476E-02  0.0000E+00  0.0000E+00  0.0000E+00  0.0000E+00  0.0000E+00  0.0000E+00  0.0000E+00  0.0000E+00  0.0000E+00  0.0000E+00
      7.805  0.1607E-01  0.1613E-01  0.9017E-02  0.9025E-02  0.9017E-02  0.9025E-02  0.9017E-02  0.9025E-02  0.0000E+00  0.0000E+00  0.0000E+00  0.0000E+00  0.0000E+00  0.0000E+00  0.0000E+00  0.0000E+00  0.0000E+00  0.0000E+00
      8.221  0.2324E-01  0.2327E-01  0.9946E-02  0.9959E-02  0.9946E-02  0.9959E-02  0.9946E-02  0.9959E-02  0.0000E+00  0.0000E+00  0.0000E+00  0.0000E+00  0.0000E+00  0.0000E+00  0.0000E+00  0.0000E+00  0.0000E+00  0.0000E+00
      8.636  0.2158E-01  0.2159E-01  0.9812E-02  0.9819E-02  0.9812E-02  0.9819E-02  0.9812E-02  0.9819E-02  0.0000E+00  0.0000E+00  0.0000E+00  0.0000E+00  0.0000E+00  0.0000E+00  0.0000E+00  0.0000E+00  0.0000E+00  0.0000E+00
      9.052  0.2029E-01  0.2031E-01  0.1014E-01  0.1015E-01  0.1014E-01  0.1015E-01  0.1014E-01  0.1015E-01  0.0000E+00  0.0000E+00  0.0000E+00  0.0000E+00  0.0000E+00  0.0000E+00  0.0000E+00  0.0000E+00  0.0000E+00  0.0000E+00
      9.467  0.2396E-01  0.2378E-01  0.1068E-01  0.1068E-01  0.1068E-01  0.1068E-01  0.1068E-01  0.1068E-01  0.0000E+00  0.0000E+00  0.0000E+00  0.0000E+00  0.0000E+00  0.0000E+00  0.0000E+00  0.0000E+00  0.0000E+00  0.0000E+00
      9.883  0.2172E-01  0.2174E-01  0.1052E-01  0.1053E-01  0.1052E-01  0.1053E-01  0.1052E-01  0.1053E-01  0.0000E+00  0.0000E+00  0.0000E+00  0.0000E+00  0.0000E+00  0.0000E+00  0.0000E+00  0.0000E+00  0.0000E+00  0.0000E+00
     10.299  0.2270E-01  0.2271E-01  0.1086E-01  0.1087E-01  0.1086E-01  0.1087E-01  0.1086E-01  0.1087E-01  0.0000E+00  0.0000E+00  0.0000E+00  0.0000E+00  0.0000E+00  0.0000E+00  0.0000E+00  0.0000E+00  0.0000E+00  0.0000E+00
     10.714  0.2355E-01  0.2356E-01  0.1164E-01  0.1166E-01  0.1164E-01  0.1166E-01  0.1164E-01  0.1166E-01  0.0000E+00  0.0000E+00  0.0000E+00  0.0000E+00  0.0000E+00  0.0000E+00  0.0000E+00  0.0000E+00  0.0000E+00  0.0000E+00
     11.130  0.2292E-01  0.2293E-01  0.1213E-01  0.1214E-01  0.1213E-01  0.1214E-01  0.1213E-01  0.1214E-01  0.0000E+00  0.0000E+00  0.0000E+00  0.0000E+00  0.0000E+00  0.0000E+00  0.0000E+00  0.0000E+00  0.0000E+00  0.0000E+00
     11.546  0.2344E-01  0.2345E-01  0.1263E-01  0.1264E-01  0.1263E-01  0.1264E-01  0.1263E-01  0.1264E-01  0.0000E+00  0.0000E+00  0.0000E+00  0.0000E+00  0.0000E+00  0.0000E+00  0.0000E+00  0.0000E+00  0.0000E+00  0.0000E+00
     11.961  0.2311E-01  0.2311E-01  0.1381E-01  0.1382E-01  0.1381E-01  0.1382E-01  0.1381E-01  0.1382E-01  0.0000E+00  0.0000E+00  0.0000E+00  0.0000E+00  0.0000E+00  0.0000E+00  0.0000E+00  0.0000E+00  0.0000E+00  0.0000E+00