    1    1    1    2
  0.1658294E+02  0.2862368E-09  0.2862368E-09  0.2862368E-09  0.5000000E-15
   1.0000000000000000E-004
  CAR 
 unknown system                          
      3    220     48

  0.1262379E-14  0.1262379E-14  0.1262379E-14  0.1457938E-03
    1       -3.152103     -3.152762   1.000000   1.000000
    2       20.539365     20.539247   0.000000   0.000000
    3       20.539365     20.539247   0.000000   0.000000
    4       20.539365     20.539247   0.000000   0.000000
    5       21.994370     21.990084   0.000000   0.000000
    6       21.994370     21.990084   0.000000   0.000000
    7       21.994370     21.990085   0.000000   0.000000
    8       24.376165     24.377256   0.000000   0.000000
    9       27.314060     27.311479   0.000000   0.000000
   10       27.314060     27.311479   0.000000   0.000000
   11       30.160717     30.158559   0.000000   0.000000
   12       32.510520     32.510600   0.000000   0.000000
   13       32.510520     32.510600   0.000000   0.000000
   14       32.510520     32.510601   0.000000   0.000000
   15       41.062049     41.059948   0.000000   0.000000
   16       56.020115     56.018831   0.000000   0.000000
   17       56.020115     56.018832   0.000000   0.000000
   18       56.020115     56.018832   0.000000   0.000000
   19       56.056317     56.056235   0.000000   0.000000
   20       59.213540     59.211521   0.000000   0.000000
   21       59.213540     59.211521   0.000000   0.000000
   22       59.213540     59.211521   0.000000   0.000000
   23       62.833170     62.833829   0.000000   0.000000
   24       62.833170     62.833829   0.000000   0.000000
   25       65.076467     65.073800   0.000000   0.000000
   26       65.076468     65.073800   0.000000   0.000000
   27       65.076468     65.073800   0.000000   0.000000
   28       73.177431     73.177111   0.000000   0.000000
   29       73.177431     73.177111   0.000000   0.000000
   30       73.177431     73.177112   0.000000   0.000000
   31       80.818636     80.818385   0.000000   0.000000
   32       83.077853     83.076858   0.000000   0.000000
   33       83.077853     83.076858   0.000000   0.000000
   34       87.205660     87.206513   0.000000   0.000000
   35       87.205660     87.206513   0.000000   0.000000
   36       87.205660     87.206515   0.000000   0.000000
   37       90.088212     90.083134   0.000000   0.000000
   38       90.088212     90.083135   0.000000   0.000000
   39       90.088212     90.083135   0.000000   0.000000
   40       90.896405     90.890001   0.000000   0.000000
   41       93.459674     93.460644   0.000000   0.000000
   42       93.459674     93.460644   0.000000   0.000000
   43       93.459674     93.460645   0.000000   0.000000
   44       93.934362     93.932077   0.000000   0.000000
   45       93.934363     93.932077   0.000000   0.000000
   46       93.934363     93.932077   0.000000   0.000000
   47       96.373293     96.374928   0.000000   0.000000
   48       96.373293     96.374928   0.000000   0.000000

  0.5263158E-01  0.1263878E-14  0.1263878E-14  0.1166351E-02
    1       -3.077039     -3.077698   1.000000   1.000000
    2       19.130214     19.129348   0.000000   0.000000
    3       20.248721     20.247982   0.000000   0.000000
    4       20.248721     20.247982   0.000000   0.000000
    5       22.401888     22.398175   0.000000   0.000000
    6       22.401888     22.398175   0.000000   0.000000
    7       22.557574     22.554493   0.000000   0.000000
    8       25.168726     25.169392   0.000000   0.000000
    9       26.870915     26.868631   0.000000   0.000000
   10       26.870915     26.868631   0.000000   0.000000
   11       29.877676     29.875754   0.000000   0.000000
   12       32.899329     32.899074   0.000000   0.000000
   13       33.104153     33.103968   0.000000   0.000000
   14       33.104153     33.103968   0.000000   0.000000
   15       41.366409     41.364370   0.000000   0.000000
   16       55.683196     55.682479   0.000000   0.000000
   17       55.947458     55.946178   0.000000   0.000000
   18       55.947458     55.946178   0.000000   0.000000
   19       56.262992     56.262327   0.000000   0.000000
   20       58.403197     58.401204   0.000000   0.000000
   21       58.403197     58.401205   0.000000   0.000000
   22       59.221114     59.219114   0.000000   0.000000
   23       61.919512     61.919462   0.000000   0.000000
   24       61.919513     61.919463   0.000000   0.000000
   25       65.143835     65.141152   0.000000   0.000000
   26       66.939928     66.937973   0.000000   0.000000
   27       66.939928     66.937973   0.000000   0.000000
   28       72.525354     72.525112   0.000000   0.000000
   29       73.107666     73.107267   0.000000   0.000000
   30       73.107667     73.107268   0.000000   0.000000
   31       81.576560     81.576297   0.000000   0.000000
   32       82.681894     82.680760   0.000000   0.000000
   33       82.681894     82.680760   0.000000   0.000000
   34       85.461497     85.459914   0.000000   0.000000
   35       86.614250     86.614759   0.000000   0.000000
   36       86.614250     86.614760   0.000000   0.000000
   37       89.274616     89.271620   0.000000   0.000000
   38       89.274616     89.271620   0.000000   0.000000
   39       90.308430     90.302965   0.000000   0.000000
   40       90.914994     90.914550   0.000000   0.000000
   41       91.971060     91.968857   0.000000   0.000000
   42       92.222300     92.222053   0.000000   0.000000
   43       92.222300     92.222053   0.000000   0.000000
   44       95.190177     95.191560   0.000000   0.000000
   45       95.190178     95.191560   0.000000   0.000000
   46       95.594726     95.593291   0.000000   0.000000
   47       95.594726     95.593291   0.000000   0.000000
   48       96.640141     96.639282   0.000000   0.000000

  0.1052632E+00  0.1264323E-14  0.1264323E-14  0.1166351E-02
    1       -2.852084     -2.852743   1.000000   1.000000
    2       17.037984     17.037078   0.000000   0.000000
    3       19.760696     19.759486   0.000000   0.000000
    4       19.760696     19.759486   0.000000   0.000000
    5       22.655501     22.653182   0.000000   0.000000
    6       23.217326     23.213882   0.000000   0.000000
    7       23.217326     23.213883   0.000000   0.000000
    8       25.928816     25.927069   0.000000   0.000000
    9       25.928816     25.927069   0.000000   0.000000
   10       27.014327     27.014338   0.000000   0.000000
   11       29.196853     29.195191   0.000000   0.000000
   12       33.946391     33.945618   0.000000   0.000000
   13       34.517835     34.517258   0.000000   0.000000
   14       34.517836     34.517258   0.000000   0.000000
   15       42.215189     42.213312   0.000000   0.000000
   16       55.114573     55.113862   0.000000   0.000000
   17       55.217058     55.215673   0.000000   0.000000
   18       55.217058     55.215673   0.000000   0.000000
   19       56.394509     56.393811   0.000000   0.000000
   20       56.848337     56.846685   0.000000   0.000000
   21       56.848338     56.846685   0.000000   0.000000
   22       59.188396     59.186455   0.000000   0.000000
   23       61.545718     61.545343   0.000000   0.000000
   24       61.545718     61.545344   0.000000   0.000000
   25       65.345278     65.342551   0.000000   0.000000
   26       69.660050     69.658332   0.000000   0.000000
   27       69.660051     69.658332   0.000000   0.000000
   28       71.117473     71.117319   0.000000   0.000000
   29       72.927835     72.927151   0.000000   0.000000
   30       72.927835     72.927152   0.000000   0.000000
   31       81.392659     81.391240   0.000000   0.000000
   32       81.392659     81.391240   0.000000   0.000000
   33       82.029448     82.027948   0.000000   0.000000
   34       84.208345     84.206690   0.000000   0.000000
   35       85.432931     85.433882   0.000000   0.000000
   36       85.432931     85.433882   0.000000   0.000000
   37       87.530362     87.529321   0.000000   0.000000
   38       87.530363     87.529322   0.000000   0.000000
   39       88.311348     88.310931   0.000000   0.000000
   40       89.980949     89.975974   0.000000   0.000000
   41       91.019175     91.018319   0.000000   0.000000
   42       91.019175     91.018320   0.000000   0.000000
   43       92.569702     92.569657   0.000000   0.000000
   44       94.028880     94.030737   0.000000   0.000000
   45       95.958578     95.960213   0.000000   0.000000
   46       95.958579     95.960213   0.000000   0.000000
   47       97.633371     97.630773   0.000000   0.000000
   48       97.633372     97.630774   0.000000   0.000000

  0.1578947E+00  0.1260715E-14  0.1260715E-14  0.1166351E-02
    1       -2.477958     -2.478617   1.000000   1.000000
    2       14.918694     14.917831   0.000000   0.000000
    3       19.324893     19.323474   0.000000   0.000000
    4       19.324893     19.323474   0.000000   0.000000
    5       22.514490     22.512502   0.000000   0.000000
    6       23.915099     23.911481   0.000000   0.000000
    7       23.915099     23.911482   0.000000   0.000000
    8       25.173371     25.172201   0.000000   0.000000
    9       25.173371     25.172201   0.000000   0.000000
   10       28.320872     28.319323   0.000000   0.000000
   11       29.060532     29.060226   0.000000   0.000000
   12       35.542383     35.541166   0.000000   0.000000
   13       36.331437     36.330557   0.000000   0.000000
   14       36.331437     36.330557   0.000000   0.000000
   15       43.472716     43.471064   0.000000   0.000000
   16       52.907407     52.906014   0.000000   0.000000
   17       52.907407     52.906014   0.000000   0.000000
   18       54.311985     54.311305   0.000000   0.000000
   19       56.446769     56.445338   0.000000   0.000000
   20       56.446769     56.445338   0.000000   0.000000
   21       56.502936     56.502190   0.000000   0.000000
   22       59.013428     59.011616   0.000000   0.000000
   23       61.624477     61.623940   0.000000   0.000000
   24       61.624477     61.623941   0.000000   0.000000
   25       65.676032     65.673221   0.000000   0.000000
   26       69.576928     69.576674   0.000000   0.000000
   27       71.278394     71.277093   0.000000   0.000000
   28       71.278394     71.277093   0.000000   0.000000
   29       73.301932     73.300658   0.000000   0.000000
   30       73.301933     73.300660   0.000000   0.000000
   31       79.610040     79.608716   0.000000   0.000000
   32       79.610040     79.608716   0.000000   0.000000
   33       79.826415     79.823672   0.000000   0.000000
   34       83.712148     83.713652   0.000000   0.000000
   35       83.712148     83.713653   0.000000   0.000000
   36       85.871802     85.871492   0.000000   0.000000
   37       86.128913     86.128121   0.000000   0.000000
   38       86.625171     86.624585   0.000000   0.000000
   39       86.625171     86.624586   0.000000   0.000000
   40       88.132355     88.132886   0.000000   0.000000
   41       89.597519     89.593240   0.000000   0.000000
   42       90.249096     90.248034   0.000000   0.000000
   43       90.249096     90.248035   0.000000   0.000000
   44       94.019665     94.021472   0.000000   0.000000
   45       97.068215     97.069364   0.000000   0.000000
   46       97.068215     97.069364   0.000000   0.000000
   47       98.936647     98.935269   0.000000   0.000000
   48       98.936647     98.935270   0.000000   0.000000

  0.2105263E+00  0.1257773E-14  0.1257773E-14  0.1166351E-02
    1       -1.955836     -1.956495   1.000000   1.000000
    2       12.860851     12.860030   0.000000   0.000000
    3       18.992452     18.990925   0.000000   0.000000
    4       18.992452     18.990925   0.000000   0.000000
    5       22.348497     22.346691   0.000000   0.000000
    6       23.363426     23.360907   0.000000   0.000000
    7       23.363426     23.360907   0.000000   0.000000
    8       25.842734     25.840652   0.000000   0.000000
    9       25.842734     25.840652   0.000000   0.000000
   10       27.368524     27.367005   0.000000   0.000000
   11       31.056996     31.056472   0.000000   0.000000
   12       37.614579     37.612973   0.000000   0.000000
   13       38.361104     38.359966   0.000000   0.000000
   14       38.361104     38.359966   0.000000   0.000000
   15       45.011594     45.010209   0.000000   0.000000
   16       50.273804     50.272591   0.000000   0.000000
   17       50.273804     50.272592   0.000000   0.000000
   18       53.302517     53.301932   0.000000   0.000000
   19       56.380957     56.379564   0.000000   0.000000
   20       56.380957     56.379564   0.000000   0.000000
   21       56.618084     56.617270   0.000000   0.000000
   22       58.634307     58.632714   0.000000   0.000000
   23       61.860059     61.859395   0.000000   0.000000
   24       61.860059     61.859396   0.000000   0.000000
   25       66.129859     66.126921   0.000000   0.000000
   26       68.089379     68.088707   0.000000   0.000000
   27       70.354004     70.352418   0.000000   0.000000
   28       70.354004     70.352419   0.000000   0.000000
   29       74.494252     74.493600   0.000000   0.000000
   30       74.494253     74.493602   0.000000   0.000000
   31       77.796406     77.793331   0.000000   0.000000
   32       78.688594     78.687454   0.000000   0.000000
   33       78.688594     78.687454   0.000000   0.000000
   34       81.752258     81.753524   0.000000   0.000000
   35       81.752258     81.753525   0.000000   0.000000
   36       83.210002     83.211136   0.000000   0.000000
   37       83.609487     83.609326   0.000000   0.000000
   38       86.775026     86.774750   0.000000   0.000000
   39       86.775027     86.774750   0.000000   0.000000
   40       88.501859     88.501281   0.000000   0.000000
   41       89.436677     89.432542   0.000000   0.000000
   42       89.800783     89.799640   0.000000   0.000000
   43       89.800783     89.799641   0.000000   0.000000
   44       93.636306     93.637850   0.000000   0.000000
   45       97.342618     97.342798   0.000000   0.000000
   46       97.342618     97.342798   0.000000   0.000000
   47      100.356211    100.356415   0.000000   0.000000
   48      100.356211    100.356415   0.000000   0.000000

  0.2631579E+00  0.1240954E-14  0.1240954E-14  0.1166351E-02
    1       -1.287312     -1.287972   1.000000   1.000000
    2       10.894933     10.894144   0.000000   0.000000
    3       18.777141     18.775548   0.000000   0.000000
    4       18.777141     18.775548   0.000000   0.000000
    5       22.235653     22.233969   0.000000   0.000000
    6       22.424277     22.422180   0.000000   0.000000
    7       22.424277     22.422180   0.000000   0.000000
    8       26.415502     26.413978   0.000000   0.000000
    9       27.110085     27.107634   0.000000   0.000000
   10       27.110085     27.107634   0.000000   0.000000
   11       32.972386     32.971632   0.000000   0.000000
   12       40.046819     40.044844   0.000000   0.000000
   13       40.474877     40.473439   0.000000   0.000000
   14       40.474878     40.473440   0.000000   0.000000
   15       46.716217     46.715116   0.000000   0.000000
   16       47.780486     47.779574   0.000000   0.000000
   17       47.780486     47.779574   0.000000   0.000000
   18       52.127278     52.126907   0.000000   0.000000
   19       56.358367     56.356985   0.000000   0.000000
   20       56.358368     56.356986   0.000000   0.000000
   21       56.754392     56.753495   0.000000   0.000000
   22       58.053352     58.052032   0.000000   0.000000
   23       62.128020     62.127166   0.000000   0.000000
   24       62.128020     62.127167   0.000000   0.000000
   25       66.606641     66.605251   0.000000   0.000000
   26       66.693145     66.690018   0.000000   0.000000
   27       68.279285     68.277636   0.000000   0.000000
   28       68.279286     68.277636   0.000000   0.000000
   29       74.452524     74.452639   0.000000   0.000000
   30       74.452526     74.452640   0.000000   0.000000
   31       76.106283     76.103173   0.000000   0.000000
   32       78.996347     78.997893   0.000000   0.000000
   33       79.143249     79.143301   0.000000   0.000000
   34       79.143251     79.143301   0.000000   0.000000
   35       80.102478     80.102509   0.000000   0.000000
   36       80.102478     80.102509   0.000000   0.000000
   37       81.536487     81.536535   0.000000   0.000000
   38       87.861408     87.861019   0.000000   0.000000
   39       87.861409     87.861022   0.000000   0.000000
   40       88.771953     88.769196   0.000000   0.000000
   41       89.525059     89.523906   0.000000   0.000000
   42       89.525049     89.523908   0.000000   0.000000
   43       90.893972     90.892799   0.000000   0.000000
   44       93.062808     93.063814   0.000000   0.000000
   45       97.452802     97.452574   0.000000   0.000000
   46       97.452793     97.452611   0.000000   0.000000
   47      101.453751    101.453369   0.000000   0.000000
   48      102.136345    102.136957   0.000000   0.000000

  0.3157895E+00  0.1224134E-14  0.1224134E-14  0.1166351E-02
    1       -0.474388     -0.475048   1.000000   1.000000
    2        9.035879      9.035115  -0.064326  -0.064375
    3       18.683962     18.682321   0.000000   0.000000
    4       18.683962     18.682321   0.000000   0.000000
    5       21.540140     21.538231   0.000000   0.000000
    6       21.540140     21.538231   0.000000   0.000000
    7       22.215263     22.213672   0.000000   0.000000
    8       25.511081     25.509538   0.000000   0.000000
    9       28.532597     28.529900   0.000000   0.000000
   10       28.532597     28.529901   0.000000   0.000000
   11       34.823413     34.822379   0.000000   0.000000
   12       42.214365     42.212469   0.000000   0.000000
   13       42.214364     42.212470   0.000000   0.000000
   14       42.677628     42.675281   0.000000   0.000000
   15       45.942583     45.942195   0.000000   0.000000
   16       45.942583     45.942195   0.000000   0.000000
   17       48.261652     48.260729   0.000000   0.000000
   18       51.139685     51.139778   0.000000   0.000000
   19       56.339207     56.337833   0.000000   0.000000
   20       56.339208     56.337833   0.000000   0.000000
   21       56.907316     56.906324   0.000000   0.000000
   22       57.279055     57.277971   0.000000   0.000000
   23       62.198405     62.197076   0.000000   0.000000
   24       62.198405     62.197076   0.000000   0.000000
   25       65.083799     65.081627   0.000000   0.000000
   26       65.846371     65.845271   0.000000   0.000000
   27       65.846371     65.845272   0.000000   0.000000
   28       67.342256     67.338857   0.000000   0.000000
   29       73.243821     73.242821   0.000000   0.000000
   30       74.084050     74.084358   0.000000   0.000000
   31       74.084051     74.084360   0.000000   0.000000
   32       76.850883     76.850773   0.000000   0.000000
   33       78.143198     78.144384   0.000000   0.000000
   34       78.143199     78.144384   0.000000   0.000000
   35       79.680126     79.680462   0.000000   0.000000
   36       80.192260     80.191550   0.000000   0.000000
   37       80.192261     80.191551   0.000000   0.000000
   38       88.619288     88.616367   0.000000   0.000000
   39       89.296989     89.295925   0.000000   0.000000
   40       89.296995     89.295925   0.000000   0.000000
   41       89.864668     89.863935   0.000000   0.000000
   42       89.864668     89.863935   0.000000   0.000000
   43       91.179636     91.180363   0.000000   0.000000
   44       93.562261     93.562037   0.000000   0.000000
   45       97.981042     97.980517   0.000000   0.000000
   46       97.981057     97.980522   0.000000   0.000000
   47      101.667664    101.666518   0.000000   0.000000
   48      103.576024    103.576606   0.000000   0.000000

  0.3684211E+00  0.1235071E-14  0.1235071E-14  0.1166351E-02
    1        0.480526      0.479868   1.000000   1.000000
    2        7.292690      7.291942   0.969284   0.969702
    3       18.715124     18.713435   0.000000   0.000000
    4       18.715124     18.713436   0.000000   0.000000
    5       20.761825     20.760036   0.000000   0.000000
    6       20.761825     20.760036   0.000000   0.000000
    7       22.308825     22.307318   0.000000   0.000000
    8       24.687670     24.686090   0.000000   0.000000
    9       30.024687     30.021684   0.000000   0.000000
   10       30.024687     30.021685   0.000000   0.000000
   11       36.600922     36.599519   0.000000   0.000000
   12       41.769808     41.768355   0.000000   0.000000
   13       41.769808     41.768355   0.000000   0.000000
   14       45.255615     45.253055   0.000000   0.000000
   15       46.602649     46.601976   0.000000   0.000000
   16       46.602650     46.601976   0.000000   0.000000
   17       48.262602     48.261966   0.000000   0.000000
   18       51.903540     51.903959   0.000000   0.000000
   19       56.271126     56.269768   0.000000   0.000000
   20       56.271127     56.269768   0.000000   0.000000
   21       56.303872     56.302874   0.000000   0.000000
   22       57.082742     57.081667   0.000000   0.000000
   23       61.181006     61.178948   0.000000   0.000000
   24       61.181006     61.178948   0.000000   0.000000
   25       63.626196     63.623475   0.000000   0.000000
   26       64.343300     64.343093   0.000000   0.000000
   27       64.343300     64.343093   0.000000   0.000000
   28       68.029027     68.025250   0.000000   0.000000
   29       69.313725     69.313824   0.000000   0.000000
   30       73.812316     73.812657   0.000000   0.000000
   31       73.812319     73.812660   0.000000   0.000000
   32       76.558546     76.557696   0.000000   0.000000
   33       76.863105     76.864059   0.000000   0.000000
   34       76.863105     76.864060   0.000000   0.000000
   35       78.087571     78.088298   0.000000   0.000000
   36       80.452801     80.452661   0.000000   0.000000
   37       80.452802     80.452663   0.000000   0.000000
   38       88.537236     88.534306   0.000000   0.000000
   39       89.105700     89.104704   0.000000   0.000000
   40       89.105707     89.104702   0.000000   0.000000
   41       90.390874     90.391934   0.000000   0.000000
   42       92.226593     92.225696   0.000000   0.000000
   43       92.226592     92.225698   0.000000   0.000000
   44       94.263931     94.263967   0.000000   0.000000
   45       99.089605     99.088815   0.000000   0.000000
   46       99.089654     99.088848   0.000000   0.000000
   47      102.454121    102.452353   0.000000   0.000000
   48      104.107285    104.107473   0.000000   0.000000

  0.4210526E+00  0.1231463E-14  0.1231463E-14  0.1166351E-02
    1        1.574453      1.573803   1.000000   1.000000
    2        5.671802      5.671057   1.000000   1.000000
    3       18.871619     18.869864   0.000000   0.000000
    4       18.871619     18.869864   0.000000   0.000000
    5       20.102862     20.101179   0.000000   0.000000
    6       20.102862     20.101179   0.000000   0.000000
    7       22.527298     22.525894   0.000000   0.000000
    8       23.967097     23.965441   0.000000   0.000000
    9       31.462697     31.459233   0.000000   0.000000
   10       31.462697     31.459233   0.000000   0.000000
   11       38.206938     38.205024   0.000000   0.000000
   12       40.117993     40.117278   0.000000   0.000000
   13       40.117993     40.117278   0.000000   0.000000
   14       46.342120     46.341777   0.000000   0.000000
   15       48.449919     48.447411   0.000000   0.000000
   16       48.837925     48.836815   0.000000   0.000000
   17       48.837925     48.836815   0.000000   0.000000
   18       54.033442     54.033856   0.000000   0.000000
   19       55.110210     55.109204   0.000000   0.000000
   20       56.002060     56.000748   0.000000   0.000000
   21       56.002060     56.000749   0.000000   0.000000
   22       57.325331     57.324230   0.000000   0.000000
   23       59.016677     59.014736   0.000000   0.000000
   24       59.016677     59.014736   0.000000   0.000000
   25       62.403003     62.400301   0.000000   0.000000
   26       64.176814     64.176643   0.000000   0.000000
   27       64.176814     64.176644   0.000000   0.000000
   28       65.563187     65.563504   0.000000   0.000000
   29       68.659045     68.654789   0.000000   0.000000
   30       73.653051     73.653414   0.000000   0.000000
   31       73.653053     73.653417   0.000000   0.000000
   32       75.913002     75.913800   0.000000   0.000000
   33       75.913002     75.913800   0.000000   0.000000
   34       76.728358     76.727344   0.000000   0.000000
   35       76.853706     76.854919   0.000000   0.000000
   36       80.530183     80.530373   0.000000   0.000000
   37       80.530184     80.530375   0.000000   0.000000
   38       88.541430     88.538476   0.000000   0.000000
   39       88.946459     88.945525   0.000000   0.000000
   40       88.946468     88.945522   0.000000   0.000000
   41       89.598950     89.600082   0.000000   0.000000
   42       94.246238     94.245352   0.000000   0.000000
   43       94.246236     94.245354   0.000000   0.000000
   44       94.305349     94.305674   0.000000   0.000000
   45      100.584219    100.583643   0.000000   0.000000
   46      100.584438    100.583743   0.000000   0.000000
   47      104.202982    104.201005   0.000000   0.000000
   48      104.301451    104.300806   0.000000   0.000000

  0.4736842E+00  0.1242399E-14  0.1242399E-14  0.1166351E-02
    1        2.801238      2.800642   1.000000   1.000000
    2        4.181170      4.180376   1.000000   1.000000
    3       19.152297     19.150329   0.000000   0.000000
    4       19.152297     19.150329   0.000000   0.000000
    5       19.569963     19.568512   0.000000   0.000000
    6       19.569964     19.568512   0.000000   0.000000
    7       22.871952     22.870884   0.000000   0.000000
    8       23.367053     23.365074   0.000000   0.000000
    9       32.508087     32.504035   0.000000   0.000000
   10       32.508088     32.504035   0.000000   0.000000
   11       38.878224     38.878181   0.000000   0.000000
   12       38.878224     38.878181   0.000000   0.000000
   13       39.316797     39.314294   0.000000   0.000000
   14       45.551261     45.552033   0.000000   0.000000
   15       50.205017     50.201737   0.000000   0.000000
   16       51.047861     51.046444   0.000000   0.000000
   17       51.047861     51.046444   0.000000   0.000000
   18       53.782898     53.781758   0.000000   0.000000
   19       55.019534     55.018333   0.000000   0.000000
   20       55.019534     55.018333   0.000000   0.000000
   21       55.986341     55.986243   0.000000   0.000000
   22       57.640246     57.638496   0.000000   0.000000
   23       57.640246     57.638497   0.000000   0.000000
   24       58.010761     58.010000   0.000000   0.000000
   25       61.137609     61.137141   0.000000   0.000000
   26       62.939068     62.937691   0.000000   0.000000
   27       64.259262     64.259031   0.000000   0.000000
   28       64.259262     64.259031   0.000000   0.000000
   29       69.065473     69.060808   0.000000   0.000000
   30       73.585837     73.586231   0.000000   0.000000
   31       73.585837     73.586231   0.000000   0.000000
   32       75.399095     75.399800   0.000000   0.000000
   33       75.399095     75.399800   0.000000   0.000000
   34       76.146033     76.147662   0.000000   0.000000
   35       76.918588     76.917513   0.000000   0.000000
   36       80.543312     80.543646   0.000000   0.000000
   37       80.543312     80.543648   0.000000   0.000000
   38       88.640467     88.636832   0.000000   0.000000
   39       88.859187     88.858282   0.000000   0.000000
   40       88.859187     88.858284   0.000000   0.000000
   41       89.046281     89.048100   0.000000   0.000000
   42       94.157890     94.158343   0.000000   0.000000
   43       95.392756     95.391886   0.000000   0.000000
   44       95.392757     95.391886   0.000000   0.000000
   45      101.317511    101.317708   0.000000   0.000000
   46      101.317512    101.317709   0.000000   0.000000
   47      105.978369    105.976436   0.000000   0.000000
   48      105.978370    105.976442   0.000000   0.000000

  0.5263158E-01  0.5263158E-01  0.1262379E-14  0.8747631E-03
    1       -3.052019     -3.052678   1.000000   1.000000
    2       19.580000     19.578834   0.000000   0.000000
    3       19.580000     19.578834   0.000000   0.000000
    4       19.846174     19.846249   0.000000   0.000000
    5       21.752227     21.747988   0.000000   0.000000
    6       23.100683     23.097381   0.000000   0.000000
    7       23.100683     23.097382   0.000000   0.000000
    8       25.269312     25.270205   0.000000   0.000000
    9       26.073404     26.071449   0.000000   0.000000
   10       27.406775     27.404178   0.000000   0.000000
   11       30.159302     30.157102   0.000000   0.000000
   12       32.624711     32.624845   0.000000   0.000000
   13       32.624711     32.624845   0.000000   0.000000
   14       33.944630     33.943975   0.000000   0.000000
   15       41.485656     41.483644   0.000000   0.000000
   16       55.707777     55.707233   0.000000   0.000000
   17       55.832381     55.831066   0.000000   0.000000
   18       55.832382     55.831066   0.000000   0.000000
   19       56.348887     56.348084   0.000000   0.000000
   20       58.348301     58.346253   0.000000   0.000000
   21       58.348301     58.346253   0.000000   0.000000
   22       59.279741     59.277715   0.000000   0.000000