       N       E                     dE             d eps       ncg     rms          rms(c)
DAV:   1    -0.363347978439E+01   -0.36335E+01   -0.89561E+02 60192   0.343E+01
DAV:   2    -0.368301695419E+01   -0.49537E-01   -0.49436E-01 53232   0.107E+00
DAV:   3    -0.368301939614E+01   -0.24419E-05   -0.24400E-05 65424   0.694E-03
DAV:   4    -0.368301939558E+01    0.55847E-09   -0.11465E-10 59520   0.947E-06
DAV:   5    -0.368301939534E+01    0.24136E-09    0.14490E-13 62400   0.403E-09    0.173E+00
RMM:   6    -0.375299452521E+01   -0.69975E-01   -0.23448E-03 42251   0.757E-02    0.821E-01
RMM:   7    -0.374444582777E+01    0.85487E-02   -0.86054E-04 44127   0.434E-02    0.656E-01
RMM:   8    -0.374415254332E+01    0.29328E-03   -0.18661E-04 43801   0.232E-02    0.202E-01
RMM:   9    -0.374413602187E+01    0.16521E-04   -0.24908E-05 45875   0.766E-03
   1 F= -.37441360E+01 E0= -.37441360E+01  d E =0.000000E+00  mag=     0.0008
