 vasp.6.2.1 16May21 (build Aug 15 2022 14:47:30) complex                         
 executed on             LinuxGNU date 2025.12.15  21:44:38
 running on   48 total cores
 distrk:  each k-point on   48 cores,    1 groups
 distr:  one band on NCORE=   1 cores,   48 groups


--------------------------------------------------------------------------------------------------------


 INCAR:
   ALGO = Fast
   EDIFF = 5e-05
   ENCUT = 520.0
   ISMEAR = -5
   ISPIN = 2
   LASPH = True
   LCHARG = True
   LORBIT = 11
   LREAL = False
   LWAVE = False
   MAGMOM = 1*0.6
   NELM = 100
   NSW = 0
   PREC = Accurate
   SIGMA = 0.05

 POTCAR:    PAW_PBE Al 04Jan2001                  
 -----------------------------------------------------------------------------
|                                                                             |
|           W    W    AA    RRRRR   N    N  II  N    N   GGGG   !!!           |
|           W    W   A  A   R    R  NN   N  II  NN   N  G    G  !!!           |
|           W    W  A    A  R    R  N N  N  II  N N  N  G       !!!           |
|           W WW W  AAAAAA  RRRRR   N  N N  II  N  N N  G  GGG   !            |
|           WW  WW  A    A  R   R   N   NN  II  N   NN  G    G                |
|           W    W  A    A  R    R  N    N  II  N    N   GGGG   !!!           |
|                                                                             |
|     For optimal performance we recommend to set                             |
|       NCORE = 2 up to number-of-cores-per-socket                            |
|     NCORE specifies how many cores store one orbital (NPAR=cpu/NCORE).      |
|     This setting can greatly improve the performance of VASP for DFT.       |
|     The default, NCORE=1 might be grossly inefficient on modern             |
|     multi-core architectures or massively parallel machines. Do your        |
|     own testing! More info at https://www.vasp.at/wiki/index.php/NCORE      |
|     Unfortunately you need to use the default for GW and RPA                |
|     calculations (for HF NCORE is supported but not extensively tested      |
|     yet).                                                                   |
|                                                                             |
 -----------------------------------------------------------------------------

 POTCAR:    PAW_PBE Al 04Jan2001                  
   VRHFIN =Al: s2p1                                                                                 
   LEXCH  = PE                                                                                      
   EATOM  =    53.5387 eV,    3.9350 Ry                                                             
                                                                                                    
   TITEL  = PAW_PBE Al 04Jan2001                                                                    
   LULTRA =        F    use ultrasoft PP ?                                                          
   IUNSCR =        1    unscreen: 0-lin 1-nonlin 2-no                                               
   RPACOR =    1.500    partial core radius                                                         
   POMASS =   26.981; ZVAL   =    3.000    mass and valenz                                          
   RCORE  =    1.900    outmost cutoff radius                                                       
   RWIGS  =    2.650; RWIGS  =    1.402    wigner-seitz radius (au A)                               
   ENMAX  =  240.300; ENMIN  =  180.225 eV                                                          
   ICORE  =        2    local potential                                                             
   LCOR   =        T    correct aug charges                                                         
   LPAW   =        T    paw PP                                                                      
   EAUG   =  291.052                                                                                
   DEXC   =    0.000                                                                                
   RMAX   =    1.939    core radius for proj-oper                                                   
   RAUG   =    1.300    factor for augmentation sphere                                              
   RDEP   =    1.966    radius for radial grids                                                     
   RDEPT  =    1.856    core radius for aug-charge                                                  
                                                                                                    
   Atomic configuration                                                                             
    6 entries                                                                                       
     n  l   j            E        occ.                                                              
     1  0  0.50     -1511.1048   2.0000                                                             
     2  0  0.50      -108.1629   2.0000                                                             
     2  1  1.50       -69.6402   6.0000                                                             
     3  0  0.50        -7.7528   2.0000                                                             
     3  1  1.50        -2.7121   1.0000                                                             
     3  2  2.50        -2.7212   0.0000                                                             
   Description                                                                                      
     l       E           TYP  RCUT    TYP  RCUT                                                     
     0     -7.7528455     23  1.900                                                                 
     0     -3.3096929     23  1.900                                                                 
     1     -2.7120682     23  1.900                                                                 
     1     13.6058260     23  1.900                                                                 
     2     -2.7211652      7  1.900                                                                 
  local pseudopotential read in
  partial core-charges read in
  partial kinetic energy density read in
  atomic valenz-charges read in
  non local Contribution for L=           0  read in
    real space projection operators read in
  non local Contribution for L=           0  read in
    real space projection operators read in
  non local Contribution for L=           1  read in
    real space projection operators read in
  non local Contribution for L=           1  read in
    real space projection operators read in
    PAW grid and wavefunctions read in

   number of l-projection  operators is LMAX  =           4
   number of lm-projection operators is LMMAX =           8

  PAW_PBE Al 04Jan2001                  :
 energy of atom  1       EATOM=  -53.5387
 kinetic energy error for atom=    0.0002 (will be added to EATOM!!)


 POSCAR: # Generated by Masgent for k-point conve
  positions in direct lattice
  No initial velocities read in
 exchange correlation table for  LEXCH =        8
   RHO(1)=    0.500       N(1)  =     2000
   RHO(2)=  100.500       N(2)  =     4000

 VTST: version 4.2, (08/11/21)

 CHAIN: initializing optimizer
 
 OPT: Using VASP Dynamics algorithm
 CHAIN: Read ICHAIN            0

 POSCAR: # Generated by Masgent for k-point conve
  positions in direct lattice
  No initial velocities read in



--------------------------------------------------------------------------------------------------------


 ion  position               nearest neighbor table
   1  0.000  0.000  0.000-

  LATTYP: Found a face centered cubic cell.
 ALAT       =     4.0480000000
  
  Lattice vectors:
  
 A1 = (   0.0000000000,   2.0240000000,   2.0240000000)
 A2 = (   2.0240000000,   0.0000000000,   2.0240000000)
 A3 = (   2.0240000000,   2.0240000000,   0.0000000000)


Analysis of symmetry for initial positions (statically):
=====================================================================
 Subroutine PRICEL returns:
 Original cell was already a primitive cell.
 

 Routine SETGRP: Setting up the symmetry group for a 
 face centered cubic supercell.


 Subroutine GETGRP returns: Found 48 space group operations
 (whereof 48 operations were pure point group operations)
 out of a pool of 48 trial point group operations.


The static configuration has the point symmetry O_h .


Analysis of symmetry for dynamics (positions and initial velocities):
=====================================================================
 Subroutine PRICEL returns:
 Original cell was already a primitive cell.
 

 Routine SETGRP: Setting up the symmetry group for a 
 face centered cubic supercell.


 Subroutine GETGRP returns: Found 48 space group operations
 (whereof 48 operations were pure point group operations)
 out of a pool of 48 trial point group operations.


The dynamic configuration has the point symmetry O_h .


Analysis of structural, dynamic, and magnetic symmetry:
=====================================================================
 Subroutine PRICEL returns:
 Original cell was already a primitive cell.
 

 Routine SETGRP: Setting up the symmetry group for a 
 face centered cubic supercell.


 Subroutine GETGRP returns: Found 48 space group operations
 (whereof 48 operations were pure point group operations)
 out of a pool of 48 trial point group operations.


The overall configuration has the point symmetry O_h .


 Subroutine INISYM returns: Found 48 space group operations
 (whereof 48 operations are pure point group operations),
 and found     1 'primitive' translations


----------------------------------------------------------------------------------------

                                     Primitive cell                                     

  volume of cell :      16.5829

  direct lattice vectors                    reciprocal lattice vectors
     0.000000000  2.024000000  2.024000000    -0.247035573  0.247035573  0.247035573
     2.024000000  0.000000000  2.024000000     0.247035573 -0.247035573  0.247035573
     2.024000000  2.024000000  0.000000000     0.247035573  0.247035573 -0.247035573

  length of vectors
     2.862368250  2.862368250  2.862368250     0.427878164  0.427878164  0.427878164

  position of ions in fractional coordinates (direct lattice)
     0.000000000  0.000000000  0.000000000

  ion indices of the primitive-cell ions
   primitive index   ion index
                 1           1

----------------------------------------------------------------------------------------



 KPOINTS: # Generated by Masgent for k-point conve

Automatic generation of k-mesh.
 Grid dimensions read from file:
 generate k-points for:   19   19   19

 Generating k-lattice:

  Cartesian coordinates                     Fractional coordinates (reciprocal lattice)
    -0.013001872  0.013001872  0.013001872     0.052631579  0.000000000  0.000000000
     0.013001872 -0.013001872  0.013001872     0.000000000  0.052631579  0.000000000
     0.013001872  0.013001872 -0.013001872     0.000000000  0.000000000  0.052631579

  Length of vectors
     0.022519903  0.022519903  0.022519903

  Shift w.r.t. Gamma in fractional coordinates (k-lattice)
     0.000000000  0.000000000  0.000000000

 TETIRR: Found    955 inequivalent tetrahedra from    41154
 
 Subroutine IBZKPT returns following result:
 ===========================================
 
 Found    220 irreducible k-points:
 
 Following reciprocal coordinates:
            Coordinates               Weight
  0.000000  0.000000  0.000000      1.000000
  0.052632  0.000000  0.000000      8.000000
  0.105263  0.000000  0.000000      8.000000
  0.157895  0.000000  0.000000      8.000000
  0.210526  0.000000  0.000000      8.000000
  0.263158  0.000000  0.000000      8.000000
  0.315789  0.000000  0.000000      8.000000
  0.368421  0.000000  0.000000      8.000000
  0.421053  0.000000  0.000000      8.000000
  0.473684  0.000000  0.000000      8.000000
  0.052632  0.052632  0.000000      6.000000
  0.105263  0.052632  0.000000     24.000000
  0.157895  0.052632  0.000000     24.000000
  0.210526  0.052632  0.000000     24.000000
  0.263158  0.052632  0.000000     24.000000
  0.315789  0.052632  0.000000     24.000000
  0.368421  0.052632  0.000000     24.000000
  0.421053  0.052632  0.000000     24.000000
  0.473684  0.052632  0.000000     24.000000
 -0.473684  0.052632  0.000000     24.000000
 -0.421053  0.052632  0.000000     24.000000
 -0.368421  0.052632  0.000000     24.000000
 -0.315789  0.052632  0.000000     24.000000
 -0.263158  0.052632  0.000000     24.000000
 -0.210526  0.052632  0.000000     24.000000
 -0.157895  0.052632  0.000000     24.000000
 -0.105263  0.052632  0.000000     24.000000
 -0.052632  0.052632  0.000000     12.000000
  0.105263  0.105263  0.000000      6.000000
  0.157895  0.105263  0.000000     24.000000
  0.210526  0.105263  0.000000     24.000000
  0.263158  0.105263  0.000000     24.000000
  0.315789  0.105263  0.000000     24.000000
  0.368421  0.105263  0.000000     24.000000
  0.421053  0.105263  0.000000     24.000000
  0.473684  0.105263  0.000000     24.000000
 -0.473684  0.105263  0.000000     24.000000
 -0.421053  0.105263  0.000000     24.000000
 -0.368421  0.105263  0.000000     24.000000
 -0.315789  0.105263  0.000000     24.000000
 -0.263158  0.105263  0.000000     24.000000
 -0.210526  0.105263  0.000000     24.000000
 -0.157895  0.105263  0.000000     24.000000
 -0.105263  0.105263  0.000000     12.000000
  0.157895  0.157895  0.000000      6.000000
  0.210526  0.157895  0.000000     24.000000
  0.263158  0.157895  0.000000     24.000000
  0.315789  0.157895  0.000000     24.000000
  0.368421  0.157895  0.000000     24.000000
  0.421053  0.157895  0.000000     24.000000
  0.473684  0.157895  0.000000     24.000000
 -0.473684  0.157895  0.000000     24.000000
 -0.421053  0.157895  0.000000     24.000000
 -0.368421  0.157895  0.000000     24.000000
 -0.315789  0.157895  0.000000     24.000000
 -0.263158  0.157895  0.000000     24.000000
 -0.210526  0.157895  0.000000     24.000000
 -0.157895  0.157895  0.000000     12.000000
  0.210526  0.210526  0.000000      6.000000
  0.263158  0.210526  0.000000     24.000000
  0.315789  0.210526  0.000000     24.000000
  0.368421  0.210526  0.000000     24.000000
  0.421053  0.210526  0.000000     24.000000
  0.473684  0.210526  0.000000     24.000000
 -0.473684  0.210526  0.000000     24.000000
 -0.421053  0.210526  0.000000     24.000000
 -0.368421  0.210526  0.000000     24.000000
 -0.315789  0.210526  0.000000     24.000000
 -0.263158  0.210526  0.000000     24.000000
 -0.210526  0.210526  0.000000     12.000000
  0.263158  0.263158  0.000000      6.000000
  0.315789  0.263158  0.000000     24.000000
  0.368421  0.263158  0.000000     24.000000
  0.421053  0.263158  0.000000     24.000000
  0.473684  0.263158  0.000000     24.000000
 -0.473684  0.263158  0.000000     24.000000
 -0.421053  0.263158  0.000000     24.000000
 -0.368421  0.263158  0.000000     24.000000
 -0.315789  0.263158  0.000000     24.000000
 -0.263158  0.263158  0.000000     12.000000
  0.315789  0.315789  0.000000      6.000000
  0.368421  0.315789  0.000000     24.000000
  0.421053  0.315789  0.000000     24.000000
  0.473684  0.315789  0.000000     24.000000
 -0.473684  0.315789  0.000000     24.000000
 -0.421053  0.315789  0.000000     24.000000
 -0.368421  0.315789  0.000000     24.000000
 -0.315789  0.315789  0.000000     12.000000
  0.368421  0.368421  0.000000      6.000000
  0.421053  0.368421  0.000000     24.000000
  0.473684  0.368421  0.000000     24.000000
 -0.473684  0.368421  0.000000     24.000000
 -0.421053  0.368421  0.000000     24.000000
 -0.368421  0.368421  0.000000     12.000000
  0.421053  0.421053  0.000000      6.000000
  0.473684  0.421053  0.000000     24.000000
 -0.473684  0.421053  0.000000     24.000000
 -0.421053  0.421053  0.000000     12.000000
  0.473684  0.473684  0.000000      6.000000
 -0.473684  0.473684  0.000000     12.000000
  0.157895  0.105263  0.052632     24.000000
  0.210526  0.105263  0.052632     48.000000
  0.263158  0.105263  0.052632     48.000000
  0.315789  0.105263  0.052632     48.000000
  0.368421  0.105263  0.052632     48.000000
  0.421053  0.105263  0.052632     48.000000
  0.473684  0.105263  0.052632     48.000000
 -0.473684  0.105263  0.052632     48.000000
  0.210526  0.157895  0.052632     24.000000
  0.263158  0.157895  0.052632     48.000000
  0.315789  0.157895  0.052632     48.000000
  0.368421  0.157895  0.052632     48.000000
  0.421053  0.157895  0.052632     48.000000
  0.473684  0.157895  0.052632     48.000000
 -0.473684  0.157895  0.052632     48.000000
 -0.421053  0.157895  0.052632     48.000000
 -0.368421  0.157895  0.052632     48.000000
 -0.315789  0.157895  0.052632     48.000000
 -0.263158  0.157895  0.052632     48.000000
 -0.210526  0.157895  0.052632     48.000000
 -0.157895  0.157895  0.052632     48.000000
 -0.105263  0.157895  0.052632     24.000000
  0.263158  0.210526  0.052632     24.000000
  0.315789  0.210526  0.052632     48.000000
  0.368421  0.210526  0.052632     48.000000
  0.421053  0.210526  0.052632     48.000000
  0.473684  0.210526  0.052632     48.000000
 -0.473684  0.210526  0.052632     48.000000
 -0.421053  0.210526  0.052632     48.000000
 -0.368421  0.210526  0.052632     48.000000
 -0.315789  0.210526  0.052632     48.000000
 -0.263158  0.210526  0.052632     48.000000
 -0.210526  0.210526  0.052632     48.000000
 -0.157895  0.210526  0.052632     24.000000
  0.315789  0.263158  0.052632     24.000000
  0.368421  0.263158  0.052632     48.000000
  0.421053  0.263158  0.052632     48.000000
  0.473684  0.263158  0.052632     48.000000
 -0.473684  0.263158  0.052632     48.000000
 -0.421053  0.263158  0.052632     48.000000
 -0.368421  0.263158  0.052632     48.000000
 -0.315789  0.263158  0.052632     48.000000
 -0.263158  0.263158  0.052632     48.000000
 -0.210526  0.263158  0.052632     24.000000
  0.368421  0.315789  0.052632     24.000000
  0.421053  0.315789  0.052632     48.000000
  0.473684  0.315789  0.052632     48.000000
 -0.473684  0.315789  0.052632     48.000000
 -0.421053  0.315789  0.052632     48.000000
 -0.368421  0.315789  0.052632     48.000000
 -0.315789  0.315789  0.052632     48.000000
 -0.263158  0.315789  0.052632     24.000000
  0.421053  0.368421  0.052632     24.000000
  0.473684  0.368421  0.052632     48.000000
 -0.473684  0.368421  0.052632     48.000000
 -0.421053  0.368421  0.052632     48.000000
 -0.368421  0.368421  0.052632     48.000000
 -0.315789  0.368421  0.052632     24.000000
  0.473684  0.421053  0.052632     24.000000
 -0.473684  0.421053  0.052632     48.000000
 -0.421053  0.421053  0.052632     48.000000
 -0.368421  0.421053  0.052632     24.000000
 -0.473684  0.473684  0.052632     24.000000
 -0.421053  0.473684  0.052632     24.000000
  0.315789  0.210526  0.105263     24.000000
  0.368421  0.210526  0.105263     48.000000
  0.421053  0.210526  0.105263     48.000000
  0.473684  0.210526  0.105263     48.000000
 -0.473684  0.210526  0.105263     48.000000
 -0.421053  0.210526  0.105263     48.000000
  0.368421  0.263158  0.105263     24.000000
  0.421053  0.263158  0.105263     48.000000
  0.473684  0.263158  0.105263     48.000000
 -0.473684  0.263158  0.105263     48.000000
 -0.421053  0.263158  0.105263     48.000000
 -0.368421  0.263158  0.105263     48.000000
 -0.315789  0.263158  0.105263     48.000000
 -0.263158  0.263158  0.105263     48.000000
 -0.210526  0.263158  0.105263     48.000000
 -0.157895  0.263158  0.105263     24.000000
  0.421053  0.315789  0.105263     24.000000
  0.473684  0.315789  0.105263     48.000000
 -0.473684  0.315789  0.105263     48.000000
 -0.421053  0.315789  0.105263     48.000000
 -0.368421  0.315789  0.105263     48.000000
 -0.315789  0.315789  0.105263     48.000000
 -0.263158  0.315789  0.105263     48.000000
 -0.210526  0.315789  0.105263     24.000000
  0.473684  0.368421  0.105263     24.000000
 -0.473684  0.368421  0.105263     48.000000
 -0.421053  0.368421  0.105263     48.000000
 -0.368421  0.368421  0.105263     48.000000
 -0.315789  0.368421  0.105263     48.000000
 -0.263158  0.368421  0.105263     24.000000
 -0.473684  0.421053  0.105263     24.000000
 -0.421053  0.421053  0.105263     48.000000
 -0.368421  0.421053  0.105263     48.000000
 -0.315789  0.421053  0.105263     24.000000
 -0.421053  0.473684  0.105263     24.000000
 -0.368421  0.473684  0.105263     24.000000
  0.473684  0.315789  0.157895     24.000000
 -0.473684  0.315789  0.157895     48.000000
 -0.421053  0.315789  0.157895     48.000000
 -0.368421  0.315789  0.157895     48.000000
 -0.473684  0.368421  0.157895     24.000000
 -0.421053  0.368421  0.157895     48.000000
 -0.368421  0.368421  0.157895     48.000000
 -0.315789  0.368421  0.157895     48.000000
 -0.263158  0.368421  0.157895     48.000000
 -0.210526  0.368421  0.157895     24.000000
 -0.421053  0.421053  0.157895     24.000000
 -0.368421  0.421053  0.157895     48.000000
 -0.315789  0.421053  0.157895     48.000000
 -0.263158  0.421053  0.157895     24.000000
 -0.368421  0.473684  0.157895     24.000000
 -0.315789  0.473684  0.157895     24.000000
 -0.368421  0.421053  0.210526     24.000000
 -0.315789  0.421053  0.210526     48.000000
 -0.315789  0.473684  0.210526     24.000000
 -0.263158  0.473684  0.210526     24.000000
 
 Following cartesian coordinates:
            Coordinates               Weight
  0.000000  0.000000  0.000000      1.000000
 -0.013002  0.013002  0.013002      8.000000
 -0.026004  0.026004  0.026004      8.000000
 -0.039006  0.039006  0.039006      8.000000
 -0.052007  0.052007  0.052007      8.000000
 -0.065009  0.065009  0.065009      8.000000
 -0.078011  0.078011  0.078011      8.000000
 -0.091013  0.091013  0.091013      8.000000
 -0.104015  0.104015  0.104015      8.000000
 -0.117017  0.117017  0.117017      8.000000
  0.000000  0.000000  0.026004      6.000000
 -0.013002  0.013002  0.039006     24.000000
 -0.026004  0.026004  0.052007     24.000000
 -0.039006  0.039006  0.065009     24.000000
 -0.052007  0.052007  0.078011     24.000000
 -0.065009  0.065009  0.091013     24.000000
 -0.078011  0.078011  0.104015     24.000000
 -0.091013  0.091013  0.117017     24.000000
 -0.104015  0.104015  0.130019     24.000000
  0.130019 -0.130019 -0.104015     24.000000
  0.117017 -0.117017 -0.091013     24.000000
  0.104015 -0.104015 -0.078011     24.000000
  0.091013 -0.091013 -0.065009     24.000000
  0.078011 -0.078011 -0.052007     24.000000
  0.065009 -0.065009 -0.039006     24.000000
  0.052007 -0.052007 -0.026004     24.000000
  0.039006 -0.039006 -0.013002     24.000000
  0.026004 -0.026004  0.000000     12.000000
  0.000000  0.000000  0.052007      6.000000
 -0.013002  0.013002  0.065009     24.000000
 -0.026004  0.026004  0.078011     24.000000
 -0.039006  0.039006  0.091013     24.000000
 -0.052007  0.052007  0.104015     24.000000
 -0.065009  0.065009  0.117017     24.000000
 -0.078011  0.078011  0.130019     24.000000
 -0.091013  0.091013  0.143021     24.000000
  0.143021 -0.143021 -0.091013     24.000000
  0.130019 -0.130019 -0.078011     24.000000
  0.117017 -0.117017 -0.065009     24.000000
  0.104015 -0.104015 -0.052007     24.000000
  0.091013 -0.091013 -0.039006     24.000000
  0.078011 -0.078011 -0.026004     24.000000
  0.065009 -0.065009 -0.013002     24.000000
  0.052007 -0.052007  0.000000     12.000000
  0.000000  0.000000  0.078011      6.000000
 -0.013002  0.013002  0.091013     24.000000
 -0.026004  0.026004  0.104015     24.000000
 -0.039006  0.039006  0.117017     24.000000
 -0.052007  0.052007  0.130019     24.000000
 -0.065009  0.065009  0.143021     24.000000
 -0.078011  0.078011  0.156022     24.000000
  0.156022 -0.156022 -0.078011     24.000000
  0.143021 -0.143021 -0.065009     24.000000
  0.130019 -0.130019 -0.052007     24.000000
  0.117017 -0.117017 -0.039006     24.000000
  0.104015 -0.104015 -0.026004     24.000000
  0.091013 -0.091013 -0.013002     24.000000
  0.078011 -0.078011  0.000000     12.000000
  0.000000  0.000000  0.104015      6.000000
 -0.013002  0.013002  0.117017     24.000000
 -0.026004  0.026004  0.130019     24.000000
 -0.039006  0.039006  0.143021     24.000000
 -0.052007  0.052007  0.156022     24.000000
 -0.065009  0.065009  0.169024     24.000000
  0.169024 -0.169024 -0.065009     24.000000
  0.156022 -0.156022 -0.052007     24.000000
  0.143021 -0.143021 -0.039006     24.000000
  0.130019 -0.130019 -0.026004     24.000000
  0.117017 -0.117017 -0.013002     24.000000
  0.104015 -0.104015  0.000000     12.000000
  0.000000  0.000000  0.130019      6.000000
 -0.013002  0.013002  0.143021     24.000000
 -0.026004  0.026004  0.156022     24.000000
 -0.039006  0.039006  0.169024     24.000000
 -0.052007  0.052007  0.182026     24.000000
  0.182026 -0.182026 -0.052007     24.000000
  0.169024 -0.169024 -0.039006     24.000000
  0.156022 -0.156022 -0.026004     24.000000
  0.143021 -0.143021 -0.013002     24.000000
  0.130019 -0.130019  0.000000     12.000000
  0.000000  0.000000  0.156022      6.000000
 -0.013002  0.013002  0.169024     24.000000
 -0.026004  0.026004  0.182026     24.000000
 -0.039006  0.039006  0.195028     24.000000
  0.195028 -0.195028 -0.039006     24.000000
  0.182026 -0.182026 -0.026004     24.000000
  0.169024 -0.169024 -0.013002     24.000000
  0.156022 -0.156022  0.000000     12.000000
  0.000000  0.000000  0.182026      6.000000
 -0.013002  0.013002  0.195028     24.000000
 -0.026004  0.026004  0.208030     24.000000
  0.208030 -0.208030 -0.026004     24.000000
  0.195028 -0.195028 -0.013002     24.000000
  0.182026 -0.182026  0.000000     12.000000
  0.000000  0.000000  0.208030      6.000000
 -0.013002  0.013002  0.221032     24.000000
  0.221032 -0.221032 -0.013002     24.000000
  0.208030 -0.208030  0.000000     12.000000
  0.000000  0.000000  0.234034      6.000000
  0.234034 -0.234034  0.000000     12.000000
  0.000000  0.026004  0.052007     24.000000
 -0.013002  0.039006  0.065009     48.000000
 -0.026004  0.052007  0.078011     48.000000
 -0.039006  0.065009  0.091013     48.000000
 -0.052007  0.078011  0.104015     48.000000
 -0.065009  0.091013  0.117017     48.000000
 -0.078011  0.104015  0.130019     48.000000
  0.156022 -0.130019 -0.104015     48.000000
  0.000000  0.026004  0.078011     24.000000
 -0.013002  0.039006  0.091013     48.000000
 -0.026004  0.052007  0.104015     48.000000
 -0.039006  0.065009  0.117017     48.000000
 -0.052007  0.078011  0.130019     48.000000
 -0.065009  0.091013  0.143021     48.000000
  0.169024 -0.143021 -0.091013     48.000000
  0.156022 -0.130019 -0.078011     48.000000
  0.143021 -0.117017 -0.065009     48.000000
  0.130019 -0.104015 -0.052007     48.000000
  0.117017 -0.091013 -0.039006     48.000000
  0.104015 -0.078011 -0.026004     48.000000
  0.091013 -0.065009 -0.013002     48.000000
  0.078011 -0.052007 -0.000000     24.000000
  0.000000  0.026004  0.104015     24.000000
 -0.013002  0.039006  0.117017     48.000000
 -0.026004  0.052007  0.130019     48.000000
 -0.039006  0.065009  0.143021     48.000000
 -0.052007  0.078011  0.156022     48.000000
  0.182026 -0.156022 -0.078011     48.000000
  0.169024 -0.143021 -0.065009     48.000000
  0.156022 -0.130019 -0.052007     48.000000
  0.143021 -0.117017 -0.039006     48.000000
  0.130019 -0.104015 -0.026004     48.000000
  0.117017 -0.091013 -0.013002     48.000000
  0.104015 -0.078011  0.000000     24.000000
  0.000000  0.026004  0.130019     24.000000
 -0.013002  0.039006  0.143021     48.000000
 -0.026004  0.052007  0.156022     48.000000
 -0.039006  0.065009  0.169024     48.000000
  0.195028 -0.169024 -0.065009     48.000000
  0.182026 -0.156022 -0.052007     48.000000
  0.169024 -0.143021 -0.039006     48.000000
  0.156022 -0.130019 -0.026004     48.000000
  0.143021 -0.117017 -0.013002     48.000000
  0.130019 -0.104015  0.000000     24.000000
  0.000000  0.026004  0.156022     24.000000
 -0.013002  0.039006  0.169024     48.000000
 -0.026004  0.052007  0.182026     48.000000
  0.208030 -0.182026 -0.052007     48.000000
  0.195028 -0.169024 -0.039006     48.000000
  0.182026 -0.156022 -0.026004     48.000000
  0.169024 -0.143021 -0.013002     48.000000
  0.156022 -0.130019  0.000000     24.000000
  0.000000  0.026004  0.182026     24.000000
 -0.013002  0.039006  0.195028     48.000000
  0.221032 -0.195028 -0.039006     48.000000
  0.208030 -0.182026 -0.026004     48.000000
  0.195028 -0.169024 -0.013002     48.000000
  0.182026 -0.156022  0.000000     24.000000
  0.000000  0.026004  0.208030     24.000000
  0.234034 -0.208030 -0.026004     48.000000
  0.221032 -0.195028 -0.013002     48.000000
  0.208030 -0.182026  0.000000     24.000000
  0.247036 -0.221032 -0.013002     24.000000
  0.234034 -0.208030  0.000000     24.000000
  0.000000  0.052007  0.104015     24.000000
 -0.013002  0.065009  0.117017     48.000000
 -0.026004  0.078011  0.130019     48.000000
 -0.039006  0.091013  0.143021     48.000000
  0.195028 -0.143021 -0.091013     48.000000
  0.182026 -0.130019 -0.078011     48.000000
  0.000000  0.052007  0.130019     24.000000
 -0.013002  0.065009  0.143021     48.000000
 -0.026004  0.078011  0.156022     48.000000
  0.208030 -0.156022 -0.078011     48.000000
  0.195028 -0.143021 -0.065009     48.000000
  0.182026 -0.130019 -0.052007     48.000000
  0.169024 -0.117017 -0.039006     48.000000
  0.156022 -0.104015 -0.026004     48.000000
  0.143021 -0.091013 -0.013002     48.000000
  0.130019 -0.078011  0.000000     24.000000
  0.000000  0.052007  0.156022     24.000000
 -0.013002  0.065009  0.169024     48.000000
  0.221032 -0.169024 -0.065009     48.000000
  0.208030 -0.156022 -0.052007     48.000000
  0.195028 -0.143021 -0.039006     48.000000
  0.182026 -0.130019 -0.026004     48.000000
  0.169024 -0.117017 -0.013002     48.000000
  0.156022 -0.104015  0.000000     24.000000
  0.000000  0.052007  0.182026     24.000000
  0.234034 -0.182026 -0.052007     48.000000
  0.221032 -0.169024 -0.039006     48.000000
  0.208030 -0.156022 -0.026004     48.000000
  0.195028 -0.143021 -0.013002     48.000000
  0.182026 -0.130019  0.000000     24.000000
  0.247036 -0.195028 -0.039006     24.000000
  0.234034 -0.182026 -0.026004     48.000000
  0.221032 -0.169024 -0.013002     48.000000
  0.208030 -0.156022 -0.000000     24.000000
  0.247036 -0.195028 -0.013002     24.000000
  0.234034 -0.182026  0.000000     24.000000
  0.000000  0.078011  0.156022     24.000000
  0.234034 -0.156022 -0.078011     48.000000
  0.221032 -0.143021 -0.065009     48.000000
  0.208030 -0.130019 -0.052007     48.000000
  0.247036 -0.169024 -0.065009     24.000000
  0.234034 -0.156022 -0.052007     48.000000
  0.221032 -0.143021 -0.039006     48.000000
  0.208030 -0.130019 -0.026004     48.000000
  0.195028 -0.117017 -0.013002     48.000000
  0.182026 -0.104015  0.000000     24.000000
  0.247036 -0.169024 -0.039006     24.000000
  0.234034 -0.156022 -0.026004     48.000000
  0.221032 -0.143021 -0.013002     48.000000
  0.208030 -0.130019  0.000000     24.000000
  0.247036 -0.169024 -0.013002     24.000000
  0.234034 -0.156022  0.000000     24.000000
  0.247036 -0.143021 -0.039006     24.000000
  0.234034 -0.130019 -0.026004     48.000000
  0.247036 -0.143021 -0.013002     24.000000
  0.234034 -0.130019  0.000000     24.000000
 


--------------------------------------------------------------------------------------------------------




 Dimension of arrays:
   k-points           NKPTS =    220   k-points in BZ     NKDIM =    220   number of bands    NBANDS=     48
   number of dos      NEDOS =    301   number of ions     NIONS =      1
   non local maximal  LDIM  =      4   non local SUM 2l+1 LMDIM =      8
   total plane-waves  NPLWV =  13824
   max r-space proj   IRMAX =      1   max aug-charges    IRDMAX=  32640
   dimension x,y,z NGX =    24 NGY =   24 NGZ =   24
   dimension x,y,z NGXF=    48 NGYF=   48 NGZF=   48
   support grid    NGXF=    48 NGYF=   48 NGZF=   48
   ions per type =               1
   NGX,Y,Z   is equivalent  to a cutoff of  13.94, 13.94, 13.94 a.u.
   NGXF,Y,Z  is equivalent  to a cutoff of  27.88, 27.88, 27.88 a.u.

 SYSTEM =  unknown system                          
 POSCAR =  # Generated by Masgent for k-point conve

 Startparameter for this run:
   NWRITE =      2    write-flag & timer
   PREC   = accura    normal or accurate (medium, high low for compatibility)
   ISTART =      0    job   : 0-new  1-cont  2-samecut
   ICHARG =      2    charge: 1-file 2-atom 10-const
   ISPIN  =      2    spin polarized calculation?
   LNONCOLLINEAR =      F non collinear calculations
   LSORBIT =      F    spin-orbit coupling
   INIWAV =      1    electr: 0-lowe 1-rand  2-diag
   LASPH  =      T    aspherical Exc in radial PAW
 Electronic Relaxation 1
   ENCUT  =  520.0 eV  38.22 Ry    6.18 a.u.   5.32  5.32  5.32*2*pi/ulx,y,z
   ENINI  =  520.0     initial cutoff
   ENAUG  =  291.1 eV  augmentation charge cutoff
   NELM   =    100;   NELMIN=  2; NELMDL=  0     # of ELM steps 
   EDIFF  = 0.5E-04   stopping-criterion for ELM
   LREAL  =      F    real-space projection
   NLSPLINE    = F    spline interpolate recip. space projectors
   LCOMPAT=      F    compatible to vasp.4.4
   GGA_COMPAT  = T    GGA compatible to vasp.4.4-vasp.4.6
   LMAXPAW     = -100 max onsite density
   LMAXMIX     =    2 max onsite mixed and CHGCAR
   VOSKOWN=      0    Vosko Wilk Nusair interpolation
   ROPT   =    0.00000
 Ionic relaxation
   EDIFFG = 0.5E-03   stopping-criterion for IOM
   NSW    =      0    number of steps for IOM
   NBLOCK =      1;   KBLOCK =      1    inner block; outer block 
   IBRION =     -1    ionic relax: 0-MD 1-quasi-New 2-CG
   NFREE  =      0    steps in history (QN), initial steepest desc. (CG)
   ISIF   =      2    stress and relaxation
   IWAVPR =     10    prediction:  0-non 1-charg 2-wave 3-comb
   ISYM   =      2    0-nonsym 1-usesym 2-fastsym
   LCORR  =      T    Harris-Foulkes like correction to forces

   POTIM  = 0.5000    time-step for ionic-motion
   TEIN   =    0.0    initial temperature
   TEBEG  =    0.0;   TEEND  =   0.0 temperature during run
   SMASS  =  -3.00    Nose mass-parameter (am)
   estimated Nose-frequenzy (Omega)   =  0.10E-29 period in steps = 0.13E+47 mass=  -0.187E-27a.u.
   SCALEE = 1.0000    scale energy and forces
   NPACO  =    256;   APACO  = 16.0  distance and # of slots for P.C.
   PSTRESS=    0.0 pullay stress

  Mass of Ions in am
   POMASS =  26.98
  Ionic Valenz
   ZVAL   =   3.00
  Atomic Wigner-Seitz radii
   RWIGS  =  -1.00
  virtual crystal weights 
   VCA    =   1.00
   NELECT =       3.0000    total number of electrons
   NUPDOWN=      -1.0000    fix difference up-down

 DOS related values:
   EMIN   =  10.00;   EMAX   =-10.00  energy-range for DOS
   EFERMI =   0.00
   ISMEAR =    -5;   SIGMA  =   0.05  broadening in eV -4-tet -1-fermi 0-gaus

 Electronic relaxation 2 (details)
   IALGO  =     68    algorithm
   LDIAG  =      T    sub-space diagonalisation (order eigenvalues)
   LSUBROT=      F    optimize rotation matrix (better conditioning)
   TURBO    =      0    0=normal 1=particle mesh
   IRESTART =      0    0=no restart 2=restart with 2 vectors
   NREBOOT  =      0    no. of reboots
   NMIN     =      0    reboot dimension
   EREF     =   0.00    reference energy to select bands
   IMIX   =      4    mixing-type and parameters
     AMIX     =   0.40;   BMIX     =  1.00
     AMIX_MAG =   1.60;   BMIX_MAG =  1.00
     AMIN     =   0.10
     WC   =   100.;   INIMIX=   1;  MIXPRE=   1;  MAXMIX= -45

 Intra band minimization:
   WEIMIN = 0.0000     energy-eigenvalue tresh-hold
   EBREAK =  0.26E-06  absolut break condition
   DEPER  =   0.30     relativ break condition  

   TIME   =   0.40     timestep for ELM

  volume/ion in A,a.u.               =      16.58       111.91
  Fermi-wavevector in a.u.,A,eV,Ry     =   0.925894  1.749687 11.664006  0.857280
  Thomas-Fermi vector in A             =   2.051798

 Write flags
   LWAVE        =      F    write WAVECAR
   LDOWNSAMPLE  =      F    k-point downsampling of WAVECAR
   LCHARG       =      T    write CHGCAR
   LVTOT        =      F    write LOCPOT, total local potential
   LVHAR        =      F    write LOCPOT, Hartree potential only
   LELF         =      F    write electronic localiz. function (ELF)
   LORBIT       =     11    0 simple, 1 ext, 2 COOP (PROOUT), +10 PAW based schemes


 Dipole corrections
   LMONO  =      F    monopole corrections only (constant potential shift)
   LDIPOL =      F    correct potential (dipole corrections)
   IDIPOL =      0    1-x, 2-y, 3-z, 4-all directions 
   EPSILON=  1.0000000 bulk dielectric constant

 Exchange correlation treatment:
   GGA     =    --    GGA type
   LEXCH   =     8    internal setting for exchange type
   VOSKOWN=      0    Vosko Wilk Nusair interpolation
   LHFCALC =     F    Hartree Fock is set to
   LHFONE  =     F    Hartree Fock one center treatment
   AEXX    =    0.0000 exact exchange contribution

 Linear response parameters
   LEPSILON=     F    determine dielectric tensor
   LRPA    =     F    only Hartree local field effects (RPA)
   LNABLA  =     F    use nabla operator in PAW spheres
   LVEL    =     F    velocity operator in full k-point grid
   LINTERFAST=   F  fast interpolation
   KINTER  =     0    interpolate to denser k-point grid
   CSHIFT  =0.1000    complex shift for real part using Kramers Kronig
   OMEGAMAX=  -1.0    maximum frequency
   DEG_THRESHOLD= 0.2000000E-02 threshold for treating states as degnerate
   RTIME   =   -0.100 relaxation time in fs
  (WPLASMAI=    0.000 imaginary part of plasma frequency in eV, 0.658/RTIME)
   DFIELD  = 0.0000000 0.0000000 0.0000000 field for delta impulse in time

 Orbital magnetization related:
   ORBITALMAG=     F  switch on orbital magnetization
   LCHIMAG   =     F  perturbation theory with respect to B field
   DQ        =  0.001000  dq finite difference perturbation B field
   LLRAUG    =     F  two centre corrections for induced B field



--------------------------------------------------------------------------------------------------------


 Static calculation
 charge density and potential will be updated during run
 spin polarized calculation
 RMM-DIIS sequential band-by-band and
  variant of blocked Davidson during initial phase
 perform sub-space diagonalisation
    before iterative eigenvector-optimisation
 modified Broyden-mixing scheme, WC =      100.0
 initial mixing is a Kerker type mixing with AMIX =  0.4000 and BMIX =      1.0000
 Hartree-type preconditioning will be used
 using additional bands           46
 reciprocal scheme for non local part
 use partial core corrections
 calculate Harris-corrections to forces   (improved forces if not selfconsistent)
 use gradient corrections 
 use of overlap-Matrix (Vanderbilt PP)
 Fermi weights with tetrahedron method with Bloechl corrections


--------------------------------------------------------------------------------------------------------


  energy-cutoff  :      520.00
  volume of cell :       16.58
      direct lattice vectors                 reciprocal lattice vectors
     0.000000000  2.024000000  2.024000000    -0.247035573  0.247035573  0.247035573
     2.024000000  0.000000000  2.024000000     0.247035573 -0.247035573  0.247035573
     2.024000000  2.024000000  0.000000000     0.247035573  0.247035573 -0.247035573

  length of vectors
     2.862368250  2.862368250  2.862368250     0.427878164  0.427878164  0.427878164



 k-points in units of 2pi/SCALE and weight: # Generated by Masgent for k-point conve
   0.00000000  0.00000000  0.00000000       0.000
  -0.01300187  0.01300187  0.01300187       0.001
  -0.02600374  0.02600374  0.02600374       0.001
  -0.03900562  0.03900562  0.03900562       0.001
  -0.05200749  0.05200749  0.05200749       0.001
  -0.06500936  0.06500936  0.06500936       0.001
  -0.07801123  0.07801123  0.07801123       0.001
  -0.09101311  0.09101311  0.09101311       0.001
  -0.10401498  0.10401498  0.10401498       0.001
  -0.11701685  0.11701685  0.11701685       0.001
   0.00000000  0.00000000  0.02600374       0.001
  -0.01300187  0.01300187  0.03900562       0.003
  -0.02600374  0.02600374  0.05200749       0.003
  -0.03900562  0.03900562  0.06500936       0.003
  -0.05200749  0.05200749  0.07801123       0.003
  -0.06500936  0.06500936  0.09101311       0.003
  -0.07801123  0.07801123  0.10401498       0.003
  -0.09101311  0.09101311  0.11701685       0.003
  -0.10401498  0.10401498  0.13001872       0.003
   0.13001872 -0.13001872 -0.10401498       0.003
   0.11701685 -0.11701685 -0.09101311       0.003
   0.10401498 -0.10401498 -0.07801123       0.003
   0.09101311 -0.09101311 -0.06500936       0.003
   0.07801123 -0.07801123 -0.05200749       0.003
   0.06500936 -0.06500936 -0.03900562       0.003
   0.05200749 -0.05200749 -0.02600374       0.003
   0.03900562 -0.03900562 -0.01300187       0.003
   0.02600374 -0.02600374  0.00000000       0.002
   0.00000000  0.00000000  0.05200749       0.001
  -0.01300187  0.01300187  0.06500936       0.003
  -0.02600374  0.02600374  0.07801123       0.003
  -0.03900562  0.03900562  0.09101311       0.003
  -0.05200749  0.05200749  0.10401498       0.003
  -0.06500936  0.06500936  0.11701685       0.003
  -0.07801123  0.07801123  0.13001872       0.003
  -0.09101311  0.09101311  0.14302059       0.003
   0.14302059 -0.14302059 -0.09101311       0.003
   0.13001872 -0.13001872 -0.07801123       0.003
   0.11701685 -0.11701685 -0.06500936       0.003
   0.10401498 -0.10401498 -0.05200749       0.003
   0.09101311 -0.09101311 -0.03900562       0.003
   0.07801123 -0.07801123 -0.02600374       0.003
   0.06500936 -0.06500936 -0.01300187       0.003
   0.05200749 -0.05200749  0.00000000       0.002
   0.00000000  0.00000000  0.07801123       0.001
  -0.01300187  0.01300187  0.09101311       0.003
  -0.02600374  0.02600374  0.10401498       0.003
  -0.03900562  0.03900562  0.11701685       0.003
  -0.05200749  0.05200749  0.13001872       0.003
  -0.06500936  0.06500936  0.14302059       0.003
  -0.07801123  0.07801123  0.15602247       0.003
   0.15602247 -0.15602247 -0.07801123       0.003
   0.14302059 -0.14302059 -0.06500936       0.003
   0.13001872 -0.13001872 -0.05200749       0.003
   0.11701685 -0.11701685 -0.03900562       0.003
   0.10401498 -0.10401498 -0.02600374       0.003
   0.09101311 -0.09101311 -0.01300187       0.003
   0.07801123 -0.07801123  0.00000000       0.002
   0.00000000  0.00000000  0.10401498       0.001
  -0.01300187  0.01300187  0.11701685       0.003
  -0.02600374  0.02600374  0.13001872       0.003
  -0.03900562  0.03900562  0.14302059       0.003
  -0.05200749  0.05200749  0.15602247       0.003
  -0.06500936  0.06500936  0.16902434       0.003
   0.16902434 -0.16902434 -0.06500936       0.003
   0.15602247 -0.15602247 -0.05200749       0.003
   0.14302059 -0.14302059 -0.03900562       0.003
   0.13001872 -0.13001872 -0.02600374       0.003
   0.11701685 -0.11701685 -0.01300187       0.003
   0.10401498 -0.10401498  0.00000000       0.002
   0.00000000  0.00000000  0.13001872       0.001
  -0.01300187  0.01300187  0.14302059       0.003
  -0.02600374  0.02600374  0.15602247       0.003
  -0.03900562  0.03900562  0.16902434       0.003
  -0.05200749  0.05200749  0.18202621       0.003
   0.18202621 -0.18202621 -0.05200749       0.003
   0.16902434 -0.16902434 -0.03900562       0.003
   0.15602247 -0.15602247 -0.02600374       0.003
   0.14302059 -0.14302059 -0.01300187       0.003
   0.13001872 -0.13001872  0.00000000       0.002
   0.00000000  0.00000000  0.15602247       0.001
  -0.01300187  0.01300187  0.16902434       0.003
  -0.02600374  0.02600374  0.18202621       0.003
  -0.03900562  0.03900562  0.19502808       0.003
   0.19502808 -0.19502808 -0.03900562       0.003
   0.18202621 -0.18202621 -0.02600374       0.003
   0.16902434 -0.16902434 -0.01300187       0.003
   0.15602247 -0.15602247  0.00000000       0.002
   0.00000000  0.00000000  0.18202621       0.001
  -0.01300187  0.01300187  0.19502808       0.003
  -0.02600374  0.02600374  0.20802996       0.003
   0.20802996 -0.20802996 -0.02600374       0.003
   0.19502808 -0.19502808 -0.01300187       0.003
   0.18202621 -0.18202621  0.00000000       0.002
   0.00000000  0.00000000  0.20802996       0.001
  -0.01300187  0.01300187  0.22103183       0.003
   0.22103183 -0.22103183 -0.01300187       0.003
   0.20802996 -0.20802996  0.00000000       0.002
   0.00000000  0.00000000  0.23403370       0.001
   0.23403370 -0.23403370  0.00000000       0.002
   0.00000000  0.02600374  0.05200749       0.003
  -0.01300187  0.03900562  0.06500936       0.007
  -0.02600374  0.05200749  0.07801123       0.007
  -0.03900562  0.06500936  0.09101311       0.007
  -0.05200749  0.07801123  0.10401498       0.007
  -0.06500936  0.09101311  0.11701685       0.007
  -0.07801123  0.10401498  0.13001872       0.007
   0.15602247 -0.13001872 -0.10401498       0.007
   0.00000000  0.02600374  0.07801123       0.003
  -0.01300187  0.03900562  0.09101311       0.007
  -0.02600374  0.05200749  0.10401498       0.007
  -0.03900562  0.06500936  0.11701685       0.007
  -0.05200749  0.07801123  0.13001872       0.007
  -0.06500936  0.09101311  0.14302059       0.007
   0.16902434 -0.14302059 -0.09101311       0.007
   0.15602247 -0.13001872 -0.07801123       0.007
   0.14302059 -0.11701685 -0.06500936       0.007
   0.13001872 -0.10401498 -0.05200749       0.007
   0.11701685 -0.09101311 -0.03900562       0.007
   0.10401498 -0.07801123 -0.02600374       0.007
   0.09101311 -0.06500936 -0.01300187       0.007
   0.07801123 -0.05200749 -0.00000000       0.003
   0.00000000  0.02600374  0.10401498       0.003
  -0.01300187  0.03900562  0.11701685       0.007
  -0.02600374  0.05200749  0.13001872       0.007
  -0.03900562  0.06500936  0.14302059       0.007
  -0.05200749  0.07801123  0.15602247       0.007
   0.18202621 -0.15602247 -0.07801123       0.007
   0.16902434 -0.14302059 -0.06500936       0.007
   0.15602247 -0.13001872 -0.05200749       0.007
   0.14302059 -0.11701685 -0.03900562       0.007
   0.13001872 -0.10401498 -0.02600374       0.007
   0.11701685 -0.09101311 -0.01300187       0.007
   0.10401498 -0.07801123  0.00000000       0.003
   0.00000000  0.02600374  0.13001872       0.003
  -0.01300187  0.03900562  0.14302059       0.007
  -0.02600374  0.05200749  0.15602247       0.007
  -0.03900562  0.06500936  0.16902434       0.007
   0.19502808 -0.16902434 -0.06500936       0.007
   0.18202621 -0.15602247 -0.05200749       0.007
   0.16902434 -0.14302059 -0.03900562       0.007
   0.15602247 -0.13001872 -0.02600374       0.007
   0.14302059 -0.11701685 -0.01300187       0.007
   0.13001872 -0.10401498  0.00000000       0.003
   0.00000000  0.02600374  0.15602247       0.003
  -0.01300187  0.03900562  0.16902434       0.007
  -0.02600374  0.05200749  0.18202621       0.007
   0.20802996 -0.18202621 -0.05200749       0.007
   0.19502808 -0.16902434 -0.03900562       0.007
   0.18202621 -0.15602247 -0.02600374       0.007
   0.16902434 -0.14302059 -0.01300187       0.007
   0.15602247 -0.13001872  0.00000000       0.003
   0.00000000  0.02600374  0.18202621       0.003
  -0.01300187  0.03900562  0.19502808       0.007
   0.22103183 -0.19502808 -0.03900562       0.007
   0.20802996 -0.18202621 -0.02600374       0.007
   0.19502808 -0.16902434 -0.01300187       0.007
   0.18202621 -0.15602247  0.00000000       0.003
   0.00000000  0.02600374  0.20802996       0.003
   0.23403370 -0.20802996 -0.02600374       0.007
   0.22103183 -0.19502808 -0.01300187       0.007
   0.20802996 -0.18202621  0.00000000       0.003
   0.24703557 -0.22103183 -0.01300187       0.003
   0.23403370 -0.20802996  0.00000000       0.003
   0.00000000  0.05200749  0.10401498       0.003
  -0.01300187  0.06500936  0.11701685       0.007
  -0.02600374  0.07801123  0.13001872       0.007
  -0.03900562  0.09101311  0.14302059       0.007
   0.19502808 -0.14302059 -0.09101311       0.007
   0.18202621 -0.13001872 -0.07801123       0.007
   0.00000000  0.05200749  0.13001872       0.003
  -0.01300187  0.06500936  0.14302059       0.007
  -0.02600374  0.07801123  0.15602247       0.007
   0.20802996 -0.15602247 -0.07801123       0.007
   0.19502808 -0.14302059 -0.06500936       0.007
   0.18202621 -0.13001872 -0.05200749       0.007
   0.16902434 -0.11701685 -0.03900562       0.007
   0.15602247 -0.10401498 -0.02600374       0.007
   0.14302059 -0.09101311 -0.01300187       0.007
   0.13001872 -0.07801123  0.00000000       0.003
   0.00000000  0.05200749  0.15602247       0.003
  -0.01300187  0.06500936  0.16902434       0.007
   0.22103183 -0.16902434 -0.06500936       0.007
   0.20802996 -0.15602247 -0.05200749       0.007
   0.19502808 -0.14302059 -0.03900562       0.007
   0.18202621 -0.13001872 -0.02600374       0.007
   0.16902434 -0.11701685 -0.01300187       0.007
   0.15602247 -0.10401498  0.00000000       0.003
   0.00000000  0.05200749  0.18202621       0.003
   0.23403370 -0.18202621 -0.05200749       0.007
   0.22103183 -0.16902434 -0.03900562       0.007
   0.20802996 -0.15602247 -0.02600374       0.007
   0.19502808 -0.14302059 -0.01300187       0.007
   0.18202621 -0.13001872  0.00000000       0.003
   0.24703557 -0.19502808 -0.03900562       0.003
   0.23403370 -0.18202621 -0.02600374       0.007
   0.22103183 -0.16902434 -0.01300187       0.007
   0.20802996 -0.15602247 -0.00000000       0.003
   0.24703557 -0.19502808 -0.01300187       0.003
   0.23403370 -0.18202621  0.00000000       0.003
   0.00000000  0.07801123  0.15602247       0.003
   0.23403370 -0.15602247 -0.07801123       0.007
   0.22103183 -0.14302059 -0.06500936       0.007
   0.20802996 -0.13001872 -0.05200749       0.007
   0.24703557 -0.16902434 -0.06500936       0.003
   0.23403370 -0.15602247 -0.05200749       0.007
   0.22103183 -0.14302059 -0.03900562       0.007
   0.20802996 -0.13001872 -0.02600374       0.007
   0.19502808 -0.11701685 -0.01300187       0.007
   0.18202621 -0.10401498  0.00000000       0.003
   0.24703557 -0.16902434 -0.03900562       0.003
   0.23403370 -0.15602247 -0.02600374       0.007
   0.22103183 -0.14302059 -0.01300187       0.007
   0.20802996 -0.13001872  0.00000000       0.003
   0.24703557 -0.16902434 -0.01300187       0.003
   0.23403370 -0.15602247  0.00000000       0.003
   0.24703557 -0.14302059 -0.03900562       0.003
   0.23403370 -0.13001872 -0.02600374       0.007
   0.24703557 -0.14302059 -0.01300187       0.003
   0.23403370 -0.13001872  0.00000000       0.003

 k-points in reciprocal lattice and weights: # Generated by Masgent for k-point conve
   0.00000000  0.00000000  0.00000000       0.000
   0.05263158  0.00000000  0.00000000       0.001
   0.10526316  0.00000000  0.00000000       0.001
   0.15789474  0.00000000  0.00000000       0.001
   0.21052632  0.00000000  0.00000000       0.001
   0.26315789  0.00000000  0.00000000       0.001
   0.31578947  0.00000000  0.00000000       0.001
   0.36842105  0.00000000  0.00000000       0.001
   0.42105263  0.00000000  0.00000000       0.001
   0.47368421  0.00000000  0.00000000       0.001
   0.05263158  0.05263158  0.00000000       0.001
   0.10526316  0.05263158  0.00000000       0.003
   0.15789474  0.05263158  0.00000000       0.003
   0.21052632  0.05263158  0.00000000       0.003
   0.26315789  0.05263158  0.00000000       0.003
   0.31578947  0.05263158  0.00000000       0.003
   0.36842105  0.05263158  0.00000000       0.003
   0.42105263  0.05263158  0.00000000       0.003
   0.47368421  0.05263158  0.00000000       0.003
  -0.47368421  0.05263158  0.00000000       0.003
  -0.42105263  0.05263158  0.00000000       0.003
  -0.36842105  0.05263158  0.00000000       0.003
  -0.31578947  0.05263158  0.00000000       0.003
  -0.26315789  0.05263158  0.00000000       0.003
  -0.21052632  0.05263158  0.00000000       0.003
  -0.15789474  0.05263158  0.00000000       0.003
  -0.10526316  0.05263158  0.00000000       0.003
  -0.05263158  0.05263158  0.00000000       0.002
   0.10526316  0.10526316  0.00000000       0.001
   0.15789474  0.10526316  0.00000000       0.003
   0.21052632  0.10526316  0.00000000       0.003
   0.26315789  0.10526316  0.00000000       0.003
   0.31578947  0.10526316  0.00000000       0.003
   0.36842105  0.10526316  0.00000000       0.003
   0.42105263  0.10526316  0.00000000       0.003
   0.47368421  0.10526316  0.00000000       0.003
  -0.47368421  0.10526316  0.00000000       0.003
  -0.42105263  0.10526316  0.00000000       0.003
  -0.36842105  0.10526316  0.00000000       0.003
  -0.31578947  0.10526316  0.00000000       0.003
  -0.26315789  0.10526316  0.00000000       0.003
  -0.21052632  0.10526316  0.00000000       0.003
  -0.15789474  0.10526316  0.00000000       0.003
  -0.10526316  0.10526316  0.00000000       0.002
   0.15789474  0.15789474  0.00000000       0.001
   0.21052632  0.15789474  0.00000000       0.003
   0.26315789  0.15789474  0.00000000       0.003
   0.31578947  0.15789474  0.00000000       0.003
   0.36842105  0.15789474  0.00000000       0.003
   0.42105263  0.15789474  0.00000000       0.003
   0.47368421  0.15789474  0.00000000       0.003
  -0.47368421  0.15789474  0.00000000       0.003
  -0.42105263  0.15789474  0.00000000       0.003
  -0.36842105  0.15789474  0.00000000       0.003
  -0.31578947  0.15789474  0.00000000       0.003
  -0.26315789  0.15789474  0.00000000       0.003
  -0.21052632  0.15789474  0.00000000       0.003
  -0.15789474  0.15789474  0.00000000       0.002
   0.21052632  0.21052632  0.00000000       0.001
   0.26315789  0.21052632  0.00000000       0.003
   0.31578947  0.21052632  0.00000000       0.003
   0.36842105  0.21052632  0.00000000       0.003
   0.42105263  0.21052632  0.00000000       0.003
   0.47368421  0.21052632  0.00000000       0.003
  -0.47368421  0.21052632  0.00000000       0.003
  -0.42105263  0.21052632  0.00000000       0.003
  -0.36842105  0.21052632  0.00000000       0.003
  -0.31578947  0.21052632  0.00000000       0.003
  -0.26315789  0.21052632  0.00000000       0.003
  -0.21052632  0.21052632  0.00000000       0.002
   0.26315789  0.26315789  0.00000000       0.001
   0.31578947  0.26315789  0.00000000       0.003
   0.36842105  0.26315789  0.00000000       0.003
   0.42105263  0.26315789  0.00000000       0.003
   0.47368421  0.26315789  0.00000000       0.003
  -0.47368421  0.26315789  0.00000000       0.003
  -0.42105263  0.26315789  0.00000000       0.003
  -0.36842105  0.26315789  0.00000000       0.003
  -0.31578947  0.26315789  0.00000000       0.003
  -0.26315789  0.26315789  0.00000000       0.002
   0.31578947  0.31578947  0.00000000       0.001
   0.36842105  0.31578947  0.00000000       0.003
   0.42105263  0.31578947  0.00000000       0.003
   0.47368421  0.31578947  0.00000000       0.003
  -0.47368421  0.31578947  0.00000000       0.003
  -0.42105263  0.31578947  0.00000000       0.003
  -0.36842105  0.31578947  0.00000000       0.003
  -0.31578947  0.31578947  0.00000000       0.002
   0.36842105  0.36842105  0.00000000       0.001
   0.42105263  0.36842105  0.00000000       0.003
   0.47368421  0.36842105  0.00000000       0.003
  -0.47368421  0.36842105  0.00000000       0.003
  -0.42105263  0.36842105  0.00000000       0.003
  -0.36842105  0.36842105  0.00000000       0.002
   0.42105263  0.42105263  0.00000000       0.001
   0.47368421  0.42105263  0.00000000       0.003
  -0.47368421  0.42105263  0.00000000       0.003
  -0.42105263  0.42105263  0.00000000       0.002
   0.47368421  0.47368421  0.00000000       0.001
  -0.47368421  0.47368421  0.00000000       0.002
   0.15789474  0.10526316  0.05263158       0.003
   0.21052632  0.10526316  0.05263158       0.007
   0.26315789  0.10526316  0.05263158       0.007
   0.31578947  0.10526316  0.05263158       0.007
   0.36842105  0.10526316  0.05263158       0.007
   0.42105263  0.10526316  0.05263158       0.007
   0.47368421  0.10526316  0.05263158       0.007
  -0.47368421  0.10526316  0.05263158       0.007
   0.21052632  0.15789474  0.05263158       0.003
   0.26315789  0.15789474  0.05263158       0.007
   0.31578947  0.15789474  0.05263158       0.007
   0.36842105  0.15789474  0.05263158       0.007
   0.42105263  0.15789474  0.05263158       0.007
   0.47368421  0.15789474  0.05263158       0.007
  -0.47368421  0.15789474  0.05263158       0.007
  -0.42105263  0.15789474  0.05263158       0.007
  -0.36842105  0.15789474  0.05263158       0.007
  -0.31578947  0.15789474  0.05263158       0.007
  -0.26315789  0.15789474  0.05263158       0.007
  -0.21052632  0.15789474  0.05263158       0.007
  -0.15789474  0.15789474  0.05263158       0.007
  -0.10526316  0.15789474  0.05263158       0.003
   0.26315789  0.21052632  0.05263158       0.003
   0.31578947  0.21052632  0.05263158       0.007
   0.36842105  0.21052632  0.05263158       0.007
   0.42105263  0.21052632  0.05263158       0.007
   0.47368421  0.21052632  0.05263158       0.007
  -0.47368421  0.21052632  0.05263158       0.007
  -0.42105263  0.21052632  0.05263158       0.007
  -0.36842105  0.21052632  0.05263158       0.007
  -0.31578947  0.21052632  0.05263158       0.007
  -0.26315789  0.21052632  0.05263158       0.007
  -0.21052632  0.21052632  0.05263158       0.007
  -0.15789474  0.21052632  0.05263158       0.003
   0.31578947  0.26315789  0.05263158       0.003
   0.36842105  0.26315789  0.05263158       0.007
   0.42105263  0.26315789  0.05263158       0.007
   0.47368421  0.26315789  0.05263158       0.007
  -0.47368421  0.26315789  0.05263158       0.007
  -0.42105263  0.26315789  0.05263158       0.007
  -0.36842105  0.26315789  0.05263158       0.007
  -0.31578947  0.26315789  0.05263158       0.007
  -0.26315789  0.26315789  0.05263158       0.007
  -0.21052632  0.26315789  0.05263158       0.003
   0.36842105  0.31578947  0.05263158       0.003
   0.42105263  0.31578947  0.05263158       0.007
   0.47368421  0.31578947  0.05263158       0.007
  -0.47368421  0.31578947  0.05263158       0.007
  -0.42105263  0.31578947  0.05263158       0.007
  -0.36842105  0.31578947  0.05263158       0.007
  -0.31578947  0.31578947  0.05263158       0.007
  -0.26315789  0.31578947  0.05263158       0.003
   0.42105263  0.36842105  0.05263158       0.003
   0.47368421  0.36842105  0.05263158       0.007
  -0.47368421  0.36842105  0.05263158       0.007
  -0.42105263  0.36842105  0.05263158       0.007
  -0.36842105  0.36842105  0.05263158       0.007
  -0.31578947  0.36842105  0.05263158       0.003
   0.47368421  0.42105263  0.05263158       0.003
  -0.47368421  0.42105263  0.05263158       0.007
  -0.42105263  0.42105263  0.05263158       0.007
  -0.36842105  0.42105263  0.05263158       0.003
  -0.47368421  0.47368421  0.05263158       0.003
  -0.42105263  0.47368421  0.05263158       0.003
   0.31578947  0.21052632  0.10526316       0.003
   0.36842105  0.21052632  0.10526316       0.007
   0.42105263  0.21052632  0.10526316       0.007
   0.47368421  0.21052632  0.10526316       0.007
  -0.47368421  0.21052632  0.10526316       0.007
  -0.42105263  0.21052632  0.10526316       0.007
   0.36842105  0.26315789  0.10526316       0.003
   0.42105263  0.26315789  0.10526316       0.007
   0.47368421  0.26315789  0.10526316       0.007
  -0.47368421  0.26315789  0.10526316       0.007
  -0.42105263  0.26315789  0.10526316       0.007
  -0.36842105  0.26315789  0.10526316       0.007
  -0.31578947  0.26315789  0.10526316       0.007
  -0.26315789  0.26315789  0.10526316       0.007
  -0.21052632  0.26315789  0.10526316       0.007
  -0.15789474  0.26315789  0.10526316       0.003
   0.42105263  0.31578947  0.10526316       0.003
   0.47368421  0.31578947  0.10526316       0.007
  -0.47368421  0.31578947  0.10526316       0.007
  -0.42105263  0.31578947  0.10526316       0.007
  -0.36842105  0.31578947  0.10526316       0.007
  -0.31578947  0.31578947  0.10526316       0.007
  -0.26315789  0.31578947  0.10526316       0.007
  -0.21052632  0.31578947  0.10526316       0.003
   0.47368421  0.36842105  0.10526316       0.003
  -0.47368421  0.36842105  0.10526316       0.007
  -0.42105263  0.36842105  0.10526316       0.007
  -0.36842105  0.36842105  0.10526316       0.007
  -0.31578947  0.36842105  0.10526316       0.007
  -0.26315789  0.36842105  0.10526316       0.003
  -0.47368421  0.42105263  0.10526316       0.003
  -0.42105263  0.42105263  0.10526316       0.007
  -0.36842105  0.42105263  0.10526316       0.007
  -0.31578947  0.42105263  0.10526316       0.003
  -0.42105263  0.47368421  0.10526316       0.003
  -0.36842105  0.47368421  0.10526316       0.003
   0.47368421  0.31578947  0.15789474       0.003
  -0.47368421  0.31578947  0.15789474       0.007
  -0.42105263  0.31578947  0.15789474       0.007
  -0.36842105  0.31578947  0.15789474       0.007
  -0.47368421  0.36842105  0.15789474       0.003
  -0.42105263  0.36842105  0.15789474       0.007
  -0.36842105  0.36842105  0.15789474       0.007
  -0.31578947  0.36842105  0.15789474       0.007
  -0.26315789  0.36842105  0.15789474       0.007
  -0.21052632  0.36842105  0.15789474       0.003
  -0.42105263  0.42105263  0.15789474       0.003
  -0.36842105  0.42105263  0.15789474       0.007
  -0.31578947  0.42105263  0.15789474       0.007
  -0.26315789  0.42105263  0.15789474       0.003
  -0.36842105  0.47368421  0.15789474       0.003
  -0.31578947  0.47368421  0.15789474       0.003
  -0.36842105  0.42105263  0.21052632       0.003
  -0.31578947  0.42105263  0.21052632       0.007
  -0.31578947  0.47368421  0.21052632       0.003
  -0.26315789  0.47368421  0.21052632       0.003

 position of ions in fractional coordinates (direct lattice) 
   0.00000000  0.00000000  0.00000000

 position of ions in cartesian coordinates  (Angst):
   0.00000000  0.00000000  0.00000000



--------------------------------------------------------------------------------------------------------


 k-point   1 :   0.0000 0.0000 0.0000  plane waves:     459
 k-point   2 :   0.0526 0.0000 0.0000  plane waves:     447
 k-point   3 :   0.1053 0.0000 0.0000  plane waves:     444
 k-point   4 :   0.1579 0.0000 0.0000  plane waves:     456
 k-point   5 :   0.2105 0.0000 0.0000  plane waves:     459
 k-point   6 :   0.2632 0.0000 0.0000  plane waves:     456
 k-point   7 :   0.3158 0.0000 0.0000  plane waves:     450
 k-point   8 :   0.3684 0.0000 0.0000  plane waves:     449
 k-point   9 :   0.4211 0.0000 0.0000  plane waves:     446
 k-point  10 :   0.4737 0.0000 0.0000  plane waves:     437
 k-point  11 :   0.0526 0.0526 0.0000  plane waves:     443
 k-point  12 :   0.1053 0.0526 0.0000  plane waves:     447
 k-point  13 :   0.1579 0.0526 0.0000  plane waves:     456
 k-point  14 :   0.2105 0.0526 0.0000  plane waves:     458
 k-point  15 :   0.2632 0.0526 0.0000  plane waves:     452
 k-point  16 :   0.3158 0.0526 0.0000  plane waves:     449
 k-point  17 :   0.3684 0.0526 0.0000  plane waves:     443
 k-point  18 :   0.4211 0.0526 0.0000  plane waves:     443
 k-point  19 :   0.4737 0.0526 0.0000  plane waves:     449
 k-point  20 :  -0.4737 0.0526 0.0000  plane waves:     449
 k-point  21 :  -0.4211 0.0526 0.0000  plane waves:     448
 k-point  22 :  -0.3684 0.0526 0.0000  plane waves:     441
 k-point  23 :  -0.3158 0.0526 0.0000  plane waves:     445
 k-point  24 :  -0.2632 0.0526 0.0000  plane waves:     447
 k-point  25 :  -0.2105 0.0526 0.0000  plane waves:     456
 k-point  26 :  -0.1579 0.0526 0.0000  plane waves:     455
 k-point  27 :  -0.1053 0.0526 0.0000  plane waves:     449
 k-point  28 :  -0.0526 0.0526 0.0000  plane waves:     443
 k-point  29 :   0.1053 0.1053 0.0000  plane waves:     443
 k-point  30 :   0.1579 0.1053 0.0000  plane waves:     450
 k-point  31 :   0.2105 0.1053 0.0000  plane waves:     454
 k-point  32 :   0.2632 0.1053 0.0000  plane waves:     451
 k-point  33 :   0.3158 0.1053 0.0000  plane waves:     449
 k-point  34 :   0.3684 0.1053 0.0000  plane waves:     447
 k-point  35 :   0.4211 0.1053 0.0000  plane waves:     446
 k-point  36 :   0.4737 0.1053 0.0000  plane waves:     447
 k-point  37 :  -0.4737 0.1053 0.0000  plane waves:     445
 k-point  38 :  -0.4211 0.1053 0.0000  plane waves:     448
 k-point  39 :  -0.3684 0.1053 0.0000  plane waves:     443
 k-point  40 :  -0.3158 0.1053 0.0000  plane waves:     444
 k-point  41 :  -0.2632 0.1053 0.0000  plane waves:     447
 k-point  42 :  -0.2105 0.1053 0.0000  plane waves:     455
 k-point  43 :  -0.1579 0.1053 0.0000  plane waves:     455
 k-point  44 :  -0.1053 0.1053 0.0000  plane waves:     453
 k-point  45 :   0.1579 0.1579 0.0000  plane waves:     451
 k-point  46 :   0.2105 0.1579 0.0000  plane waves:     456
 k-point  47 :   0.2632 0.1579 0.0000  plane waves:     448
 k-point  48 :   0.3158 0.1579 0.0000  plane waves:     444
 k-point  49 :   0.3684 0.1579 0.0000  plane waves:     449
 k-point  50 :   0.4211 0.1579 0.0000  plane waves:     444
 k-point  51 :   0.4737 0.1579 0.0000  plane waves:     444
 k-point  52 :  -0.4737 0.1579 0.0000  plane waves:     449
 k-point  53 :  -0.4211 0.1579 0.0000  plane waves:     446
 k-point  54 :  -0.3684 0.1579 0.0000  plane waves:     445
 k-point  55 :  -0.3158 0.1579 0.0000  plane waves:     442
 k-point  56 :  -0.2632 0.1579 0.0000  plane waves:     449
 k-point  57 :  -0.2105 0.1579 0.0000  plane waves:     449
 k-point  58 :  -0.1579 0.1579 0.0000  plane waves:     449
 k-point  59 :   0.2105 0.2105 0.0000  plane waves:     443
 k-point  60 :   0.2632 0.2105 0.0000  plane waves:     448
 k-point  61 :   0.3158 0.2105 0.0000  plane waves:     449
 k-point  62 :   0.3684 0.2105 0.0000  plane waves:     447
 k-point  63 :   0.4211 0.2105 0.0000  plane waves:     448
 k-point  64 :   0.4737 0.2105 0.0000  plane waves:     447
 k-point  65 :  -0.4737 0.2105 0.0000  plane waves:     447
 k-point  66 :  -0.4211 0.2105 0.0000  plane waves:     445
 k-point  67 :  -0.3684 0.2105 0.0000  plane waves:     443
 k-point  68 :  -0.3158 0.2105 0.0000  plane waves:     442
 k-point  69 :  -0.2632 0.2105 0.0000  plane waves:     441
 k-point  70 :  -0.2105 0.2105 0.0000  plane waves:     449
 k-point  71 :   0.2632 0.2632 0.0000  plane waves:     456
 k-point  72 :   0.3158 0.2632 0.0000  plane waves:     445
 k-point  73 :   0.3684 0.2632 0.0000  plane waves:     445
 k-point  74 :   0.4211 0.2632 0.0000  plane waves:     446
 k-point  75 :   0.4737 0.2632 0.0000  plane waves:     447
 k-point  76 :  -0.4737 0.2632 0.0000  plane waves:     447
 k-point  77 :  -0.4211 0.2632 0.0000  plane waves:     450
 k-point  78 :  -0.3684 0.2632 0.0000  plane waves:     449
 k-point  79 :  -0.3158 0.2632 0.0000  plane waves:     441
 k-point  80 :  -0.2632 0.2632 0.0000  plane waves:     437
 k-point  81 :   0.3158 0.3158 0.0000  plane waves:     444
 k-point  82 :   0.3684 0.3158 0.0000  plane waves:     444
 k-point  83 :   0.4211 0.3158 0.0000  plane waves:     446
 k-point  84 :   0.4737 0.3158 0.0000  plane waves:     443
 k-point  85 :  -0.4737 0.3158 0.0000  plane waves:     445
 k-point  86 :  -0.4211 0.3158 0.0000  plane waves:     447
 k-point  87 :  -0.3684 0.3158 0.0000  plane waves:     446
 k-point  88 :  -0.3158 0.3158 0.0000  plane waves:     443
 k-point  89 :   0.3684 0.3684 0.0000  plane waves:     444
 k-point  90 :   0.4211 0.3684 0.0000  plane waves:     451
 k-point  91 :   0.4737 0.3684 0.0000  plane waves:     451
 k-point  92 :  -0.4737 0.3684 0.0000  plane waves:     448
 k-point  93 :  -0.4211 0.3684 0.0000  plane waves:     445
 k-point  94 :  -0.3684 0.3684 0.0000  plane waves:     440
 k-point  95 :   0.4211 0.4211 0.0000  plane waves:     452
 k-point  96 :   0.4737 0.4211 0.0000  plane waves:     451
 k-point  97 :  -0.4737 0.4211 0.0000  plane waves:     453
 k-point  98 :  -0.4211 0.4211 0.0000  plane waves:     448
 k-point  99 :   0.4737 0.4737 0.0000  plane waves:     452
 k-point 100 :  -0.4737 0.4737 0.0000  plane waves:     448
 k-point 101 :   0.1579 0.1053 0.0526  plane waves:     453
 k-point 102 :   0.2105 0.1053 0.0526  plane waves:     457
 k-point 103 :   0.2632 0.1053 0.0526  plane waves:     459
 k-point 104 :   0.3158 0.1053 0.0526  plane waves:     451
 k-point 105 :   0.3684 0.1053 0.0526  plane waves:     445
 k-point 106 :   0.4211 0.1053 0.0526  plane waves:     441
 k-point 107 :   0.4737 0.1053 0.0526  plane waves:     447
 k-point 108 :  -0.4737 0.1053 0.0526  plane waves:     448
 k-point 109 :   0.2105 0.1579 0.0526  plane waves:     456
 k-point 110 :   0.2632 0.1579 0.0526  plane waves:     454
 k-point 111 :   0.3158 0.1579 0.0526  plane waves:     450
 k-point 112 :   0.3684 0.1579 0.0526  plane waves:     448
 k-point 113 :   0.4211 0.1579 0.0526  plane waves:     444
 k-point 114 :   0.4737 0.1579 0.0526  plane waves:     444
 k-point 115 :  -0.4737 0.1579 0.0526  plane waves:     444
 k-point 116 :  -0.4211 0.1579 0.0526  plane waves:     447
 k-point 117 :  -0.3684 0.1579 0.0526  plane waves:     446
 k-point 118 :  -0.3158 0.1579 0.0526  plane waves:     445
 k-point 119 :  -0.2632 0.1579 0.0526  plane waves:     443
 k-point 120 :  -0.2105 0.1579 0.0526  plane waves:     448
 k-point 121 :  -0.1579 0.1579 0.0526  plane waves:     454
 k-point 122 :  -0.1053 0.1579 0.0526  plane waves:     455
 k-point 123 :   0.2632 0.2105 0.0526  plane waves:     451
 k-point 124 :   0.3158 0.2105 0.0526  plane waves:     448
 k-point 125 :   0.3684 0.2105 0.0526  plane waves:     446
 k-point 126 :   0.4211 0.2105 0.0526  plane waves:     444
 k-point 127 :   0.4737 0.2105 0.0526  plane waves:     442
 k-point 128 :  -0.4737 0.2105 0.0526  plane waves:     443
 k-point 129 :  -0.4211 0.2105 0.0526  plane waves:     446
 k-point 130 :  -0.3684 0.2105 0.0526  plane waves:     445
 k-point 131 :  -0.3158 0.2105 0.0526  plane waves:     441
 k-point 132 :  -0.2632 0.2105 0.0526  plane waves:     443
 k-point 133 :  -0.2105 0.2105 0.0526  plane waves:     445
 k-point 134 :  -0.1579 0.2105 0.0526  plane waves:     451
 k-point 135 :   0.3158 0.2632 0.0526  plane waves:     447
 k-point 136 :   0.3684 0.2632 0.0526  plane waves:     448
 k-point 137 :   0.4211 0.2632 0.0526  plane waves:     446
 k-point 138 :   0.4737 0.2632 0.0526  plane waves:     446
 k-point 139 :  -0.4737 0.2632 0.0526  plane waves:     445
 k-point 140 :  -0.4211 0.2632 0.0526  plane waves:     447
 k-point 141 :  -0.3684 0.2632 0.0526  plane waves:     445
 k-point 142 :  -0.3158 0.2632 0.0526  plane waves:     445
 k-point 143 :  -0.2632 0.2632 0.0526  plane waves:     441
 k-point 144 :  -0.2105 0.2632 0.0526  plane waves:     440
 k-point 145 :   0.3684 0.3158 0.0526  plane waves:     441
 k-point 146 :   0.4211 0.3158 0.0526  plane waves:     445
 k-point 147 :   0.4737 0.3158 0.0526  plane waves:     447
 k-point 148 :  -0.4737 0.3158 0.0526  plane waves:     442
 k-point 149 :  -0.4211 0.3158 0.0526  plane waves:     444
 k-point 150 :  -0.3684 0.3158 0.0526  plane waves:     446
 k-point 151 :  -0.3158 0.3158 0.0526  plane waves:     444
 k-point 152 :  -0.2632 0.3158 0.0526  plane waves:     442
 k-point 153 :   0.4211 0.3684 0.0526  plane waves:     449
 k-point 154 :   0.4737 0.3684 0.0526  plane waves:     448
 k-point 155 :  -0.4737 0.3684 0.0526  plane waves:     450
 k-point 156 :  -0.4211 0.3684 0.0526  plane waves:     443
 k-point 157 :  -0.3684 0.3684 0.0526  plane waves:     443
 k-point 158 :  -0.3158 0.3684 0.0526  plane waves:     445
 k-point 159 :   0.4737 0.4211 0.0526  plane waves:     454
 k-point 160 :  -0.4737 0.4211 0.0526  plane waves:     453
 k-point 161 :  -0.4211 0.4211 0.0526  plane waves:     448
 k-point 162 :  -0.3684 0.4211 0.0526  plane waves:     441
 k-point 163 :  -0.4737 0.4737 0.0526  plane waves:     450
 k-point 164 :  -0.4211 0.4737 0.0526  plane waves:     455
 k-point 165 :   0.3158 0.2105 0.1053  plane waves:     449
 k-point 166 :   0.3684 0.2105 0.1053  plane waves:     446
 k-point 167 :   0.4211 0.2105 0.1053  plane waves:     443
 k-point 168 :   0.4737 0.2105 0.1053  plane waves:     444
 k-point 169 :  -0.4737 0.2105 0.1053  plane waves:     440
 k-point 170 :  -0.4211 0.2105 0.1053  plane waves:     445
 k-point 171 :   0.3684 0.2632 0.1053  plane waves:     449
 k-point 172 :   0.4211 0.2632 0.1053  plane waves:     448
 k-point 173 :   0.4737 0.2632 0.1053  plane waves:     443
 k-point 174 :  -0.4737 0.2632 0.1053  plane waves:     444
 k-point 175 :  -0.4211 0.2632 0.1053  plane waves:     446
 k-point 176 :  -0.3684 0.2632 0.1053  plane waves:     444
 k-point 177 :  -0.3158 0.2632 0.1053  plane waves:     441
 k-point 178 :  -0.2632 0.2632 0.1053  plane waves:     440
 k-point 179 :  -0.2105 0.2632 0.1053  plane waves:     446
 k-point 180 :  -0.1579 0.2632 0.1053  plane waves:     448
 k-point 181 :   0.4211 0.3158 0.1053  plane waves:     447
 k-point 182 :   0.4737 0.3158 0.1053  plane waves:     448
 k-point 183 :  -0.4737 0.3158 0.1053  plane waves:     445
 k-point 184 :  -0.4211 0.3158 0.1053  plane waves:     443
 k-point 185 :  -0.3684 0.3158 0.1053  plane waves:     444
 k-point 186 :  -0.3158 0.3158 0.1053  plane waves:     439
 k-point 187 :  -0.2632 0.3158 0.1053  plane waves:     439
 k-point 188 :  -0.2105 0.3158 0.1053  plane waves:     443
 k-point 189 :   0.4737 0.3684 0.1053  plane waves:     446
 k-point 190 :  -0.4737 0.3684 0.1053  plane waves:     445
 k-point 191 :  -0.4211 0.3684 0.1053  plane waves:     445
 k-point 192 :  -0.3684 0.3684 0.1053  plane waves:     446
 k-point 193 :  -0.3158 0.3684 0.1053  plane waves:     447
 k-point 194 :  -0.2632 0.3684 0.1053  plane waves:     445
 k-point 195 :  -0.4737 0.4211 0.1053  plane waves:     446
 k-point 196 :  -0.4211 0.4211 0.1053  plane waves:     446
 k-point 197 :  -0.3684 0.4211 0.1053  plane waves:     444
 k-point 198 :  -0.3158 0.4211 0.1053  plane waves:     447
 k-point 199 :  -0.4211 0.4737 0.1053  plane waves:     448
 k-point 200 :  -0.3684 0.4737 0.1053  plane waves:     447
 k-point 201 :   0.4737 0.3158 0.1579  plane waves:     449
 k-point 202 :  -0.4737 0.3158 0.1579  plane waves:     444
 k-point 203 :  -0.4211 0.3158 0.1579  plane waves:     443
 k-point 204 :  -0.3684 0.3158 0.1579  plane waves:     443
 k-point 205 :  -0.4737 0.3684 0.1579  plane waves:     446
 k-point 206 :  -0.4211 0.3684 0.1579  plane waves:     447
 k-point 207 :  -0.3684 0.3684 0.1579  plane waves:     446
 k-point 208 :  -0.3158 0.3684 0.1579  plane waves:     445
 k-point 209 :  -0.2632 0.3684 0.1579  plane waves:     444
 k-point 210 :  -0.2105 0.3684 0.1579  plane waves:     446
 k-point 211 :  -0.4211 0.4211 0.1579  plane waves:     447
 k-point 212 :  -0.3684 0.4211 0.1579  plane waves:     442
 k-point 213 :  -0.3158 0.4211 0.1579  plane waves:     442
 k-point 214 :  -0.2632 0.4211 0.1579  plane waves:     446
 k-point 215 :  -0.3684 0.4737 0.1579  plane waves:     444
 k-point 216 :  -0.3158 0.4737 0.1579  plane waves:     441
 k-point 217 :  -0.3684 0.4211 0.2105  plane waves:     444
 k-point 218 :  -0.3158 0.4211 0.2105  plane waves:     450
 k-point 219 :  -0.3158 0.4737 0.2105  plane waves:     449
 k-point 220 :  -0.2632 0.4737 0.2105  plane waves:     446

 maximum and minimum number of plane-waves per node :       459      437

 maximum number of plane-waves:       459
 maximum index in each direction: 
   IXMAX=    5   IYMAX=    5   IZMAX=    5
   IXMIN=   -5   IYMIN=   -5   IZMIN=   -5


 serial   3D FFT for wavefunctions
 parallel 3D FFT for charge:
    minimum data exchange during FFTs selected (reduces bandwidth)


 total amount of memory used by VASP MPI-rank0    41934. kBytes
=======================================================================

   base      :      30000. kBytes
   nonl-proj :       6766. kBytes
   fftplans  :        150. kBytes
   grid      :       1295. kBytes
   one-center:          6. kBytes
   wavefun   :       3717. kBytes

     INWAV:  cpu time    0.0000: real time    0.0001
 Broyden mixing: mesh for mixing (old mesh)
   NGX = 11   NGY = 11   NGZ = 11
  (NGX  = 48   NGY  = 48   NGZ  = 48)
  gives a total of   1331 points

 initial charge density was supplied:
 charge density of overlapping atoms calculated
 number of electron       3.0000000 magnetization       0.6000000
 keeping initial charge density in first step


--------------------------------------------------------------------------------------------------------


 Maximum index for augmentation-charges         1111 (set IRDMAX)


--------------------------------------------------------------------------------------------------------


 First call to EWALD:  gamma=   0.695
 Maximum number of real-space cells 3x 3x 3
 Maximum number of reciprocal cells 3x 3x 3

    FEWALD:  cpu time    0.0007: real time    0.0008


--------------------------------------- Iteration      1(   1)  ---------------------------------------


    POTLOK:  cpu time    0.0166: real time    0.0173
    SETDIJ:  cpu time    0.1701: real time    0.1704
     EDDAV:  cpu time   35.5089: real time   35.5093
 BZINTS: Fermi energy:    8.033227;    3.000000 electrons
         Band energy: 0.107686E+02;  BLOECHL correction:   -0.045483
       DOS:  cpu time    0.2283: real time    0.2286
    --------------------------------------------
      LOOP:  cpu time   35.9240: real time   35.9256

 eigenvalue-minimisations  : 60192
 total energy-change (2. order) :-0.3633480E+01  (-0.8956125E+02)
 number of electron       3.0000000 magnetization       0.6000000
 augmentation part        3.0000000 magnetization       0.6000000

 Free energy of the ion-electron system (eV)
  ---------------------------------------------------
  alpha Z        PSCENC =        -0.20254611
  Ewald energy   TEWEN  =       -73.39295237
  -Hartree energ DENC   =        -0.10329695
  -exchange      EXHF   =         0.00000000
  -V(xc)+E(xc)   XCENC  =       -26.19545267
  PAW double counting   =        66.16230985      -34.20858819
  entropy T*S    EENTRO =         0.00000000
  eigenvalues    EBANDS =        10.76858960
  atomic energy  EATOM  =        53.53845706
  Solvation  Ediel_sol  =         0.00000000
  ---------------------------------------------------
  free energy    TOTEN  =        -3.63347978 eV

  energy without entropy =       -3.63347978  energy(sigma->0) =       -3.63347978


--------------------------------------------------------------------------------------------------------




--------------------------------------- Iteration      1(   2)  ---------------------------------------


     EDDAV:  cpu time   29.4639: real time   29.4641
 BZINTS: Fermi energy:    8.003942;    3.000000 electrons
         Band energy: 0.107191E+02;  BLOECHL correction:   -0.044990
       DOS:  cpu time    0.2360: real time    0.2362
    --------------------------------------------
      LOOP:  cpu time   29.6999: real time   29.7003

 eigenvalue-minimisations  : 53232
 total energy-change (2. order) :-0.4953717E-01  (-0.4943639E-01)
 number of electron       3.0000000 magnetization       0.6000000
 augmentation part        3.0000000 magnetization       0.6000000

 Free energy of the ion-electron system (eV)
  ---------------------------------------------------
  alpha Z        PSCENC =        -0.20254611
  Ewald energy   TEWEN  =       -73.39295237
  -Hartree energ DENC   =        -0.10329695
  -exchange      EXHF   =         0.00000000
  -V(xc)+E(xc)   XCENC  =       -26.19545267
  PAW double counting   =        66.16230985      -34.20858819
  entropy T*S    EENTRO =         0.00000000
  eigenvalues    EBANDS =        10.71905243
  atomic energy  EATOM  =        53.53845706
  Solvation  Ediel_sol  =         0.00000000
  ---------------------------------------------------
  free energy    TOTEN  =        -3.68301695 eV

[...]
     15      44.8799      0.00000
     16      46.8645      0.00000
     17      49.7068      0.00000
     18      52.9543      0.00000
     19      53.0030      0.00000
     20      53.6069      0.00000
     21      55.4949      0.00000
     22      55.6631      0.00000
     23      56.5809      0.00000
     24      56.8493      0.00000
     25      59.3582      0.00000
     26      61.9024      0.00000
     27      62.8062      0.00000
     28      65.3678      0.00000
     29      66.5039      0.00000
     30      67.4528      0.00000
     31      71.1807      0.00000
     32      72.2871      0.00000
     33      76.0914      0.00000
     34      79.1588      0.00000
     35      79.3508      0.00000
     36      82.4898      0.00000
     37      87.1773      0.00000
     38      87.4658      0.00000
     39      87.9509      0.00000
     40      90.7901      0.00000
     41      93.2354      0.00000
     42      95.7469      0.00000
     43      96.1650      0.00000
     44      99.9545      0.00000
     45     100.1888      0.00000
     46     102.6972      0.00000
     47     103.8304      0.00000
     48     104.6406      0.00000

 k-point   216 :      -0.3158    0.4737    0.1579
  band No.  band energies     occupation 
      1       6.1825      1.00000
      2       7.4763      1.00224
      3       8.0187      0.02592
      4      10.3333      0.00000
      5      20.3213      0.00000
      6      22.6808      0.00000
      7      27.0551      0.00000
      8      28.2733      0.00000
      9      34.7199      0.00000
     10      39.1717      0.00000
     11      42.0394      0.00000
     12      42.1323      0.00000
     13      42.7640      0.00000
     14      43.9292      0.00000
     15      44.8075      0.00000
     16      45.8210      0.00000
     17      50.5112      0.00000
     18      53.4349      0.00000
     19      53.9032      0.00000
     20      54.9282      0.00000
     21      55.6383      0.00000
     22      56.4984      0.00000
     23      56.5876      0.00000
     24      57.4948      0.00000
     25      59.3632      0.00000
     26      61.8332      0.00000
     27      62.6102      0.00000
     28      63.0617      0.00000
     29      65.6103      0.00000
     30      66.6718      0.00000
     31      69.2356      0.00000
     32      72.8092      0.00000
     33      74.8970      0.00000
     34      79.1716      0.00000
     35      79.2223      0.00000
     36      82.4784      0.00000
     37      87.6280      0.00000
     38      87.7821      0.00000
     39      90.6876      0.00000
     40      90.9177      0.00000
     41      95.5506      0.00000
     42      95.7865      0.00000
     43      97.1862      0.00000
     44      99.5114      0.00000
     45     100.6798      0.00000
     46     102.7743      0.00000
     47     102.9306      0.00000
     48     103.7335      0.00000

 k-point   217 :      -0.3684    0.4211    0.2105
  band No.  band energies     occupation 
      1       4.6106      1.00000
      2       8.0224      0.60211
      3       9.3716      0.00000
      4      10.3669      0.00000
      5      22.0353      0.00000
      6      23.2622      0.00000
      7      24.3854      0.00000
      8      28.9396      0.00000
      9      33.7227      0.00000
     10      37.3350      0.00000
     11      39.9972      0.00000
     12      40.3890      0.00000
     13      43.3756      0.00000
     14      44.3948      0.00000
     15      46.9219      0.00000
     16      49.3568      0.00000
     17      50.8209      0.00000
     18      51.8413      0.00000
     19      54.2610      0.00000
     20      54.5199      0.00000
     21      54.6113      0.00000
     22      55.4824      0.00000
     23      58.0697      0.00000
     24      59.6691      0.00000
     25      60.7516      0.00000
     26      62.7086      0.00000
     27      62.7565      0.00000
     28      64.5077      0.00000
     29      64.9807      0.00000
     30      65.3575      0.00000
     31      67.5493      0.00000
     32      70.5650      0.00000
     33      74.8950      0.00000
     34      79.1985      0.00000
     35      79.4532      0.00000
     36      85.5499      0.00000
     37      87.2214      0.00000
     38      88.6081      0.00000
     39      91.7415      0.00000
     40      92.8705      0.00000
     41      92.9339      0.00000
     42      95.3980      0.00000
     43      95.4278      0.00000
     44      96.9299      0.00000
     45     100.1931      0.00000
     46     100.5763      0.00000
     47     103.3126      0.00000
     48     107.1082      0.00000

 k-point   218 :      -0.3158    0.4211    0.2105
  band No.  band energies     occupation 
      1       5.7739      1.00000
      2       7.0206      1.01786
      3       9.1420      0.00000
      4       9.8986      0.00000
      5      22.7680      0.00000
      6      23.3632      0.00000
      7      24.9378      0.00000
      8      27.2520      0.00000
      9      34.1708      0.00000
     10      37.8731      0.00000
     11      40.8253      0.00000
     12      41.9095      0.00000
     13      42.5531      0.00000
     14      44.1986      0.00000
     15      45.7315      0.00000
     16      47.8045      0.00000
     17      51.6002      0.00000
     18      52.5283      0.00000
     19      54.5168      0.00000
     20      54.8542      0.00000
     21      55.7036      0.00000
     22      57.3104      0.00000
     23      57.6490      0.00000
     24      59.5749      0.00000
     25      59.7857      0.00000
     26      60.7530      0.00000
     27      62.8616      0.00000
     28      64.0925      0.00000
     29      64.4154      0.00000
     30      65.2451      0.00000
     31      66.0291      0.00000
     32      72.1771      0.00000
     33      73.7472      0.00000
     34      77.8592      0.00000
     35      80.8375      0.00000
     36      83.9533      0.00000
     37      88.1884      0.00000
     38      88.7704      0.00000
     39      92.5672      0.00000
     40      92.7845      0.00000
     41      94.5345      0.00000
     42      95.4783      0.00000
     43      96.6930      0.00000
     44      98.6801      0.00000
     45      99.8566      0.00000
     46     100.7168      0.00000
     47     102.9994      0.00000
     48     104.6029      0.00000

 k-point   219 :      -0.3158    0.4737    0.2105
  band No.  band energies     occupation 
      1       6.0814      1.00000
      2       7.8382      1.00348
      3       8.2485      0.00000
      4       9.4880      0.00000
      5      21.8603      0.00000
      6      23.3227      0.00000
      7      25.4065      0.00000
      8      27.5707      0.00000
      9      34.8321      0.00000
     10      39.3740      0.00000
     11      41.9584      0.00000
     12      41.9612      0.00000
     13      43.0214      0.00000
     14      43.0721      0.00000
     15      44.6268      0.00000
     16      46.1150      0.00000
     17      51.2527      0.00000
     18      53.3545      0.00000
     19      54.0584      0.00000
     20      54.8752      0.00000
     21      56.0427      0.00000
     22      56.4830      0.00000
     23      58.1159      0.00000
     24      58.7068      0.00000
     25      60.5107      0.00000
     26      61.2058      0.00000
     27      62.1989      0.00000
     28      62.9367      0.00000
     29      64.8389      0.00000
     30      65.1875      0.00000
     31      66.8490      0.00000
     32      72.6939      0.00000
     33      74.8847      0.00000
     34      79.1523      0.00000
     35      79.3526      0.00000
     36      82.0083      0.00000
     37      88.3242      0.00000
     38      89.2995      0.00000
     39      91.9782      0.00000
     40      93.2568      0.00000
     41      95.6401      0.00000
     42      95.8661      0.00000
     43      96.7899      0.00000
     44      98.0909      0.00000
     45     100.2470      0.00000
     46     100.6289      0.00000
     47     102.1990      0.00000
     48     103.8221      0.00000

 k-point   220 :      -0.2632    0.4737    0.2105
  band No.  band energies     occupation 
      1       6.9058      1.00000
      2       6.9178      1.00000
      3       8.2390      0.00000
      4       9.4149      0.00000
      5      22.7218      0.00000
      6      24.3947      0.00000
      7      24.4510      0.00000
      8      26.5045      0.00000
      9      34.8022      0.00000
     10      39.2856      0.00000
     11      42.0429      0.00000
     12      42.2021      0.00000
     13      42.6561      0.00000
     14      43.5910      0.00000
     15      44.4044      0.00000
     16      45.7523      0.00000
     17      52.0806      0.00000
     18      52.6925      0.00000
     19      54.2544      0.00000
     20      54.8767      0.00000
     21      57.2935      0.00000
     22      57.5584      0.00000
     23      58.4790      0.00000
     24      59.3305      0.00000
     25      59.6853      0.00000
     26      60.3032      0.00000
     27      62.1721      0.00000
     28      62.5436      0.00000
     29      64.6154      0.00000
     30      64.9041      0.00000
     31      65.5457      0.00000
     32      73.0275      0.00000
     33      74.3225      0.00000
     34      79.0298      0.00000
     35      79.3344      0.00000
     36      82.0606      0.00000
     37      88.9074      0.00000
     38      89.1080      0.00000
     39      93.3067      0.00000
     40      93.7663      0.00000
     41      95.9071      0.00000
     42      96.3835      0.00000
     43      97.5258      0.00000
     44      98.4654      0.00000
     45      99.0917      0.00000
     46      99.6278      0.00000
     47     102.4893      0.00000
     48     103.1614      0.00000


--------------------------------------------------------------------------------------------------------


 soft charge-density along one line, spin component           1
         0         1         2         3         4         5         6         7         8         9
 total charge-density along one line

 soft charge-density along one line, spin component           2
         0         1         2         3         4         5         6         7         8         9
 total charge-density along one line

 pseudopotential strength for first ion, spin component:           1
  8.445  14.393   0.000  -0.000   0.000   0.000  -0.000   0.000
 14.393  24.530   0.000  -0.000   0.000   0.000  -0.000   0.000
  0.000   0.000   1.987  -0.000  -0.000   5.730  -0.000  -0.000
 -0.000  -0.000  -0.000   1.987  -0.000  -0.000   5.730  -0.000
  0.000   0.000  -0.000  -0.000   1.987  -0.000  -0.000   5.730
  0.000   0.000   5.730  -0.000  -0.000  16.434  -0.000  -0.000
 -0.000  -0.000  -0.000   5.730  -0.000  -0.000  16.434  -0.000
  0.000   0.000  -0.000  -0.000   5.730  -0.000  -0.000  16.434
 pseudopotential strength for first ion, spin component:           2
  8.445  14.393   0.000  -0.000   0.000   0.000  -0.000   0.000
 14.393  24.530   0.000  -0.000   0.000   0.000  -0.000   0.000
  0.000   0.000   1.987  -0.000  -0.000   5.730  -0.000  -0.000
 -0.000  -0.000  -0.000   1.987  -0.000  -0.000   5.730  -0.000
  0.000   0.000  -0.000  -0.000   1.987  -0.000  -0.000   5.730
  0.000   0.000   5.730  -0.000  -0.000  16.434  -0.000  -0.000
 -0.000  -0.000  -0.000   5.730  -0.000  -0.000  16.434  -0.000
  0.000   0.000  -0.000  -0.000   5.730  -0.000  -0.000  16.434
 total augmentation occupancy for first ion, spin component:           1
  3.357  -0.827   0.000   0.000   0.000   0.000   0.000   0.000
 -0.827   0.269   0.000   0.000   0.000   0.000   0.000   0.000
  0.000   0.000   1.100   0.000   0.000  -0.070  -0.000   0.000
  0.000   0.000   0.000   1.100   0.000  -0.000  -0.070   0.000
  0.000   0.000  -0.000   0.000   1.100  -0.000   0.000  -0.070
  0.000   0.000  -0.070  -0.000  -0.000   0.005  -0.000  -0.000
  0.000   0.000  -0.000  -0.070   0.000  -0.000   0.005   0.000
  0.000   0.000   0.000   0.000  -0.070  -0.000   0.000   0.005
 total augmentation occupancy for first ion, spin component:           2
  0.017  -0.006   0.000   0.000   0.000   0.000   0.000   0.000
 -0.006   0.002   0.000   0.000   0.000   0.000   0.000   0.000
  0.000   0.000   0.002   0.000   0.000  -0.000   0.000   0.000
  0.000   0.000   0.000   0.002   0.000   0.000  -0.000   0.000
  0.000   0.000   0.000   0.000   0.002   0.000   0.000  -0.000
  0.000   0.000  -0.000   0.000   0.000   0.000   0.000   0.000
  0.000   0.000   0.000  -0.000   0.000   0.000   0.000   0.000
  0.000   0.000   0.000   0.000  -0.000   0.000   0.000   0.000


------------------------ aborting loop because EDIFF is reached ----------------------------------------





 total charge

# of ion       s       p       d       tot
------------------------------------------
    1        0.426   0.339   0.000   0.764



 magnetization (x)

# of ion       s       p       d       tot
------------------------------------------
    1       -0.000  -0.000   0.000  -0.000

    CHARGE:  cpu time    0.1457: real time    0.1457
    FORLOC:  cpu time    0.0001: real time    0.0002
    FORNL :  cpu time    0.0238: real time    0.0238
    STRESS:  cpu time    0.3686: real time    0.3688
    FORCOR:  cpu time    0.0060: real time    0.0060
    FORHAR:  cpu time    0.0008: real time    0.0009
    MIXING:  cpu time    0.0004: real time    0.0004
    OFIELD:  cpu time    0.0000: real time    0.0000

  FORCE on cell =-STRESS in cart. coord.  units (eV):
  Direction    XX          YY          ZZ          XY          YZ          ZX
  --------------------------------------------------------------------------------------
  Alpha Z    -0.20255    -0.20255    -0.20255
  Ewald     -24.46432   -24.46432   -24.46432    -0.00000    -0.00000     0.00000
  Hartree     0.03494     0.03494     0.03494     0.00000     0.00000     0.00000
  E(xc)      -8.54921    -8.54921    -8.54921     0.00000     0.00000     0.00000
  Local       0.34202     0.34202     0.34202    -0.00000    -0.00000    -0.00000
  n-local    18.89510    18.55604    18.97442     0.46153    -0.59193     0.52298
  augment    -1.02508    -1.02508    -1.02508     0.00000     0.00000     0.00000
  Kinetic    12.38105    10.97094    21.55949    -9.62026     8.39225    -6.22061
  Fock        0.00000     0.00000     0.00000     0.00000     0.00000     0.00000
  -------------------------------------------------------------------------------------
  Total      -0.08519    -0.08519    -0.08519     0.00000     0.00000    -0.00000
  in kB      -8.23067    -8.23067    -8.23067     0.00000     0.00000    -0.00000
  external pressure =       -8.23 kB  Pullay stress =        0.00 kB


 VOLUME and BASIS-vectors are now :
 -----------------------------------------------------------------------------
  energy-cutoff  :      520.00
  volume of cell :       16.58
      direct lattice vectors                 reciprocal lattice vectors
     0.000000000  2.024000000  2.024000000    -0.247035573  0.247035573  0.247035573
     2.024000000  0.000000000  2.024000000     0.247035573 -0.247035573  0.247035573
     2.024000000  2.024000000  0.000000000     0.247035573  0.247035573 -0.247035573

  length of vectors
     2.862368250  2.862368250  2.862368250     0.427878164  0.427878164  0.427878164


 FORCES acting on ions
    electron-ion (+dipol)            ewald-force                    non-local-force                 convergence-correction
 -----------------------------------------------------------------------------------------------
   0.226E-15 0.139E-14 0.240E-14   0.817E-16 0.470E-16 -.229E-15   -.646E-26 -.646E-26 0.646E-26   -.194E-18 0.440E-17 0.663E-17
 -----------------------------------------------------------------------------------------------
   0.226E-15 0.139E-14 0.240E-14   0.817E-16 0.470E-16 -.229E-15   -.646E-26 -.646E-26 0.646E-26   -.194E-18 0.440E-17 0.663E-17


 POSITION                                       TOTAL-FORCE (eV/Angst)
 -----------------------------------------------------------------------------------
      0.00000      0.00000      0.00000         0.000000      0.000000      0.000000
 -----------------------------------------------------------------------------------
    total drift:                                0.000000      0.000000      0.000000


--------------------------------------------------------------------------------------------------------



  FREE ENERGIE OF THE ION-ELECTRON SYSTEM (eV)
  ---------------------------------------------------
  free  energy   TOTEN  =        -3.74413602 eV

  energy  without entropy=       -3.74413602  energy(sigma->0) =       -3.74413602



--------------------------------------------------------------------------------------------------------


    POTLOK:  cpu time    0.1767: real time    0.1846


--------------------------------------------------------------------------------------------------------


 stress matrix after NEB project (eV)
     -0.08519     -0.00000     -0.00000
      0.00000     -0.08519     -0.00000
     -0.00000      0.00000     -0.08519
  FORCES: max atom, RMS     0.000000    0.000000
  FORCE total and by dimension    0.000000    0.000000
  Stress total and by dimension    0.147553    0.085190
     LOOP+:  cpu time  221.8878: real time  221.9130
 -----------------------------------------------------------------------------
|                                                                             |
|           W    W    AA    RRRRR   N    N  II  N    N   GGGG   !!!           |
|           W    W   A  A   R    R  NN   N  II  NN   N  G    G  !!!           |
|           W    W  A    A  R    R  N N  N  II  N N  N  G       !!!           |
|           W WW W  AAAAAA  RRRRR   N  N N  II  N  N N  G  GGG   !            |
|           WW  WW  A    A  R   R   N   NN  II  N   NN  G    G                |
|           W    W  A    A  R    R  N    N  II  N    N   GGGG   !!!           |
|                                                                             |
|     Tetrahedron method does not include variations of the Fermi             |
|     occupations, so forces and stress will be inaccurate. We suggest        |
|     using a different smearing scheme ISMEAR = 1 or 2 for metals in         |
|     relaxations.                                                            |
|                                                                             |
 -----------------------------------------------------------------------------

    4ORBIT:  cpu time    0.0000: real time    0.0000



 total charge

# of ion       s       p       d       tot
------------------------------------------
    1        0.426   0.339   0.000   0.764



 magnetization (x)

# of ion       s       p       d       tot
------------------------------------------
    1       -0.000  -0.000   0.000  -0.000

 BZINTS: Fermi energy:    7.973398;    3.000000 electrons
         Band energy: 0.106125E+02;  BLOECHL correction:   -0.042080

 total amount of memory used by VASP MPI-rank0    41934. kBytes
=======================================================================

   base      :      30000. kBytes
   nonl-proj :       6766. kBytes
   fftplans  :        150. kBytes
   grid      :       1295. kBytes
   one-center:          6. kBytes
   wavefun   :       3717. kBytes

  
  
 General timing and accounting informations for this job:
 ========================================================
  
                  Total CPU time used (sec):      226.332
                            User time (sec):      224.408
                          System time (sec):        1.924
                         Elapsed time (sec):      226.418
  
                   Maximum memory used (kb):       62592.
                   Average memory used (kb):          N/A
  
                          Minor page faults:        38315
                          Major page faults:          427
                 Voluntary context switches:         2578
