   57   57  200    2
  0.1326576E+02  0.7779113E-09  0.7778912E-09  0.1249563E-08  0.0000000E+00
   1.0000000000000000E-004
  CAR 
 unknown system                          
    502     10    324

  0.1262379E-14  0.1262379E-14  0.1262379E-14  0.5555556E-01
    1      -57.390632    -55.309507   1.000000   1.000000
    2      -57.250308    -55.282776   1.000000   1.000000
    3      -57.249113    -55.270105   1.000000   1.000000
    4      -57.171536    -55.099987   1.000000   1.000000
    5      -57.128660    -55.099266   1.000000   1.000000
    6      -57.118004    -55.097939   1.000000   1.000000
    7      -57.108426    -55.092235   1.000000   1.000000
    8      -57.104724    -55.091064   1.000000   1.000000
    9      -57.104469    -55.087329   1.000000   1.000000
   10      -57.102547    -55.079455   1.000000   1.000000
   11      -57.096503    -55.076421   1.000000   1.000000
   12      -57.094273    -55.070075   1.000000   1.000000
   13      -57.092687    -55.060071   1.000000   1.000000
   14      -57.078420    -55.058682   1.000000   1.000000
   15      -57.078313    -55.050767   1.000000   1.000000
   16      -57.074661    -55.050368   1.000000   1.000000
   17      -57.074490    -55.049456   1.000000   1.000000
   18      -57.074015    -55.036079   1.000000   1.000000
   19      -57.057347    -55.015314   1.000000   1.000000
   20      -57.056881    -55.013911   1.000000   1.000000
   21      -57.050413    -55.007606   1.000000   1.000000
   22      -57.048773    -54.988746   1.000000   1.000000
   23      -57.039793    -54.988321   1.000000   1.000000
   24      -57.036373    -54.979926   1.000000   1.000000
   25      -23.485666    -23.482511   1.000000   1.000000
   26      -23.416337    -23.413165   1.000000   1.000000
   27      -23.319247    -23.316255   1.000000   1.000000
   28      -23.307704    -23.304857   1.000000   1.000000
   29      -23.300413    -23.297740   1.000000   1.000000
   30      -23.287199    -23.284101   1.000000   1.000000
   31      -23.251527    -23.248438   1.000000   1.000000
   32      -23.242155    -23.239402   1.000000   1.000000
   33      -23.167917    -23.165107   1.000000   1.000000
   34      -23.148681    -23.145993   1.000000   1.000000
   35      -23.081026    -23.078481   1.000000   1.000000
   36      -23.025560    -23.023153   1.000000   1.000000
   37      -23.017307    -23.015029   1.000000   1.000000
   38      -22.900861    -22.898483   1.000000   1.000000
   39      -22.886225    -22.883590   1.000000   1.000000
   40      -22.848089    -22.847183   1.000000   1.000000
   41      -11.263985    -11.214644   1.000000   1.000000
   42      -11.156758    -11.113800   1.000000   1.000000
   43      -11.090745    -11.040562   1.000000   1.000000
   44      -11.034929    -10.981601   1.000000   1.000000
   45      -10.998089    -10.943919   1.000000   1.000000
   46      -10.976121    -10.919062   1.000000   1.000000
   47      -10.573821    -10.567292   1.000000   1.000000
   48      -10.523183    -10.499530   1.000000   1.000000
   49      -10.469201    -10.455600   1.000000   1.000000
   50      -10.447753    -10.421033   1.000000   1.000000
   51      -10.408248    -10.398898   1.000000   1.000000
   52      -10.390308    -10.363901   1.000000   1.000000
   53      -10.363160    -10.337612   1.000000   1.000000
   54      -10.327608    -10.302125   1.000000   1.000000
   55      -10.261593    -10.243554   1.000000   1.000000
   56      -10.211742    -10.170398   1.000000   1.000000
   57      -10.065617    -10.015781   1.000000   1.000000
   58      -10.055522    -10.001261   1.000000   1.000000
   59       -9.904711     -9.831817   1.000000   1.000000
   60       -9.861188     -9.795551   1.000000   1.000000
   61       -9.807657     -9.754098   1.000000   1.000000
   62       -9.778781     -9.737142   1.000000   1.000000
   63       -9.766052     -9.705964   1.000000   1.000000
   64       -9.718682     -9.630582   1.000000   1.000000
   65       -9.662831     -9.577015   1.000000   1.000000
   66       -9.604360     -9.531724   1.000000   1.000000
   67       -9.595264     -9.455445   1.000000   1.000000
   68       -9.545927     -9.432286   1.000000   1.000000
   69       -9.523554     -9.413322   1.000000   1.000000
   70       -9.497538     -9.389090   1.000000   1.000000
   71       -9.478903     -9.377844   1.000000   1.000000
   72       -9.454013     -9.353800   1.000000   1.000000
   73       -9.372807     -9.287844   1.000000   1.000000
   74       -7.305255     -7.296683   1.000000   1.000000
   75       -7.298098     -7.286073   1.000000   1.000000
   76       -7.239066     -7.225558   1.000000   1.000000
   77       -7.226278     -7.214196   1.000000   1.000000
   78       -7.135988     -7.123033   1.000000   1.000000
   79       -7.091175     -7.082299   1.000000   1.000000
   80       -7.037053     -7.020551   1.000000   1.000000
   81       -7.005274     -6.997532   1.000000   1.000000
   82       -6.975220     -6.964875   1.000000   1.000000
   83       -6.957007     -6.945787   1.000000   1.000000
   84       -6.918287     -6.914091   1.000000   1.000000
   85       -6.909935     -6.902512   1.000000   1.000000
   86       -6.898633     -6.893221   1.000000   1.000000
   87       -6.888090     -6.882592   1.000000   1.000000
   88       -6.873102     -6.865191   1.000000   1.000000
   89       -6.866736     -6.862443   1.000000   1.000000
   90       -6.821260     -6.812936   1.000000   1.000000
   91       -6.813783     -6.805671   1.000000   1.000000
   92       -6.803255     -6.791052   1.000000   1.000000
   93       -6.744848     -6.735568   1.000000   1.000000
   94       -6.691548     -6.681376   1.000000   1.000000
   95       -6.680510     -6.673456   1.000000   1.000000
   96       -6.655510     -6.645630   1.000000   1.000000
   97       -6.644702     -6.633564   1.000000   1.000000
   98       -6.621134     -6.614833   1.000000   1.000000
   99       -6.610499     -6.598534   1.000000   1.000000
  100       -6.592530     -6.578554   1.000000   1.000000
  101       -6.565977     -6.545971   1.000000   1.000000
  102       -6.516619     -6.495734   1.000000   1.000000
  103       -6.500977     -6.491505   1.000000   1.000000
  104       -6.418039     -6.402011   1.000000   1.000000
  105       -6.409982     -6.396623   1.000000   1.000000
  106       -6.363947     -6.353690   1.000000   1.000000
  107       -6.132425     -6.112146   1.000000   1.000000
  108       -6.106235     -6.091321   1.000000   1.000000
  109       -6.026549     -6.006514   1.000000   1.000000
  110       -5.990483     -5.968379   1.000000   1.000000
  111       -5.864616     -5.834023   1.000000   1.000000
  112       -5.834963     -5.810134   1.000000   1.000000
  113       -5.825909     -5.795728   1.000000   1.000000
  114       -5.811988     -5.784391   1.000000   1.000000
  115       -5.768275     -5.738221   1.000000   1.000000
  116       -5.747627     -5.717511   1.000000   1.000000
  117       -5.663780     -5.629886   1.000000   1.000000
  118       -5.631290     -5.555408   1.000000   1.000000
  119       -5.523767     -5.486272   1.000000   1.000000
  120       -4.933060     -4.918582   1.000000   1.000000
  121       -4.643805     -4.628656   1.000000   1.000000
  122        0.202498      1.163302   1.000000   1.000000
  123        0.269254      1.205060   1.000000   1.000000
  124        0.296065      2.321839   1.000000   1.000000
  125        0.334960      2.369298   1.000000   1.000000
  126        0.367163      2.402190   1.000000   1.000000
  127        0.373833      2.434761   1.000000   1.000000
  128        0.411820      2.442627   1.000000   1.000000
  129        0.453084      2.464831   1.000000   1.000000
  130        1.599587      2.536341   1.000000   1.000000
  131        1.689002      2.540566   1.000000   1.000000
  132        1.697423      2.555309   1.000000   1.000000
  133        1.716527      2.577660   1.000000   1.000000
  134        1.743269      2.725980   1.000000   1.000000
  135        1.769958      2.811105   1.000000   1.000000
  136        1.783791      2.847719   1.000000   1.000000
  137        1.811389      2.888755   1.000000   1.000000
  138        1.960909      2.946993   1.000000   1.000000
  139        1.977071      3.011935   1.000000   1.000000
  140        1.998676      3.080361   1.000000   1.000000
  141        2.053668      3.094943   1.000000   1.000000
  142        2.121697      3.130784   1.000000   1.000000
  143        2.205479      3.133694   1.000000   1.000000
  144        2.221604      3.180975   1.000000   1.000000
  145        2.262463      3.192480   1.000000   1.000000
  146        2.295399      3.268885   1.000000   1.000000
  147        2.338736      3.363520   1.000000   1.000000
  148        2.342465      3.454155   1.000000   1.000000
  149        2.359369      3.467052   1.000000   1.000000
  150        2.409790      3.550753   1.000000   1.000000
  151        2.421087      3.572187   1.000000   1.000000
  152        2.633742      3.634001   1.000000   1.000000
  153        2.655161      3.710658   1.000000   1.000000
  154        2.738742      3.717730   1.000000   1.000000
  155        2.751394      3.737152   1.000000   1.000000
  156        2.757901      3.771807   1.000000   1.000000
  157        2.807720      3.797158   1.000000   1.000000
  158        2.823932      3.824043   1.000000   1.000000
  159        2.844745      3.839594   1.000000   1.000000
  160        2.864858      3.845046   1.000000   1.000000
  161        2.888331      3.964414   1.000000   1.000000
  162        2.914208      3.987092   1.000000   1.000000
  163        3.006092      4.074266   1.000000   1.000000
  164        3.138808      4.098146   1.000000   1.000000
  165        3.195254      4.109620   1.000000   1.000000
  166        3.247379      4.152836   1.000000   1.000000
  167        3.252844      4.214148   1.000000   1.000000
  168        3.524592      4.251427   1.000000   1.000000
  169        3.535653      4.285397   1.000000   1.000000
  170        3.543280      4.357668   1.000000   1.000000
  171        3.603891      4.418756   1.000000   1.000000
  172        3.624535      4.448442   1.000000   1.000000
  173        3.910673      4.464527   1.000000   1.000000
  174        4.004188      4.475847   1.000000   1.000000
  175        4.041454      4.528800   1.000000   1.000000
  176        4.100794      4.560154   1.000000   1.000000
  177        4.132301      4.667756   1.000000   1.000000
  178        4.203369      4.770630   1.000000   1.000000
  179        4.256875      4.806525   1.000000   1.000000
  180        4.292034      4.818204   1.000000   1.000000
  181        4.344255      4.831619   1.000000   1.000000
  182        4.372985      4.879497   1.000000   1.000000
  183        4.416306      4.903862   1.000000   1.000000
  184        4.458160      4.937042   1.000000   1.000000
  185        4.586015      4.960361   1.000000   1.000000
  186        4.621989      5.006523   1.000000   1.000000
  187        4.648519      5.051936   1.000000   1.000000
  188        4.659058      5.075959   1.000000   1.000000
  189        4.673985      5.094902   1.000000   1.000000
  190        4.727438      5.121197   1.000000   1.000000
  191        4.740881      5.153194   1.000000   1.000000
  192        4.752551      5.167453   1.000000   1.000000
  193        4.778847      5.175857   1.000000   1.000000
  194        4.843626      5.188832   1.000000   1.000000
  195        4.891154      5.203825   1.000000   1.000000
  196        4.900798      5.247140   1.000000   1.000000
  197        4.917756      5.283410   1.000000   1.000000
  198        4.944004      5.309631   1.000000   1.000000
  199        4.982515      5.349722   1.000000   1.000000
  200        5.001447      5.369171   1.000000   1.000000
  201        5.036865      5.378514   1.000000   1.000000
  202        5.062204      5.407396   1.000000   1.000000
  203        5.077624      5.432723   1.000000   1.000000
  204        5.138910      5.507795   1.000000   1.000000
  205        5.163608      5.524384   1.000000   1.000000
  206        5.185357      5.560677   1.000000   1.000000
  207        5.203825      5.597382   1.000000   1.000000
  208        5.240342      5.615671   1.000000   1.000000
  209        5.271091      5.685319   1.000000   1.000000
  210        5.298431      5.701580   1.000000   1.000000
  211        5.319790      5.755170   1.000000   1.000000
  212        5.339349      5.763012   1.000000   1.000000
  213        5.349961      5.798198   1.000000   1.000000
  214        5.383500      5.855657   1.000000   1.000000
  215        5.416611      5.897880   1.000000   1.000000
  216        5.492424      5.928818   1.000000   1.000000
  217        5.532004      5.950606   1.000000   1.000000
  218        5.560275      5.976186   1.000000   1.000000
  219        5.579620      5.978498   1.000000   1.000000
  220        5.626344      6.008330   1.000000   1.000000
  221        5.657555      6.027568   1.000000   1.000000
  222        5.689505      6.042714   1.000000   1.000000
  223        5.714284      6.078281   1.000000   1.000000
  224        5.731223      6.130325   1.000000   1.000000
  225        5.773790      6.169172   1.000000   1.000000
  226        5.787544      6.187491   1.000000   1.000000
  227        5.829923      6.200154   1.000000   1.000000
  228        5.857923      6.203629   1.000000   1.000000
  229        5.872453      6.230000   1.000000   1.000000
  230        5.906843      6.251488   1.000000   1.000000
  231        5.913905      6.268554   1.000000   1.000000
  232        5.942436      6.293793   1.000000   1.000000
  233        5.969461      6.321887   1.000000   1.000000
  234        5.987530      6.341509   1.000000   1.000000
  235        6.043213      6.358596   1.000000   1.000000
  236        6.056068      6.366912   1.000000   1.000000
  237        6.118779      6.393837   1.000000   1.000000
  238        6.132372      6.399181   1.000000   1.000000
  239        6.157783      6.454120   1.000000   1.000000
  240        6.176749      6.454747   1.000000   1.000000
  241        6.209618      6.551776   1.000000   1.000000
  242        6.228813      6.644649   1.000000   1.000000
  243        6.232748      6.702976   1.000000   1.000000
  244        6.281539      7.174391   1.000000   0.997770
  245        6.289808     10.059185   1.000000   0.000000
  246        6.328692     10.201464   1.000000   0.000000
  247        6.346683     10.223850   1.000000   0.000000
  248        6.369401     10.308208   1.000000   0.000000
  249        6.456707     10.532004   1.000000   0.000000
  250        6.590749     10.599324   1.000000   0.000000
  251        6.641569     10.607550   1.000000   0.000000
  252        6.723756     10.624769   1.000000   0.000000
  253        6.967939     10.640478   0.999992   0.000000
  254        7.019737     10.673771   0.999959   0.000000
  255        7.104572     10.724007   0.999577   0.000000
  256        7.123009     10.839862   0.999329   0.000000
  257        7.168162     10.997420   0.998060   0.000000
  258        7.181766     11.043391   0.997377   0.000000
  259        8.636166     11.056466   0.000000   0.000000
  260        8.663319     11.090766   0.000000   0.000000
  261       10.070689     11.121022   0.000000   0.000000
  262       10.640657     11.151837   0.000000   0.000000
  263       10.676222     11.161498   0.000000   0.000000
  264       11.024667     11.164866   0.000000   0.000000
  265       11.037511     11.184322   0.000000   0.000000
  266       11.052906     11.207408   0.000000   0.000000
  267       11.151385     11.257212   0.000000   0.000000
  268       11.159768     11.280654   0.000000   0.000000
  269       11.197266     11.302633   0.000000   0.000000
  270       11.239118     11.314023   0.000000   0.000000
  271       11.281941     11.353155   0.000000   0.000000
  272       11.297702     11.390174   0.000000   0.000000
  273       11.323448     11.393404   0.000000   0.000000
  274       11.345180     11.410854   0.000000   0.000000
  275       11.359691     11.429948   0.000000   0.000000
  276       11.372851     11.459082   0.000000   0.000000
  277       11.388660     11.476004   0.000000   0.000000
  278       11.399796     11.481082   0.000000   0.000000
  279       11.439568     11.490933   0.000000   0.000000
  280       11.444131     11.510090   0.000000   0.000000
  281       11.453465     11.514606   0.000000   0.000000
  282       11.477215     11.524922   0.000000   0.000000
  283       11.486620     11.538995   0.000000   0.000000
  284       11.508035     11.550086   0.000000   0.000000
  285       11.518487     11.564449   0.000000   0.000000
  286       11.536154     11.578212   0.000000   0.000000
  287       11.548752     11.592778   0.000000   0.000000
  288       11.566498     11.600353   0.000000   0.000000
  289       11.584228     11.606371   0.000000   0.000000
  290       11.590329     11.614175   0.000000   0.000000
  291       11.593561     11.624419   0.000000   0.000000
  292       11.600077     11.641088   0.000000   0.000000
  293       11.613795     11.666798   0.000000   0.000000
  294       11.619997     11.670467   0.000000   0.000000
  295       11.640706     11.684093   0.000000   0.000000
  296       11.657019     11.691335   0.000000   0.000000
  297       11.670933     11.697771   0.000000   0.000000
  298       11.682325     11.703460   0.000000   0.000000
  299       11.695799     11.717575   0.000000   0.000000
  300       11.697826     11.726193   0.000000   0.000000
  301       11.709082     11.737422   0.000000   0.000000
  302       11.713480     11.749663   0.000000   0.000000
  303       11.727650     11.759010   0.000000   0.000000
  304       11.735230     11.767109   0.000000   0.000000
  305       11.745752     11.768804   0.000000   0.000000
  306       11.757493     11.775950   0.000000   0.000000
  307       11.761310     11.782144   0.000000   0.000000
  308       11.768017     11.782991   0.000000   0.000000
  309       11.768859     11.800385   0.000000   0.000000
  310       11.777046     11.807149   0.000000   0.000000
  311       11.793512     11.811425   0.000000   0.000000
  312       11.797097     11.828097   0.000000   0.000000
  313       11.804831     11.835009   0.000000   0.000000
  314       11.818019     11.838532   0.000000   0.000000
  315       11.825263     11.848487   0.000000   0.000000
  316       11.833685     11.855080   0.000000   0.000000
  317       11.841430     11.862871   0.000000   0.000000
  318       11.846680     11.866094   0.000000   0.000000
  319       11.854321     11.870739   0.000000   0.000000
  320       11.861220     11.879539   0.000000   0.000000
  321       11.863367     11.886151   0.000000   0.000000
  322       11.873833     11.894793   0.000000   0.000000
  323       11.880852     11.906459   0.000000   0.000000
  324       11.893036     11.910222   0.000000   0.000000

  0.3333333E+00  0.1262399E-14  0.1262310E-14  0.1111111E+00
    1      -57.390688    -55.309586   1.000000   1.000000
    2      -57.250282    -55.282720   1.000000   1.000000
    3      -57.249169    -55.270229   1.000000   1.000000
    4      -57.171610    -55.100050   1.000000   1.000000
    5      -57.128738    -55.099216   1.000000   1.000000
    6      -57.118037    -55.098066   1.000000   1.000000
    7      -57.108502    -55.092175   1.000000   1.000000
    8      -57.104654    -55.091198   1.000000   1.000000
    9      -57.104537    -55.087334   1.000000   1.000000
   10      -57.102489    -55.079577   1.000000   1.000000
   11      -57.096542    -55.076372   1.000000   1.000000
   12      -57.094262    -55.070180   1.000000   1.000000
   13      -57.092725    -55.060045   1.000000   1.000000
   14      -57.078490    -55.058648   1.000000   1.000000
   15      -57.078392    -55.050904   1.000000   1.000000
   16      -57.074722    -55.050448   1.000000   1.000000
   17      -57.074488    -55.049460   1.000000   1.000000
   18      -57.073955    -55.036106   1.000000   1.000000
   19      -57.057444    -55.015389   1.000000   1.000000
   20      -57.056841    -55.013990   1.000000   1.000000
   21      -57.050512    -55.007688   1.000000   1.000000
   22      -57.048845    -54.988828   1.000000   1.000000
   23      -57.039761    -54.988389   1.000000   1.000000
   24      -57.036376    -54.980004   1.000000   1.000000
   25      -23.482686    -23.479532   1.000000   1.000000
   26      -23.396835    -23.393667   1.000000   1.000000
   27      -23.344478    -23.341545   1.000000   1.000000
   28      -23.302854    -23.299927   1.000000   1.000000
   29      -23.289667    -23.286900   1.000000   1.000000
   30      -23.276564    -23.273499   1.000000   1.000000
   31      -23.260655    -23.257811   1.000000   1.000000
   32      -23.252154    -23.249201   1.000000   1.000000
   33      -23.170336    -23.167540   1.000000   1.000000
   34      -23.140844    -23.138199   1.000000   1.000000
   35      -23.084467    -23.081908   1.000000   1.000000
   36      -23.026824    -23.024439   1.000000   1.000000
   37      -23.017527    -23.015204   1.000000   1.000000
   38      -22.911190    -22.908873   1.000000   1.000000
   39      -22.883401    -22.880609   1.000000   1.000000
   40      -22.847895    -22.847089   1.000000   1.000000
   41      -11.175568    -11.135425   1.000000   1.000000
   42      -11.131873    -11.088454   1.000000   1.000000
   43      -11.083701    -11.042376   1.000000   1.000000
   44      -10.972747    -10.930715   1.000000   1.000000
   45      -10.892723    -10.847340   1.000000   1.000000
   46      -10.822592    -10.774169   1.000000   1.000000
   47      -10.710919    -10.687494   1.000000   1.000000
   48      -10.621585    -10.595499   1.000000   1.000000
   49      -10.567030    -10.519479   1.000000   1.000000
   50      -10.451239    -10.435081   1.000000   1.000000
   51      -10.423405    -10.409719   1.000000   1.000000
   52      -10.385468    -10.356266   1.000000   1.000000
   53      -10.299623    -10.284163   1.000000   1.000000
   54      -10.286909    -10.266258   1.000000   1.000000
   55      -10.191914    -10.155427   1.000000   1.000000
   56      -10.113226    -10.057875   1.000000   1.000000
   57      -10.071496    -10.004681   1.000000   1.000000
   58      -10.043341     -9.986086   1.000000   1.000000
   59       -9.969200     -9.907900   1.000000   1.000000
   60       -9.941990     -9.885408   1.000000   1.000000
   61       -9.916291     -9.853199   1.000000   1.000000
   62       -9.837389     -9.778225   1.000000   1.000000
   63       -9.795811     -9.711106   1.000000   1.000000
   64       -9.762841     -9.674391   1.000000   1.000000
   65       -9.729844     -9.653498   1.000000   1.000000
   66       -9.633877     -9.520720   1.000000   1.000000
   67       -9.598942     -9.514318   1.000000   1.000000
   68       -9.582273     -9.503183   1.000000   1.000000
   69       -9.534779     -9.441095   1.000000   1.000000
   70       -9.528653     -9.420356   1.000000   1.000000
   71       -9.499935     -9.401301   1.000000   1.000000
   72       -9.483782     -9.373412   1.000000   1.000000
   73       -9.276046     -9.213800   1.000000   1.000000
   74       -7.294123     -7.282316   1.000000   1.000000
   75       -7.247348     -7.233665   1.000000   1.000000
   76       -7.186452     -7.176131   1.000000   1.000000
   77       -7.160211     -7.150805   1.000000   1.000000
   78       -7.125267     -7.114380   1.000000   1.000000
   79       -7.116704     -7.103313   1.000000   1.000000
   80       -7.094709     -7.079768   1.000000   1.000000
   81       -7.037455     -7.025719   1.000000   1.000000
   82       -7.005960     -6.998011   1.000000   1.000000
   83       -6.981319     -6.971270   1.000000   1.000000
   84       -6.969115     -6.959322   1.000000   1.000000
   85       -6.949458     -6.939921   1.000000   1.000000
   86       -6.915896     -6.903418   1.000000   1.000000
   87       -6.886650     -6.876569   1.000000   1.000000
   88       -6.876606     -6.866748   1.000000   1.000000
   89       -6.870937     -6.863110   1.000000   1.000000
   90       -6.854390     -6.840871   1.000000   1.000000
   91       -6.827093     -6.814847   1.000000   1.000000
   92       -6.814005     -6.807605   1.000000   1.000000
   93       -6.793850     -6.784499   1.000000   1.000000
   94       -6.746652     -6.733545   1.000000   1.000000
   95       -6.696093     -6.686983   1.000000   1.000000
   96       -6.678342     -6.667173   1.000000   1.000000
   97       -6.646746     -6.637913   1.000000   1.000000
   98       -6.627108     -6.615627   1.000000   1.000000
   99       -6.588842     -6.581244   1.000000   1.000000
  100       -6.547026     -6.534885   1.000000   1.000000
  101       -6.519617     -6.506034   1.000000   1.000000
  102       -6.474577     -6.464973   1.000000   1.000000
  103       -6.434655     -6.425440   1.000000   1.000000
  104       -6.372723     -6.341287   1.000000   1.000000
  105       -6.209512     -6.189730   1.000000   1.000000
  106       -6.144768     -6.125219   1.000000   1.000000
  107       -6.117595     -6.095445   1.000000   1.000000
  108       -6.061320     -6.040176   1.000000   1.000000
  109       -6.008367     -5.984726   1.000000   1.000000
  110       -5.960499     -5.935912   1.000000   1.000000
  111       -5.931417     -5.902071   1.000000   1.000000
  112       -5.915073     -5.888742   1.000000   1.000000
  113       -5.887524     -5.859998   1.000000   1.000000
  114       -5.815926     -5.783117   1.000000   1.000000
  115       -5.794888     -5.759325   1.000000   1.000000
  116       -5.757467     -5.720964   1.000000   1.000000
  117       -5.699512     -5.662480   1.000000   1.000000
  118       -5.677412     -5.629224   1.000000   1.000000
  119       -5.587369     -5.552028   1.000000   1.000000
  120       -4.885095     -4.871266   1.000000   1.000000
  121       -4.729135     -4.715937   1.000000   1.000000
  122        0.307567      1.427120   1.000000   1.000000
  123        0.329405      1.459181   1.000000   1.000000
  124        0.330167      2.048408   1.000000   1.000000
  125        0.368204      2.054458   1.000000   1.000000
  126        0.644757      2.383586   1.000000   1.000000
  127        0.722927      2.442040   1.000000   1.000000
  128        0.773048      2.534965   1.000000   1.000000
  129        0.807542      2.583519   1.000000   1.000000
  130        1.449988      2.627394   1.000000   1.000000
  131        1.518002      2.649250   1.000000   1.000000
  132        1.550280      2.669880   1.000000   1.000000
  133        1.562637      2.683728   1.000000   1.000000
  134        1.739424      2.739096   1.000000   1.000000
  135        1.757863      2.781295   1.000000   1.000000
  136        1.810750      2.840834   1.000000   1.000000
  137        1.827753      2.873940   1.000000   1.000000
  138        1.964111      2.927230   1.000000   1.000000
  139        2.001383      2.946353   1.000000   1.000000
  140        2.018404      2.990188   1.000000   1.000000
  141        2.083544      3.030652   1.000000   1.000000
  142        2.092329      3.054592   1.000000   1.000000
  143        2.135864      3.081992   1.000000   1.000000
  144        2.164570      3.103743   1.000000   1.000000
  145        2.223748      3.179295   1.000000   1.000000
  146        2.260886      3.191124   1.000000   1.000000
  147        2.286232      3.276815   1.000000   1.000000
  148        2.332783      3.342689   1.000000   1.000000
  149        2.343352      3.401930   1.000000   1.000000
  150        2.362230      3.455600   1.000000   1.000000
  151        2.384944      3.488999   1.000000   1.000000
  152        2.425858      3.591495   1.000000   1.000000
  153        2.504155      3.620625   1.000000   1.000000
  154        2.522261      3.657903   1.000000   1.000000
  155        2.536290      3.804144   1.000000   1.000000
  156        2.567316      3.820267   1.000000   1.000000
  157        2.587268      3.830112   1.000000   1.000000
  158        2.634665      3.837548   1.000000   1.000000
  159        2.641089      3.868980   1.000000   1.000000
  160        2.691702      3.914723   1.000000   1.000000
  161        2.765568      3.959850   1.000000   1.000000
  162        2.777748      4.017684   1.000000   1.000000
  163        2.802351      4.065091   1.000000   1.000000
  164        2.835200      4.105539   1.000000   1.000000
  165        2.848510      4.175366   1.000000   1.000000
  166        3.358701      4.281670   1.000000   1.000000
  167        3.460197      4.317872   1.000000   1.000000
  168        3.534248      4.371219   1.000000   1.000000
  169        3.583824      4.459013   1.000000   1.000000
  170        3.633136      4.514911   1.000000   1.000000
  171        3.756477      4.539837   1.000000   1.000000
  172        3.804920      4.605741   1.000000   1.000000
  173        3.870152      4.648947   1.000000   1.000000
  174        3.971208      4.664650   1.000000   1.000000
  175        4.098718      4.678297   1.000000   1.000000
  176        4.171961      4.697211   1.000000   1.000000
  177        4.208662      4.717547   1.000000   1.000000
  178        4.248158      4.759625   1.000000   1.000000
  179        4.358088      4.793699   1.000000   1.000000
  180        4.404214      4.834849   1.000000   1.000000
  181        4.435736      4.879065   1.000000   1.000000
  182        4.472439      4.888631   1.000000   1.000000
  183        4.532683      4.913591   1.000000   1.000000
  184        4.578017      4.927753   1.000000   1.000000
  185        4.626183      4.954626   1.000000   1.000000
  186        4.674400      4.979227   1.000000   1.000000
  187        4.697042      5.023348   1.000000   1.000000