       N       E                     dE             d eps       ncg     rms          rms(c)
DAV:   1     0.832683296950E+04    0.83268E+04   -0.15462E+05 14292   0.209E+03
DAV:   2     0.290848690293E+04   -0.54183E+04   -0.49685E+04 14472   0.647E+02
DAV:   3     0.723958072360E+03   -0.21845E+04   -0.19427E+04 14624   0.312E+02
DAV:   4    -0.220976484480E+03   -0.94493E+03   -0.88930E+03 20136   0.178E+02
DAV:   5    -0.433232602630E+03   -0.21226E+03   -0.20579E+03 25344   0.107E+02    0.796E+01
DAV:   6    -0.408537618746E+03    0.24695E+02   -0.10404E+03 22488   0.103E+02    0.139E+02
DAV:   7    -0.411244725468E+03   -0.27071E+01   -0.27156E+02 23176   0.633E+01    0.449E+01
DAV:   8    -0.408752220178E+03    0.24925E+01   -0.34586E+01 21976   0.282E+01    0.237E+01
DAV:   9    -0.412505692212E+03   -0.37535E+01   -0.18616E+01 23056   0.150E+01    0.203E+01
DAV:  10    -0.413926031125E+03   -0.14203E+01   -0.54862E+00 23256   0.882E+00    0.150E+01
DAV:  11    -0.414701628066E+03   -0.77560E+00   -0.30915E+00 25680   0.509E+00    0.106E+01
DAV:  12    -0.414884280112E+03   -0.18265E+00   -0.81653E-01 24360   0.335E+00    0.838E+00
DAV:  13    -0.414938589669E+03   -0.54310E-01   -0.30833E-01 24040   0.185E+00    0.509E+00
DAV:  14    -0.414948930979E+03   -0.10341E-01   -0.91906E-02 23856   0.103E+00    0.357E+00
DAV:  15    -0.414954207735E+03   -0.52768E-02   -0.34582E-02 24480   0.616E-01    0.257E+00
DAV:  16    -0.414956005765E+03   -0.17980E-02   -0.12790E-02 22808   0.481E-01    0.166E+00
DAV:  17    -0.414956190934E+03   -0.18517E-03   -0.88302E-03 22664   0.343E-01    0.902E-01
DAV:  18    -0.414956824546E+03   -0.63361E-03   -0.62945E-03 25080   0.202E-01    0.569E-01
DAV:  19    -0.414957092607E+03   -0.26806E-03   -0.12148E-03 24720   0.117E-01    0.400E-01
DAV:  20    -0.414957142555E+03   -0.49948E-04   -0.44731E-04 22448   0.962E-02    0.219E-01
DAV:  21    -0.414957213517E+03   -0.70961E-04   -0.34457E-04 23560   0.582E-02    0.121E-01
DAV:  22    -0.414957253963E+03   -0.40447E-04   -0.18001E-04 24592   0.408E-02    0.875E-02
DAV:  23    -0.414957273567E+03   -0.19604E-04   -0.55296E-05 23704   0.266E-02    0.579E-02
DAV:  24    -0.414957292415E+03   -0.18848E-04   -0.34534E-05 24520   0.193E-02    0.331E-02
DAV:  25    -0.414957319103E+03   -0.26689E-04   -0.36502E-05 23816   0.208E-02    0.142E-02
DAV:  26    -0.414957339110E+03   -0.20006E-04   -0.29500E-05 21168   0.169E-02    0.197E-02
DAV:  27    -0.414957349936E+03   -0.10827E-04   -0.17548E-05 20120   0.967E-03    0.197E-02
DAV:  28    -0.414957365284E+03   -0.15347E-04   -0.21361E-05 18368   0.163E-02    0.152E-02
DAV:  29    -0.414957376004E+03   -0.10720E-04   -0.26326E-05 17912   0.144E-02    0.123E-02
DAV:  30    -0.414957383907E+03   -0.79032E-05   -0.31934E-05 18168   0.126E-02    0.890E-03
DAV:  31    -0.414957388437E+03   -0.45300E-05   -0.16817E-05 18200   0.122E-02    0.699E-03
DAV:  32    -0.414957391492E+03   -0.30544E-05   -0.12545E-05 16568   0.837E-03    0.543E-03
DAV:  33    -0.414957392917E+03   -0.14255E-05   -0.31821E-06 13312   0.473E-03    0.279E-03
DAV:  34    -0.414957393202E+03   -0.28504E-06   -0.53841E-07 12840   0.261E-03    0.191E-03
DAV:  35    -0.414957393515E+03   -0.31290E-06   -0.58695E-07 12320   0.413E-03    0.202E-03
DAV:  36    -0.414957393854E+03   -0.33949E-06   -0.12264E-06 12944   0.283E-03    0.154E-03
DAV:  37    -0.414957394039E+03   -0.18453E-06   -0.34815E-07 11144   0.264E-03    0.141E-03
DAV:  38    -0.414957394192E+03   -0.15297E-06   -0.54001E-07 12752   0.244E-03    0.116E-03
DAV:  39    -0.414957394319E+03   -0.12705E-06   -0.55388E-07 11504   0.229E-03    0.106E-03
DAV:  40    -0.414957394425E+03   -0.10634E-06   -0.38887E-07 12040   0.204E-03    0.999E-04
DAV:  41    -0.414957394494E+03   -0.69100E-07   -0.17491E-07 10744   0.159E-03
   1 F= -.41495739E+03 E0= -.41494623E+03  d E =-.414957E+03  mag=    14.0020
       N       E                     dE             d eps       ncg     rms          rms(c)
DAV:   1    -0.414964637556E+03   -0.72431E-02   -0.24545E-02 17440   0.536E-01    0.622E-02
DAV:   2    -0.414964952844E+03   -0.31529E-03   -0.33903E-03 22504   0.171E-01    0.366E-02
DAV:   3    -0.414964968954E+03   -0.16110E-04   -0.21828E-04 23888   0.471E-02    0.295E-02
DAV:   4    -0.414964967274E+03    0.16801E-05   -0.34792E-05 24160   0.192E-02    0.196E-02
DAV:   5    -0.414964964688E+03    0.25854E-05   -0.24091E-05 21928   0.153E-02    0.115E-02
DAV:   6    -0.414964965339E+03   -0.65029E-06   -0.86202E-06 22272   0.972E-03    0.599E-03
DAV:   7    -0.414964965408E+03   -0.69071E-07   -0.44432E-06 23696   0.539E-03    0.365E-03
DAV:   8    -0.414964965487E+03   -0.79213E-07   -0.59364E-07 17200   0.350E-03
   2 F= -.41496497E+03 E0= -.41495375E+03  d E =-.757099E-02  mag=    14.0021
       N       E                     dE             d eps       ncg     rms          rms(c)
DAV:   1    -0.414863887061E+03    0.10108E+00   -0.19850E+01 17032   0.152E+01    0.175E+00
DAV:   2    -0.415117130389E+03   -0.25324E+00   -0.26936E+00 22456   0.489E+00    0.109E+00
DAV:   3    -0.415128820479E+03   -0.11690E-01   -0.16353E-01 23992   0.128E+00    0.765E-01
DAV:   4    -0.415127499998E+03    0.13205E-02   -0.28148E-02 24240   0.553E-01    0.575E-01
DAV:   5    -0.415126288244E+03    0.12118E-02   -0.12398E-02 23136   0.375E-01    0.323E-01
DAV:   6    -0.415126518397E+03   -0.23015E-03   -0.45172E-03 23424   0.223E-01    0.181E-01
DAV:   7    -0.415126666930E+03   -0.14853E-03   -0.21262E-03 24544   0.132E-01    0.101E-01
DAV:   8    -0.415126713774E+03   -0.46844E-04   -0.50846E-04 23232   0.935E-02    0.517E-02
DAV:   9    -0.415126718366E+03   -0.45918E-05   -0.22922E-04 25280   0.487E-02    0.303E-02
DAV:  10    -0.415126716887E+03    0.14788E-05   -0.63976E-05 25744   0.250E-02    0.168E-02
DAV:  11    -0.415126719726E+03   -0.28394E-05   -0.20930E-05 24840   0.152E-02    0.963E-03
DAV:  12    -0.415126721014E+03   -0.12873E-05   -0.57734E-06 23928   0.892E-03    0.646E-03
DAV:  13    -0.415126722013E+03   -0.99959E-06   -0.23040E-06 22272   0.598E-03    0.481E-03
DAV:  14    -0.415126722549E+03   -0.53586E-06   -0.83026E-07 14872   0.365E-03    0.318E-03
DAV:  15    -0.415126723139E+03   -0.58974E-06   -0.84751E-07 16656   0.327E-03    0.262E-03
DAV:  16    -0.415126723675E+03   -0.53602E-06   -0.45499E-07 12304   0.313E-03    0.226E-03
DAV:  17    -0.415126724217E+03   -0.54191E-06   -0.72320E-07 13384   0.327E-03    0.206E-03
DAV:  18    -0.415126724646E+03   -0.42868E-06   -0.66840E-07 12624   0.323E-03    0.188E-03
DAV:  19    -0.415126725041E+03   -0.39512E-06   -0.10689E-06 12936   0.387E-03    0.178E-03
DAV:  20    -0.415126725302E+03   -0.26165E-06   -0.95498E-07 12000   0.302E-03    0.141E-03
DAV:  21    -0.415126725429E+03   -0.12670E-06   -0.37244E-07 11840   0.232E-03    0.101E-03
DAV:  22    -0.415126725490E+03   -0.60965E-07   -0.21699E-07 10680   0.203E-03
   3 F= -.41512673E+03 E0= -.41511273E+03  d E =-.161760E+00  mag=    14.0169
       N       E                     dE             d eps       ncg     rms          rms(c)
DAV:   1    -0.414358693982E+03    0.76803E+00   -0.53322E+01 15944   0.273E+01    0.300E+00
DAV:   2    -0.415203086603E+03   -0.84439E+00   -0.88141E+00 22088   0.883E+00    0.200E+00
DAV:   3    -0.415251059922E+03   -0.47973E-01   -0.53679E-01 24592   0.230E+00    0.120E+00
DAV:   4    -0.415247485833E+03    0.35741E-02   -0.69284E-02 23912   0.939E-01    0.945E-01
DAV:   5    -0.415242308371E+03    0.51775E-02   -0.33792E-02 23392   0.594E-01    0.548E-01
DAV:   6    -0.415242397559E+03   -0.89188E-04   -0.12377E-02 23384   0.365E-01    0.317E-01
DAV:   7    -0.415242720593E+03   -0.32303E-03   -0.49120E-03 24560   0.219E-01    0.183E-01
DAV:   8    -0.415242905388E+03   -0.18480E-03   -0.12375E-03 23144   0.153E-01    0.937E-02
DAV:   9    -0.415242937965E+03   -0.32577E-04   -0.62834E-04 25384   0.811E-02    0.544E-02
DAV:  10    -0.415242922246E+03    0.15719E-04   -0.17605E-04 25672   0.453E-02    0.322E-02
DAV:  11    -0.415242932185E+03   -0.99392E-05   -0.86491E-05 24720   0.286E-02    0.190E-02
DAV:  12    -0.415242935378E+03   -0.31924E-05   -0.16272E-05 22928   0.167E-02    0.111E-02
DAV:  13    -0.415242939471E+03   -0.40934E-05   -0.84155E-06 24112   0.985E-03    0.930E-03
DAV:  14    -0.415242942182E+03   -0.27111E-05   -0.34468E-06 21064   0.661E-03    0.649E-03
DAV:  15    -0.415242945075E+03   -0.28923E-05   -0.28236E-06 20408   0.573E-03    0.551E-03
DAV:  16    -0.415242947931E+03   -0.28558E-05   -0.27707E-06 16136   0.587E-03    0.493E-03
DAV:  17    -0.415242950553E+03   -0.26229E-05   -0.37745E-06 16360   0.629E-03    0.443E-03
DAV:  18    -0.415242952630E+03   -0.20762E-05   -0.38536E-06 14808   0.648E-03    0.404E-03
DAV:  19    -0.415242954124E+03   -0.14944E-05   -0.48106E-06 15856   0.668E-03    0.377E-03
DAV:  20    -0.415242955120E+03   -0.99636E-06   -0.38350E-06 13704   0.496E-03    0.281E-03
DAV:  21    -0.415242955575E+03   -0.45489E-06   -0.10966E-06 12632   0.342E-03    0.186E-03
DAV:  22    -0.415242955772E+03   -0.19665E-06   -0.64496E-07 12528   0.261E-03    0.125E-03
DAV:  23    -0.415242955863E+03   -0.90949E-07   -0.28537E-07 11392   0.234E-03
   4 F= -.41524296E+03 E0= -.41522655E+03  d E =-.116230E+00  mag=    14.0329
       N       E                     dE             d eps       ncg     rms          rms(c)
DAV:   1    -0.414721947079E+03    0.52101E+00   -0.25425E+01 14328   0.220E+01    0.221E+00
DAV:   2    -0.415262380318E+03   -0.54043E+00   -0.56015E+00 22108   0.703E+00    0.131E+00
DAV:   3    -0.415290972237E+03   -0.28592E-01   -0.29137E-01 24336   0.167E+00    0.759E-01
DAV:   4    -0.415290499636E+03    0.47260E-03   -0.35514E-02 24048   0.637E-01    0.628E-01
DAV:   5    -0.415288429794E+03    0.20698E-02   -0.10379E-02 23824   0.360E-01    0.432E-01
DAV:   6    -0.415287583609E+03    0.84619E-03   -0.56273E-03 21952   0.264E-01    0.210E-01
DAV:   7    -0.415287861378E+03   -0.27777E-03   -0.29878E-03 24024   0.172E-01    0.129E-01
DAV:   8    -0.415287959480E+03   -0.98102E-04   -0.72850E-04 23664   0.108E-01    0.593E-02
DAV:   9    -0.415287982448E+03   -0.22969E-04   -0.28723E-04 25512   0.601E-02    0.394E-02
DAV:  10    -0.415287981649E+03    0.79932E-06   -0.92870E-05 24920   0.380E-02    0.248E-02
DAV:  11    -0.415287990357E+03   -0.87078E-05   -0.41101E-05 24448   0.213E-02    0.146E-02
DAV:  12    -0.415287993958E+03   -0.36015E-05   -0.11126E-05 23904   0.124E-02    0.103E-02
DAV:  13    -0.415287997386E+03   -0.34275E-05   -0.59733E-06 23360   0.821E-03    0.802E-03
DAV:  14    -0.415288000302E+03   -0.29159E-05   -0.28708E-06 20168   0.616E-03    0.644E-03
DAV:  15    -0.415288003598E+03   -0.32959E-05   -0.29447E-06 18600   0.588E-03    0.556E-03
DAV:  16    -0.415288006748E+03   -0.31500E-05   -0.34616E-06 14968   0.599E-03    0.497E-03
DAV:  17    -0.415288010155E+03   -0.34074E-05   -0.63573E-06 17904   0.948E-03    0.511E-03
DAV:  18    -0.415288012492E+03   -0.23365E-05   -0.91013E-06 14048   0.639E-03    0.402E-03
DAV:  19    -0.415288013725E+03   -0.12336E-05   -0.37266E-06 14320   0.575E-03    0.319E-03
DAV:  20    -0.415288014441E+03   -0.71533E-06   -0.24250E-06 13200   0.429E-03    0.226E-03
DAV:  21    -0.415288014775E+03   -0.33408E-06   -0.12542E-06 13512   0.363E-03    0.174E-03
DAV:  22    -0.415288014973E+03   -0.19842E-06   -0.62750E-07 12392   0.252E-03    0.108E-03
DAV:  23    -0.415288015051E+03   -0.77591E-07   -0.19650E-07 10688   0.190E-03
   5 F= -.41528802E+03 E0= -.41527273E+03  d E =-.450592E-01  mag=    14.0242
       N       E                     dE             d eps       ncg     rms          rms(c)
DAV:   1    -0.413578051691E+03    0.17100E+01   -0.80507E+01 14144   0.380E+01    0.409E+00
DAV:   2    -0.415242183160E+03   -0.16641E+01   -0.17227E+01 22064   0.124E+01    0.268E+00
DAV:   3    -0.415343751267E+03   -0.10157E+00   -0.10193E+00 24232   0.292E+00    0.143E+00
DAV:   4    -0.415346166601E+03   -0.24153E-02   -0.13331E-01 23472   0.118E+00    0.116E+00
DAV:   5    -0.415342874193E+03    0.32924E-02   -0.35223E-02 24672   0.564E-01    0.829E-01
DAV:   6    -0.415340223237E+03    0.26510E-02   -0.11703E-02 21568   0.400E-01    0.449E-01
DAV:   7    -0.415340636912E+03   -0.41368E-03   -0.85264E-03 22544   0.291E-01    0.249E-01
DAV:   8    -0.415341004996E+03   -0.36808E-03   -0.31537E-03 24792   0.184E-01    0.103E-01
DAV:   9    -0.415341081408E+03   -0.76411E-04   -0.96523E-04 25032   0.111E-01    0.804E-02
DAV:  10    -0.415341091884E+03   -0.10477E-04   -0.27280E-04 24832   0.687E-02    0.473E-02
DAV:  11    -0.415341119598E+03   -0.27714E-04   -0.16119E-04 25112   0.422E-02    0.282E-02
DAV:  12    -0.415341138236E+03   -0.18638E-04   -0.43396E-05 22584   0.247E-02    0.190E-02
DAV:  13    -0.415341152271E+03   -0.14034E-04   -0.20264E-05 23704   0.139E-02    0.155E-02
DAV:  14    -0.415341165908E+03   -0.13638E-04   -0.12501E-05 23384   0.113E-02    0.130E-02
DAV:  15    -0.415341182523E+03   -0.16615E-04   -0.14356E-05 20752   0.131E-02    0.120E-02
DAV:  16    -0.415341200131E+03   -0.17608E-04   -0.24130E-05 19728   0.161E-02    0.109E-02
DAV:  17    -0.415341212180E+03   -0.12049E-04   -0.32136E-05 18432   0.128E-02    0.938E-03
DAV:  18    -0.415341220712E+03   -0.85326E-05   -0.23724E-05 19720   0.153E-02    0.869E-03
DAV:  19    -0.415341225848E+03   -0.51352E-05   -0.19027E-05 16664   0.110E-02    0.661E-03
DAV:  20    -0.415341228557E+03   -0.27096E-05   -0.10582E-05 15352   0.674E-03    0.413E-03
DAV:  21    -0.415341229572E+03   -0.10153E-05   -0.24461E-06 13544   0.466E-03    0.270E-03
DAV:  22    -0.415341229993E+03   -0.42091E-06   -0.16642E-06 13672   0.433E-03    0.213E-03
DAV:  23    -0.415341230264E+03   -0.27034E-06   -0.10647E-06 12984   0.315E-03    0.154E-03
DAV:  24    -0.415341230412E+03   -0.14806E-06   -0.31736E-07 11272   0.231E-03    0.868E-04
DAV:  25    -0.415341230469E+03   -0.56971E-07   -0.99023E-08  9528   0.176E-03
   6 F= -.41534123E+03 E0= -.41532783E+03  d E =-.532154E-01  mag=    14.0094
       N       E                     dE             d eps       ncg     rms          rms(c)
DAV:   1    -0.413522209335E+03    0.18190E+01   -0.73994E+01 14072   0.444E+01    0.400E+00
DAV:   2    -0.415276552987E+03   -0.17543E+01   -0.18150E+01 22168   0.132E+01    0.221E+00
DAV:   3    -0.415370411577E+03   -0.93859E-01   -0.94585E-01 24216   0.305E+00    0.127E+00
DAV:   4    -0.415372873687E+03   -0.24621E-02   -0.11674E-01 24808   0.111E+00    0.106E+00
DAV:   5    -0.415369377215E+03    0.34965E-02   -0.25512E-02 24384   0.593E-01    0.787E-01
DAV:   6    -0.415366958497E+03    0.24187E-02   -0.98524E-03 21472   0.431E-01    0.394E-01
DAV:   7    -0.415367410132E+03   -0.45163E-03   -0.74154E-03 22664   0.286E-01    0.225E-01
DAV:   8    -0.415367761914E+03   -0.35178E-03   -0.24750E-03 24568   0.174E-01    0.932E-02
DAV:   9    -0.415367812839E+03   -0.50925E-04   -0.65375E-04 24424   0.101E-01    0.721E-02
DAV:  10    -0.415367818571E+03   -0.57322E-05   -0.24551E-04 24608   0.648E-02    0.430E-02
DAV:  11    -0.415367848590E+03   -0.30019E-04   -0.17324E-04 25216   0.429E-02    0.255E-02
DAV:  12    -0.415367867998E+03   -0.19407E-04   -0.48690E-05 22320   0.252E-02    0.189E-02
DAV:  13    -0.415367881050E+03   -0.13053E-04   -0.19606E-05 24088   0.136E-02    0.153E-02
DAV:  14    -0.415367897322E+03   -0.16272E-04   -0.12473E-05 22216   0.120E-02    0.132E-02
DAV:  15    -0.415367920293E+03   -0.22970E-04   -0.23635E-05 20728   0.180E-02    0.129E-02
DAV:  16    -0.415367938601E+03   -0.18309E-04   -0.45912E-05 18904   0.167E-02    0.114E-02
DAV:  17    -0.415367950296E+03   -0.11694E-04   -0.27366E-05 19376   0.136E-02    0.899E-03
DAV:  18    -0.415367957720E+03   -0.74242E-05   -0.21272E-05 19240   0.150E-02    0.844E-03
DAV:  19    -0.415367962483E+03   -0.47624E-05   -0.20570E-05 17744   0.104E-02    0.612E-03
DAV:  20    -0.415367964669E+03   -0.21860E-05   -0.64188E-06 14888   0.646E-03    0.368E-03
DAV:  21    -0.415367965456E+03   -0.78735E-06   -0.21637E-06 13840   0.413E-03    0.235E-03
DAV:  22    -0.415367965746E+03   -0.28983E-06   -0.93691E-07 13072   0.376E-03    0.178E-03
DAV:  23    -0.415367965941E+03   -0.19569E-06   -0.70011E-07 12168   0.291E-03    0.133E-03
DAV:  24    -0.415367966061E+03   -0.11950E-06   -0.34310E-07 11504   0.234E-03    0.996E-04
DAV:  25    -0.415367966131E+03   -0.70126E-07   -0.17419E-07 10328   0.184E-03
   7 F= -.41536797E+03 E0= -.41535574E+03  d E =-.267357E-01  mag=    14.0034
       N       E                     dE             d eps       ncg     rms          rms(c)
DAV:   1    -0.414827318010E+03    0.54065E+00   -0.27218E+01 14048   0.244E+01    0.209E+00
DAV:   2    -0.415359504828E+03   -0.53219E+00   -0.55120E+00 22224   0.753E+00    0.109E+00
DAV:   3    -0.415389856119E+03   -0.30351E-01   -0.32753E-01 24592   0.173E+00    0.667E-01
DAV:   4    -0.415389763597E+03    0.92522E-04   -0.36745E-02 25512   0.599E-01    0.565E-01
DAV:   5    -0.415387735279E+03    0.20283E-02   -0.94722E-03 24104   0.374E-01    0.407E-01
DAV:   6    -0.415386965175E+03    0.77010E-03   -0.43135E-03 21584   0.268E-01    0.188E-01
DAV:   7    -0.415387177189E+03   -0.21201E-03   -0.29583E-03 23688   0.162E-01    0.119E-01
DAV:   8    -0.415387294894E+03   -0.11770E-03   -0.84520E-04 24320   0.107E-01    0.555E-02
DAV:   9    -0.415387303386E+03   -0.84928E-05   -0.19335E-04 23912   0.613E-02    0.430E-02
DAV:  10    -0.415387313510E+03   -0.10123E-04   -0.12468E-04 25496   0.374E-02    0.260E-02
DAV:  11    -0.415387324896E+03   -0.11386E-04   -0.35205E-05 24600   0.211E-02    0.154E-02
DAV:  12    -0.415387332137E+03   -0.72413E-05   -0.17406E-05 24304   0.135E-02    0.123E-02
DAV:  13    -0.415387338322E+03   -0.61845E-05   -0.56918E-06 20968   0.101E-02    0.958E-03
DAV:  14    -0.415387344430E+03   -0.61086E-05   -0.66167E-06 19360   0.726E-03    0.823E-03
DAV:  15    -0.415387350544E+03   -0.61137E-05   -0.53233E-06 18240   0.766E-03    0.726E-03
DAV:  16    -0.415387357788E+03   -0.72435E-05   -0.11533E-05 19232   0.112E-02    0.703E-03
DAV:  17    -0.415387362829E+03   -0.50410E-05   -0.16498E-05 16248   0.955E-03    0.626E-03
DAV:  18    -0.415387365645E+03   -0.28162E-05   -0.79358E-06 16016   0.742E-03    0.460E-03
DAV:  19    -0.415387367105E+03   -0.14603E-05   -0.45810E-06 16264   0.629E-03    0.372E-03
DAV:  20    -0.415387367872E+03   -0.76669E-06   -0.28922E-06 13608   0.460E-03    0.271E-03
DAV:  21    -0.415387368200E+03   -0.32777E-06   -0.11390E-06 12472   0.333E-03    0.180E-03
DAV:  22    -0.415387368329E+03   -0.12910E-06   -0.42082E-07 11936   0.239E-03    0.106E-03
DAV:  23    -0.415387368376E+03   -0.46908E-07   -0.15520E-07 10576   0.192E-03
   8 F= -.41538737E+03 E0= -.41537487E+03  d E =-.194022E-01  mag=    14.0007
       N       E                     dE             d eps       ncg     rms          rms(c)
DAV:   1    -0.415239402469E+03    0.14797E+00   -0.53938E+00 14452   0.119E+01    0.115E+00
DAV:   2    -0.415387810671E+03   -0.14841E+00   -0.15360E+00 22120   0.361E+00    0.571E-01
DAV:   3    -0.415395070362E+03   -0.72597E-02   -0.73524E-02 24252   0.797E-01    0.339E-01
DAV:   4    -0.415395128933E+03   -0.58571E-04   -0.85908E-03 25136   0.267E-01    0.294E-01
DAV:   5    -0.415394693390E+03    0.43554E-03   -0.20411E-03 22832   0.175E-01    0.218E-01
DAV:   6    -0.415394514691E+03    0.17870E-03   -0.13052E-03 20488   0.140E-01    0.914E-02
DAV:   7    -0.415394597115E+03   -0.82424E-04   -0.83317E-04 24064   0.833E-02    0.504E-02
DAV:   8    -0.415394614443E+03   -0.17327E-04   -0.18616E-04 24784   0.500E-02    0.270E-02
DAV:   9    -0.415394616327E+03   -0.18842E-05   -0.38339E-05 24120   0.273E-02    0.215E-02
DAV:  10    -0.415394616071E+03    0.25618E-06   -0.21790E-05 25448   0.160E-02    0.113E-02
DAV:  11    -0.415394616964E+03   -0.89305E-06   -0.60659E-06 23448   0.916E-03    0.668E-03
DAV:  12    -0.415394617377E+03   -0.41292E-06   -0.23664E-06 21936   0.567E-03    0.459E-03
DAV:  13    -0.415394617837E+03   -0.45999E-06   -0.10865E-06 17296   0.399E-03    0.354E-03
DAV:  14    -0.415394618157E+03   -0.32015E-06   -0.44795E-07 13136   0.300E-03    0.231E-03
DAV:  15    -0.415394618466E+03   -0.30881E-06   -0.30205E-07 11696   0.240E-03    0.203E-03
DAV:  16    -0.415394618755E+03   -0.28936E-06   -0.32770E-07 12632   0.225E-03    0.178E-03
DAV:  17    -0.415394619093E+03   -0.33785E-06   -0.34350E-07 11096   0.268E-03    0.153E-03
DAV:  18    -0.415394619387E+03   -0.29420E-06   -0.66103E-07 12608   0.284E-03    0.145E-03
DAV:  19    -0.415394619576E+03   -0.18890E-06   -0.50740E-07 11728   0.273E-03    0.124E-03
DAV:  20    -0.415394619692E+03   -0.11642E-06   -0.42714E-07 11880   0.241E-03    0.103E-03
DAV:  21    -0.415394619751E+03   -0.58957E-07   -0.22334E-07 10920   0.197E-03
   9 F= -.41539462E+03 E0= -.41538235E+03  d E =-.725138E-02  mag=    14.0018
       N       E                     dE             d eps       ncg     rms          rms(c)
DAV:   1    -0.415365725240E+03    0.28894E-01   -0.12893E+00 14244   0.591E+00    0.512E-01
DAV:   2    -0.415396972286E+03   -0.31247E-01   -0.32296E-01 21728   0.178E+00    0.254E-01
DAV:   3    -0.415398604266E+03   -0.16320E-02   -0.16680E-02 24200   0.400E-01    0.153E-01
DAV:   4    -0.415398635158E+03   -0.30892E-04   -0.20000E-03 25472   0.131E-01    0.132E-01
DAV:   5    -0.415398534855E+03    0.10030E-03   -0.45885E-04 23064   0.877E-02    0.926E-02
DAV:   6    -0.415398510220E+03    0.24635E-04   -0.24217E-04 21488   0.629E-02    0.411E-02
DAV:   7    -0.415398524282E+03   -0.14061E-04   -0.13527E-04 23368   0.371E-02    0.274E-02
DAV:   8    -0.415398529333E+03   -0.50513E-05   -0.35846E-05 24176   0.235E-02    0.103E-02
DAV:   9    -0.415398530167E+03   -0.83376E-06   -0.10226E-05 24168   0.136E-02    0.111E-02
DAV:  10    -0.415398530715E+03   -0.54867E-06   -0.44715E-06 25016   0.755E-03    0.582E-03
DAV:  11    -0.415398531241E+03   -0.52514E-06   -0.16288E-06 20248   0.433E-03    0.392E-03
DAV:  12    -0.415398531672E+03   -0.43107E-06   -0.66553E-07 14000   0.332E-03    0.293E-03
DAV:  13    -0.415398531956E+03   -0.28406E-06   -0.38161E-07 12448   0.263E-03    0.235E-03
DAV:  14    -0.415398532352E+03   -0.39676E-06   -0.32112E-07 10440   0.269E-03    0.203E-03
DAV:  15    -0.415398532688E+03   -0.33574E-06   -0.51344E-07 12856   0.250E-03    0.173E-03
DAV:  16    -0.415398533131E+03   -0.44228E-06   -0.71267E-07 12296   0.412E-03    0.176E-03
DAV:  17    -0.415398533452E+03   -0.32170E-06   -0.15668E-06 12432   0.333E-03    0.156E-03
DAV:  18    -0.415398533621E+03   -0.16875E-06   -0.56162E-07 11712   0.252E-03    0.115E-03
DAV:  19    -0.415398533699E+03   -0.77991E-07   -0.28807E-07 11416   0.208E-03
  10 F= -.41539853E+03 E0= -.41538624E+03  d E =-.391395E-02  mag=    14.0018
