unknown system                          
           1
     7.779112    0.004108    0.003623
    -0.004572    7.778910   -0.003498
    -0.005983    0.006298   12.495625
   La   Ni   O 
    16     8    33
Direct configuration=     1
   0.24520417  0.26664136  0.85627305
   0.00559129  0.49962098  0.36255897
   0.98683374  0.49539127  0.64285040
   0.50057042  0.49551098  0.64142888
   0.48670755  0.50099351  0.36211551
   0.98808233  0.00064064  0.36256478
   0.00672187  0.00495218  0.64284811
   0.74617919  0.73848358  0.13879463
   0.50698090  0.99930749  0.36211768
   0.74729725  0.25751126  0.13747438
   0.74879033  0.23345623  0.85618788
   0.24746467  0.76176016  0.13879537
   0.24532839  0.75300715  0.86043099
   0.24633286  0.24279845  0.13747146
   0.49336071  0.00456225  0.64143775
   0.74818792  0.74716501  0.86040969
   0.24785471  0.25108262  0.49990207
   0.74590045  0.24920341  0.49992674
   0.74703044  0.74798704  0.50229745
   0.24664782  0.75231045  0.50230934
   0.49565312  0.50074996  0.99891934
   0.99692220  0.50188803  0.99973295
   0.49798685  0.99950805  0.99892458
   0.99671027  0.99836543  0.99975693
   0.46119090  0.00668288  0.17828958
   0.53167167  0.97595259  0.82761334
   0.02565987  0.54118316  0.82931555
   0.95993337  0.49103528  0.17813651
   0.53233767  0.49356188  0.17828030
   0.46210561  0.52449869  0.82754936
   0.24891194  0.79057659  0.67460012
   0.03388069  0.00917205  0.17814903
   0.24270321  0.28838864  0.32253376
   0.74766431  0.78427450  0.32200032
   0.74460671  0.70981630  0.67457133
   0.75100428  0.21198216  0.32252053
   0.72765828  0.27349553  0.66953244
   0.24599853  0.71590539  0.32201304
   0.96746532  0.95940556  0.82936022
   0.99688011  0.25013095  0.99587530
   0.49685827  0.25013547  0.48728089
   0.24750273  0.00603709  0.98325340
   0.24650105  0.50030008  0.01900698
   0.74713642  0.00005657  0.01917752
   0.74612504  0.49404273  0.98335251
   0.36885368  0.23454563  0.69633912
   0.99678909  0.75012236  0.01814628
   0.49684426  0.75015327  0.49464981
   0.49679842  0.25013378  0.99916838
   0.24687793  0.00109469  0.48139041
   0.24491500  0.50213635  0.51722999
   0.74884585  0.99810988  0.51712592
   0.74679517  0.49922307  0.48147201
   0.99688564  0.25017503  0.49767797
   0.99683148  0.75012009  0.49587381
   0.49684126  0.75011980  0.01296181
   0.06100282  0.24248459  0.72323928
Direct configuration=     2
   0.24574878  0.26752555  0.85817584
   0.00539137  0.49965789  0.36259182
   0.98581032  0.49607131  0.64287467
   0.50177959  0.49556949  0.64159101
   0.48682875  0.50088585  0.36218556
   0.98767385  0.00063241  0.36260971
   0.00450605  0.00202673  0.64218742
   0.74614755  0.73847470  0.13884480
   0.50714750  0.99944649  0.36221499
   0.74720112  0.25755372  0.13762014
   0.74963553  0.23291625  0.85594391
   0.24734753  0.76175859  0.13872828
   0.24514217  0.75289023  0.86029156
   0.24628575  0.24274196  0.13730014
   0.49596609  0.00176531  0.64097819
   0.74820738  0.74726614  0.86008775
   0.24834714  0.25152069  0.49881108
   0.74585089  0.24913504  0.49998778
   0.74697409  0.74806349  0.50239468
   0.24655975  0.75233066  0.50244727
   0.49541376  0.50083717  0.99894368
   0.99705471  0.50194042  0.99969257
   0.49772397  0.99941822  0.99894043
   0.99672186  0.99831634  0.99969839
   0.46109080  0.00680635  0.17833978
   0.53253809  0.97595503  0.82810545
   0.02518608  0.54128442  0.82952569
   0.95987432  0.49106457  0.17818856
   0.53231927  0.49346890  0.17831763
   0.46284503  0.52489212  0.82766465
   0.24875720  0.79046936  0.67466476
   0.03376494  0.00917687  0.17820943
   0.24278253  0.28833647  0.32270378
   0.74753929  0.78427521  0.32192165
   0.74468922  0.70985457  0.67471451
   0.75074641  0.21190718  0.32242424
   0.72828495  0.27422563  0.67040423
   0.24596518  0.71591368  0.32206554
   0.96614054  0.95939727  0.82984022
   0.99573922  0.25005225  0.99563023
   0.49647733  0.25019705  0.48721148
   0.24740379  0.00559304  0.98350762
   0.24644383  0.50061477  0.01926889
   0.74704328  0.00027253  0.01906229
   0.74608380  0.49365233  0.98319981
   0.37038393  0.23681469  0.69546806
   0.99667808  0.75013331  0.01800899
   0.49688369  0.74987729  0.49441899
   0.49785122  0.25005488  0.99880957
   0.24678585  0.00201559  0.48188552
   0.24492942  0.50103182  0.51754468
   0.74876501  0.99801567  0.51679233
   0.74670585  0.49931584  0.48131947
   0.99746818  0.25017382  0.49728802
   0.99662159  0.74983679  0.49546787
   0.49680150  0.75013213  0.01306385
   0.05936111  0.24439408  0.72303626
Direct configuration=     3
   0.24656784  0.26920453  0.85966112
   0.00509742  0.49965853  0.36267978
   0.98443644  0.49625717  0.64310896
   0.50351565  0.49466863  0.64202190
   0.48700643  0.50073018  0.36230982
   0.98711740  0.00075167  0.36250313
   0.00093768 -0.00173030  0.64180580
   0.74607076  0.73846041  0.13872729
   0.50724443  0.99975643  0.36218991
   0.74697489  0.25765265  0.13768329
   0.75181539  0.23177486  0.85543667
   0.24712091  0.76181350  0.13872179
   0.24476940  0.75254902  0.85999654
   0.24619756  0.24249126  0.13741473
   0.49965060 -0.00173043  0.64093110
   0.74811415  0.74703751  0.86010978
   0.24902680  0.25228575  0.49668954
   0.74594517  0.24942664  0.50014678
   0.74679551  0.74761282  0.50227394
   0.24648988  0.75199287  0.50266285
   0.49557678  0.50112783  0.99895737
   0.99675414  0.50218926  0.99959252
   0.49768828  0.99914110  0.99899605
   0.99636295  0.99807138  0.99965065
   0.46083186  0.00718073  0.17848657
   0.53455682  0.97595738  0.82880287
   0.02419585  0.54218579  0.83020909
   0.95980638  0.49107321  0.17829807
   0.53223508  0.49323029  0.17840352
   0.46434205  0.52598590  0.82816468
   0.24840137  0.79039587  0.67469111
   0.03358260  0.00931864  0.17835629
   0.24295649  0.28815507  0.32282113
   0.74728409  0.78435992  0.32181429
   0.74492618  0.71086254  0.67477717
   0.75023112  0.21164434  0.32235596
   0.72925504  0.27574373  0.67181815
   0.24588660  0.71597267  0.32221134
   0.96328550  0.95931777  0.83052689
   0.99364980  0.24990527  0.99507761
   0.49647642  0.25009184  0.48673515
   0.24718312  0.00479643  0.98407304
   0.24634136  0.50104423  0.01982306
   0.74685099  0.00060685  0.01897428
   0.74600046  0.49296730  0.98296791
   0.37344043  0.24001504  0.69399814
   0.99650694  0.75018136  0.01782857
   0.49675115  0.74951062  0.49395089
   0.49985892  0.24992168  0.99805832
   0.24660829  0.00347809  0.48312704
   0.24495860  0.49949965  0.51813842
   0.74867845  0.99804884  0.51608318
   0.74654281  0.49920993  0.48097985
   0.99826936  0.24989310  0.49637537
   0.99646760  0.74947186  0.49461962
   0.49665887  0.75016867  0.01331680
   0.05611898  0.24656224  0.72308008
Direct configuration=     4
   0.24726578  0.27043456  0.85919421
   0.00489566  0.49976808  0.36269259
   0.98402267  0.49572762  0.64323045
   0.50431320  0.49363770  0.64224833
   0.48717388  0.50084956  0.36232678
   0.98691758  0.00083493  0.36239093
  -0.00091689 -0.00335053  0.64197714
   0.74598160  0.73842802  0.13861808
   0.50707966  0.99989859  0.36213104
   0.74670000  0.25776645  0.13748831
   0.75393180  0.23072615  0.85543941
   0.24692509  0.76183783  0.13884497
   0.24457776  0.75234047  0.85993743
   0.24615384  0.24223170  0.13769876
   0.50098384 -0.00305884  0.64138776
   0.74770055  0.74623847  0.86076203
   0.24926194  0.25249863  0.49499464
   0.74625748  0.24973752  0.50015954
   0.74661936  0.74705725  0.50181769
   0.24648802  0.75170108  0.50275416
   0.49598017  0.50116692  0.99901463
   0.99629873  0.50227487  0.99961686
   0.49790309  0.99912244  0.99903010
   0.99590128  0.99795793  0.99971649
   0.46050355  0.00768131  0.17857513
   0.53635217  0.97594396  0.82899559
   0.02346842  0.54340801  0.83082391
   0.95977486  0.49103144  0.17838585
   0.53213061  0.49296778  0.17847079
   0.46535722  0.52728468  0.82876844
   0.24795152  0.79054191  0.67472789
   0.03347644  0.00960766  0.17842680
   0.24314844  0.28788303  0.32271369
   0.74703722  0.78445916  0.32168016
   0.74531370  0.71275815  0.67458636
   0.74981737  0.21133470  0.32236896
   0.72989995  0.27705360  0.67230227
   0.24580346  0.71604566  0.32235737
   0.96083123  0.95940971  0.83072032
   0.99246873  0.24981549  0.99450340
   0.49698747  0.24982126  0.48605621
   0.24700739  0.00440898  0.98443227
   0.24628421  0.50102644  0.02021432
   0.74670315  0.00057099  0.01918032
   0.74597448  0.49262568  0.98292968
   0.37541056  0.24125382  0.69356823
   0.99635310  0.75026805  0.01781514
   0.49646401  0.74940909  0.49361598
   0.50113781  0.24984203  0.99734596
   0.24646806  0.00401109  0.48443367
   0.24493974  0.49892131  0.51864176
   0.74864580  0.99825219  0.51555339
   0.74649747  0.49879251  0.48071313
   0.99852868  0.24948059  0.49556053
   0.99655825  0.74934326  0.49395666
   0.49650231  0.75024236  0.01362728
   0.05420260  0.24662682  0.72369193
Direct configuration=     5
   0.24894563  0.27210732  0.85794627
   0.00449862  0.50023788  0.36247821
   0.98355717  0.49447240  0.64348036
   0.50585069  0.49275617  0.64235160
   0.48770297  0.50140764  0.36215898
   0.98663728  0.00085062  0.36249435
  -0.00298591 -0.00541001  0.64251597
   0.74579721  0.73838092  0.13882516
   0.50678897  0.99999117  0.36235453
   0.74609173  0.25786132  0.13731786
   0.75787766  0.22824337  0.85564346
   0.24658065  0.76176895  0.13898259
   0.24428389  0.75255820  0.86037625
   0.24614354  0.24181831  0.13750695
   0.50172065 -0.00427739  0.64216639
   0.74663120  0.74436992  0.86153757
   0.24955783  0.25257151  0.49192552
   0.74670440  0.24929327  0.49972653
   0.74648141  0.74709704  0.50075735
   0.24635455  0.75137912  0.50288284
   0.49584209  0.50079804  0.99935653
   0.99645890  0.50206423  1.00003977
   0.49778695  0.99951923  0.99894647
   0.99573685  0.99809345  0.99990567
   0.45969763  0.00891484  0.17854741
   0.53944852  0.97595558  0.82905593
   0.02246541  0.54573015  0.83140812
   0.95970510  0.49086971  0.17849158
   0.53194651  0.49240290  0.17852292
   0.46647551  0.53027026  0.82961359
   0.24690236  0.79103617  0.67514090
   0.03339148  0.01040802  0.17836315
   0.24351652  0.28718080  0.32248955
   0.74651389  0.78434968  0.32131144
   0.74643513  0.71738490  0.67393362
   0.74934184  0.21067263  0.32204380
   0.73079582  0.27994315  0.67182598
   0.24565058  0.71622334  0.32261195
   0.95627783  0.95964377  0.83098629
   0.99145657  0.24967257  0.99331505
   0.49744717  0.24938120  0.48456506
   0.24683705  0.00431626  0.98463165
   0.24625983  0.50043094  0.02077404
   0.74649256 -0.00022539  0.02026878
   0.74604892  0.49221756  0.98350443
   0.37743765  0.24154184  0.69415211
   0.99604299  0.75039199  0.01821256
   0.49621930  0.74929757  0.49306026
   0.50286170  0.24969999  0.99589624
   0.24629015  0.00393950  0.48713311
   0.24480648  0.49817654  0.51955281
   0.74851195  0.99834395  0.51467865
   0.74671483  0.49828147  0.48025926
   0.99882532  0.24887807  0.49421689
   0.99652538  0.74908253  0.49281348
   0.49620836  0.75044150  0.01444442
   0.05182079  0.24514343  0.72571350
Direct configuration=     6
   0.25099021  0.27300165  0.85795828
   0.00458984  0.50029358  0.36216015
   0.98375516  0.49272650  0.64361287
   0.50626669  0.49240675  0.64222239
   0.48798795  0.50176761  0.36170174
   0.98727470  0.00109644  0.36216398
  -0.00279987 -0.00657201  0.64316133
   0.74563493  0.73843443  0.13827155
   0.50588354  1.00003588  0.36187358
   0.74573473  0.25734108  0.13706685
   0.76056139  0.22578576  0.85525639
   0.24647175  0.76221613  0.13941653
   0.24379855  0.75295520  0.86085223
   0.24614664  0.24093770  0.13750745
   0.50064819 -0.00437545  0.64257073
   0.74578276  0.74254709  0.86190476
   0.24869754  0.25214984  0.48969836
   0.74659433  0.24999880  0.49845869
   0.74658237  0.74661676  0.49988437
   0.24618823  0.75006487  0.50306908
   0.49726835  0.50126125  0.99982576
   0.99541461  0.50226517  1.00053541
   0.49911435  0.99907715  0.99902912
   0.99470106  0.99746456  1.00048380
   0.45871754  0.01028678  0.17862757
   0.54140892  0.97602796  0.82911620
   0.02218539  0.54755616  0.83107587
   0.96004251  0.49053351  0.17848527
   0.53139684  0.49175062  0.17852594
   0.46643784  0.53345266  0.82913696
   0.24603220  0.79172594  0.67601947
   0.03369162  0.01133434  0.17834710
   0.24367094  0.28656688  0.32190554
   0.74601030  0.78388456  0.32162244
   0.74755871  0.72160151  0.67276185
   0.74942834  0.20973194  0.32174489
   0.73112466  0.28319726  0.67019290
   0.24564855  0.71656258  0.32273775
   0.95269376  0.95937782  0.83165512
   0.99216811  0.24963410  0.99237261
   0.49775770  0.24939107  0.48358513
   0.24681758  0.00506741  0.98392440
   0.24639676  0.49989553  0.02107753
   0.74642942 -0.00123918  0.02195511
   0.74615649  0.49187549  0.98498631
   0.37858383  0.24113543  0.69512593
   0.99664908  0.75026355  0.01901790
   0.49608640  0.74901971  0.49290479
   0.50365884  0.24974613  0.99458941
   0.24621876  0.00395166  0.48947851
   0.24486545  0.49796948  0.52043779
   0.74825737  0.99860457  0.51399200
   0.74694505  0.49848033  0.48006389
   0.99906670  0.24845709  0.49365954
   0.99657745  0.74886652  0.49207504
   0.49526263  0.75040039  0.01536184
   0.04918231  0.24334355  0.72796772
Direct configuration=     7
   0.25168386  0.27333295  0.85795888
   0.00442926  0.50049173  0.36205079
   0.98397538  0.49173246  0.64357157
   0.50596440  0.49261873  0.64178174
   0.48830785  0.50203286  0.36168705
   0.98720581  0.00082769  0.36256732
  -0.00232785 -0.00662768  0.64322247
   0.74574290  0.73797823  0.13882145
   0.50589767  0.99973490  0.36230547
   0.74582943  0.25726029  0.13697591
   0.76169646  0.22461565  0.85418699
   0.24646479  0.76200571  0.13942492
   0.24353693  0.75300809  0.86122072
   0.24611271  0.24118809  0.13709600
   0.49983338 -0.00399849  0.64220286
   0.74544379  0.74166389  0.86084642
   0.24924183  0.25254186  0.48918852
   0.74689343  0.24955309  0.49757154
   0.74658375  0.74761062  0.49960625
   0.24618791  0.75019691  0.50319969
   0.49648341  0.50081616  1.00018918
   0.99639002  0.50180617  1.00087009
   0.49862063  0.99941024  0.99879993
   0.99528805  0.99776576  1.00068635
   0.45819714  0.01092313  0.17843564
   0.54239558  0.97597279  0.82941834
   0.02182084  0.54857788  0.83093584
   0.96032071  0.49017404  0.17844252
   0.53105584  0.49130734  0.17837023
   0.46635720  0.53528721  0.82888881
   0.24567007  0.79237008  0.67646071
   0.03407107  0.01175463  0.17818294
   0.24352817  0.28614356  0.32155342
   0.74570964  0.78340442  0.32133314
   0.74822623  0.72344638  0.67239845
   0.74975452  0.20924368  0.32140853
   0.73100258  0.28512850  0.66918638
   0.24578889  0.71693591  0.32282039
   0.95096190  0.95874773  0.83236890
   0.99278726  0.24952094  0.99203248
   0.49709756  0.24961016  0.48303275
   0.24704749  0.00573568  0.98333151
   0.24666981  0.49974786  0.02092545
   0.74660085 -0.00198297  0.02335266
   0.74636394  0.49198982  0.98600305
   0.37819785  0.24062609  0.69619263
   0.99717940  0.74997546  0.01971970
   0.49580788  0.74878562  0.49288919
   0.50403306  0.24987967  0.99400851
   0.24623486  0.00292882  0.49046146
   0.24479007  0.49735193  0.52065138
   0.74816838  0.99908981  0.51362850
   0.74714431  0.49852837  0.47963842
   0.99817578  0.24835854  0.49362571
   0.99691671  0.74876181  0.49173785
   0.49480386  0.75038508  0.01596586
   0.04805082  0.24167427  0.72978230
Direct configuration=     8
   0.25119405  0.27296962  0.85858074
   0.00448644  0.50044369  0.36194192
   0.98395622  0.49209390  0.64352341
   0.50560856  0.49315466  0.64174371
   0.48821891  0.50197064  0.36152244
   0.98718967  0.00070082  0.36247079
  -0.00186083 -0.00625430  0.64306257
   0.74582849  0.73779340  0.13871840
   0.50609749  0.99961466  0.36213734
   0.74602360  0.25719231  0.13682876
   0.76085134  0.22512134  0.85421821
   0.24663672  0.76198699  0.13928625
   0.24369071  0.75303101  0.86135936
   0.24617608  0.24144841  0.13699443
   0.49966649 -0.00373570  0.64206586
   0.74554773  0.74183911  0.86065412
   0.24876530  0.25210454  0.48994374
   0.74636127  0.24946486  0.49752541
   0.74672468  0.74787153  0.49991123
   0.24615724  0.75034682  0.50317319
   0.49633022  0.50080963  1.00013772
   0.99668296  0.50173852  1.00080876
   0.49852273  0.99950461  0.99879911
   0.99559715  0.99775055  1.00065535
   0.45832904  0.01062976  0.17852801
   0.54185070  0.97601453  0.82921553
   0.02181551  0.54797205  0.83070323
   0.96055016  0.49008074  0.17854495
   0.53093602  0.49132246  0.17845751
   0.46619880  0.53468263  0.82867761
   0.24594226  0.79247469  0.67620816
   0.03422898  0.01154028  0.17828573
   0.24330735  0.28631116  0.32187434
   0.74578590  0.78334751  0.32145963
   0.74805282  0.72228438  0.67238111
   0.74992193  0.20935244  0.32154820
   0.73075099  0.28469178  0.66916443
   0.24591095  0.71693771  0.32293085
   0.95196604  0.95860050  0.83223577
   0.99292518  0.24961161  0.99223967
   0.49726005  0.24969045  0.48341800
   0.24709421  0.00587251  0.98313221
   0.24666189  0.49989472  0.02059603
   0.74659900 -0.00189272  0.02336872
   0.74636518  0.49228758  0.98587955
   0.37748977  0.24045730  0.69610074
   0.99740088  0.74995990  0.01973415
   0.49601027  0.74881108  0.49307834
   0.50370695  0.24990263  0.99427349
   0.24632073  0.00323588  0.48984524
   0.24466987  0.49766447  0.52039242
   0.74814563  0.99905054  0.51383968
   0.74711275  0.49879451  0.47955569
   0.99861256  0.24851157  0.49409039
   0.99676470  0.74880620  0.49203956
   0.49488099  0.75032725  0.01583028
   0.04839477  0.24176040  0.72952371
Direct configuration=     9
   0.25096782  0.27285059  0.85874971
   0.00455353  0.50037799  0.36200624
   0.98385429  0.49206242  0.64346008
   0.50539894  0.49333827  0.64168078
   0.48812137  0.50192097  0.36154676
   0.98724631  0.00066064  0.36241615
  -0.00166547 -0.00622279  0.64301045
   0.74590971  0.73765086  0.13857712
   0.50612529  0.99954374  0.36205382
   0.74615003  0.25703679  0.13676549
   0.76067670  0.22513754  0.85401347
   0.24678180  0.76208528  0.13941507
   0.24368463  0.75303650  0.86128376
   0.24623491  0.24150388  0.13718934
   0.49954508 -0.00358960  0.64198222
   0.74558024  0.74175729  0.86049616
   0.24885442  0.25214574  0.49018527
   0.74644079  0.24966634  0.49738286
   0.74673707  0.74781808  0.50003980
   0.24614554  0.75040007  0.50316488
   0.49657075  0.50093383  1.00009382
   0.99650892  0.50186447  1.00075932
   0.49873479  0.99938968  0.99882333
   0.99547008  0.99762075  1.00066772
   0.45820773  0.01060337  0.17853280
   0.54187113  0.97600565  0.82915970
   0.02169935  0.54778941  0.83061643
   0.96087531  0.48989290  0.17851858
   0.53068658  0.49116505  0.17841577
   0.46621694  0.53469791  0.82859953
   0.24608200  0.79265496  0.67617463
   0.03451819  0.01149632  0.17830658
   0.24314142  0.28634414  0.32201385
   0.74578321  0.78324571  0.32148510
   0.74803946  0.72180855  0.67226760
   0.75003817  0.20931565  0.32153758
   0.73063428  0.28487993  0.66908982
   0.24602822  0.71704610  0.32296474
   0.95212833  0.95839172  0.83228116
   0.99290321  0.24962865  0.99228203
   0.49691700  0.24971922  0.48358458
   0.24716677  0.00606994  0.98292657
   0.24670393  0.49995882  0.02034197
   0.74663822 -0.00195137  0.02361467
   0.74640597  0.49247892  0.98597169
   0.37717760  0.24051916  0.69621851
   0.99772036  0.74989792  0.01983547
   0.49611601  0.74881914  0.49318835
   0.50366938  0.24996287  0.99431631
   0.24638048  0.00330527  0.48962364
   0.24455803  0.49769395  0.52027644
   0.74810737  0.99907399  0.51389494
   0.74710195  0.49896236  0.47935907
   0.99853875  0.24852095  0.49439386
   0.99669730  0.74885154  0.49215065
   0.49479875  0.75033766  0.01583868
   0.04823708  0.24177441  0.72967081
Direct configuration=    10
   0.25096782  0.27285059  0.85874971
   0.00455353  0.50037799  0.36200624
   0.98385429  0.49206242  0.64346008
   0.50539894  0.49333827  0.64168078
   0.48812137  0.50192097  0.36154676
   0.98724631  0.00066064  0.36241615
  -0.00166547 -0.00622279  0.64301045
   0.74590971  0.73765086  0.13857712
   0.50612529  0.99954374  0.36205382
   0.74615003  0.25703679  0.13676549
   0.76067670  0.22513754  0.85401347
   0.24678180  0.76208528  0.13941507
   0.24368463  0.75303650  0.86128376
   0.24623491  0.24150388  0.13718934
   0.49954508 -0.00358960  0.64198222
   0.74558024  0.74175729  0.86049616
   0.24885442  0.25214574  0.49018527
   0.74644079  0.24966634  0.49738286
   0.74673707  0.74781808  0.50003980
   0.24614554  0.75040007  0.50316488
   0.49657075  0.50093383  1.00009382
   0.99650892  0.50186447  1.00075932
   0.49873479  0.99938968  0.99882333
   0.99547008  0.99762075  1.00066772
   0.45820773  0.01060337  0.17853280
   0.54187113  0.97600565  0.82915970
   0.02169935  0.54778941  0.83061643
   0.96087531  0.48989290  0.17851858
   0.53068658  0.49116505  0.17841577
   0.46621694  0.53469791  0.82859953
   0.24608200  0.79265496  0.67617463
   0.03451819  0.01149632  0.17830658
   0.24314142  0.28634414  0.32201385
   0.74578321  0.78324571  0.32148510
   0.74803946  0.72180855  0.67226760
   0.75003817  0.20931565  0.32153758
   0.73063428  0.28487993  0.66908982
   0.24602822  0.71704610  0.32296474
   0.95212833  0.95839172  0.83228116
   0.99290321  0.24962865  0.99228203
   0.49691700  0.24971922  0.48358458
   0.24716677  0.00606994  0.98292657
   0.24670393  0.49995882  0.02034197
   0.74663822 -0.00195137  0.02361467
   0.74640597  0.49247892  0.98597169
   0.37717760  0.24051916  0.69621851
   0.99772036  0.74989792  0.01983547
   0.49611601  0.74881914  0.49318835
   0.50366938  0.24996287  0.99431631
   0.24638048  0.00330527  0.48962364
   0.24455803  0.49769395  0.52027644
   0.74810737  0.99907399  0.51389494
   0.74710195  0.49896236  0.47935907
   0.99853875  0.24852095  0.49439386
   0.99669730  0.74885154  0.49215065
   0.49479875  0.75033766  0.01583868
   0.04823708  0.24177441  0.72967081
