   8   8   0   0
  0.1895488E+02  0.5332575E-09  0.5332575E-09  0.5332575E-09  0.5000000E-15
   1.0000000000000000E-004
  CAR 
 unknown system                          
     13.00176050     -7.94890324  301      6.51432950      1.00000000
     -7.949  0.0000E+00  0.0000E+00
     -7.879  0.0000E+00  0.0000E+00
     -7.809  0.0000E+00  0.0000E+00
     -7.739  0.0000E+00  0.0000E+00
     -7.670  0.0000E+00  0.0000E+00
     -7.600 -0.1376E-29 -0.9606E-31
     -7.530 -0.3703E-27 -0.2596E-28
     -7.460 -0.7817E-25 -0.5485E-26
     -7.390 -0.1290E-22 -0.9063E-24
     -7.320 -0.1663E-20 -0.1171E-21
     -7.251 -0.1676E-18 -0.1182E-19
     -7.181 -0.1318E-16 -0.9324E-18
     -7.111 -0.7839E-15 -0.5567E-16
     -7.041 -0.3747E-13 -0.2673E-14
     -6.971 -0.1392E-11 -0.9988E-13
     -6.901 -0.4022E-10 -0.2908E-11
     -6.832 -0.9024E-09 -0.6593E-10
     -6.762 -0.1569E-07 -0.1162E-08
     -6.692 -0.2110E-06 -0.1590E-07
     -6.622 -0.2186E-05 -0.1686E-06
     -6.552 -0.1737E-04 -0.1382E-05
     -6.482 -0.1053E-03 -0.8735E-05
     -6.413 -0.4829E-03 -0.4246E-04
     -6.343 -0.1657E-02 -0.1582E-03
     -6.273 -0.4183E-02 -0.4503E-03
     -6.203 -0.7503E-02 -0.9743E-03
     -6.133 -0.8394E-02 -0.1561E-02
     -6.063 -0.1900E-03 -0.1574E-02
     -5.994  0.2879E-01  0.4370E-03
     -5.924  0.9686E-01  0.7201E-02
     -5.854  0.2202E+00  0.2258E-01
     -5.784  0.3970E+00  0.5030E-01
     -5.714  0.6079E+00  0.9276E-01
     -5.644  0.8163E+00  0.1498E+00
     -5.574  0.9568E+00  0.2166E+00
     -5.505  0.9659E+00  0.2840E+00
     -5.435  0.8475E+00  0.3432E+00
     -5.365  0.6742E+00  0.3903E+00
     -5.295  0.5523E+00  0.4289E+00
     -5.225  0.6127E+00  0.4717E+00
     -5.155  0.9541E+00  0.5383E+00
     -5.086  0.1517E+01  0.6442E+00
     -5.016  0.2064E+01  0.7884E+00
     -4.946  0.2337E+01  0.9516E+00
     -4.876  0.2184E+01  0.1104E+01
     -4.806  0.1619E+01  0.1217E+01
     -4.736  0.8864E+00  0.1279E+01
     -4.667  0.4037E+00  0.1307E+01
     -4.597  0.4535E+00  0.1339E+01
     -4.527  0.9733E+00  0.1407E+01
     -4.457  0.1652E+01  0.1522E+01
     -4.387  0.2145E+01  0.1672E+01
     -4.317  0.2292E+01  0.1832E+01
     -4.248  0.2251E+01  0.1989E+01
     -4.178  0.2320E+01  0.2151E+01
     -4.108  0.2554E+01  0.2330E+01
     -4.038  0.2649E+01  0.2515E+01
     -3.968  0.2287E+01  0.2674E+01
     -3.898  0.1599E+01  0.2786E+01
     -3.829  0.1261E+01  0.2874E+01
     -3.759  0.1881E+01  0.3006E+01
     -3.689  0.3236E+01  0.3232E+01
     -3.619  0.4326E+01  0.3534E+01
     -3.549  0.4368E+01  0.3839E+01
     -3.479  0.3494E+01  0.4083E+01
     -3.410  0.2322E+01  0.4245E+01
     -3.340  0.1274E+01  0.4334E+01
     -3.270  0.6167E+00  0.4377E+01
     -3.200  0.7305E+00  0.4428E+01
     -3.130  0.1793E+01  0.4553E+01
     -3.060  0.3323E+01  0.4785E+01
     -2.991  0.4408E+01  0.5093E+01
     -2.921  0.4553E+01  0.5411E+01
     -2.851  0.4198E+01  0.5704E+01
     -2.781  0.4162E+01  0.5995E+01
     -2.711  0.4538E+01  0.6312E+01
     -2.641  0.4501E+01  0.6626E+01
     -2.572  0.3421E+01  0.6865E+01
     -2.502  0.1728E+01  0.6986E+01
     -2.432  0.4070E+00  0.7014E+01
     -2.362  0.2658E-01  0.7016E+01
     -2.292  0.4677E+00  0.7049E+01
     -2.222  0.1175E+01  0.7131E+01
     -2.153  0.1520E+01  0.7237E+01
     -2.083  0.1252E+01  0.7324E+01
     -2.013  0.6953E+00  0.7373E+01
     -1.943  0.3638E+00  0.7398E+01
     -1.873  0.4072E+00  0.7427E+01
     -1.803  0.5944E+00  0.7468E+01
     -1.734  0.7804E+00  0.7523E+01
     -1.664  0.1155E+01  0.7603E+01
     -1.594  0.1886E+01  0.7735E+01
     -1.524  0.2686E+01  0.7923E+01
     -1.454  0.2990E+01  0.8131E+01
     -1.384  0.2578E+01  0.8311E+01
     -1.315  0.1807E+01  0.8438E+01
     -1.245  0.1166E+01  0.8519E+01
     -1.175  0.7688E+00  0.8573E+01
     -1.105  0.4366E+00  0.8603E+01
     -1.035  0.9915E-01  0.8610E+01
     -0.965 -0.5148E-01  0.8607E+01
     -0.896  0.2516E+00  0.8624E+01
     -0.826  0.1086E+01  0.8700E+01
     -0.756  0.2240E+01  0.8856E+01
     -0.686  0.3433E+01  0.9096E+01
     -0.616  0.4534E+01  0.9413E+01
     -0.546  0.5303E+01  0.9783E+01
     -0.476  0.5226E+01  0.1015E+02
     -0.407  0.4181E+01  0.1044E+02
     -0.337  0.2934E+01  0.1064E+02
     -0.267  0.2371E+01  0.1081E+02
     -0.197  0.2648E+01  0.1100E+02
     -0.127  0.3474E+01  0.1124E+02
     -0.057  0.4634E+01  0.1156E+02
      0.012  0.5727E+01  0.1196E+02
      0.082  0.5913E+01  0.1237E+02
      0.152  0.4653E+01  0.1270E+02
      0.222  0.2522E+01  0.1288E+02
      0.292  0.7077E+00  0.1293E+02
      0.362 -0.1712E+00  0.1291E+02
      0.431 -0.3455E+00  0.1289E+02
      0.501 -0.2657E+00  0.1287E+02
      0.571 -0.8814E-01  0.1286E+02
      0.641  0.2935E+00  0.1288E+02
      0.711  0.9616E+00  0.1295E+02
      0.781  0.1836E+01  0.1308E+02
      0.850  0.2753E+01  0.1327E+02
      0.920  0.3447E+01  0.1351E+02
      0.990  0.3490E+01  0.1376E+02
      1.060  0.2655E+01  0.1394E+02
      1.130  0.1347E+01  0.1404E+02
      1.200  0.2802E+00  0.1406E+02
      1.269 -0.2079E+00  0.1404E+02
      1.339 -0.2226E+00  0.1403E+02
      1.409  0.8472E-01  0.1403E+02
      1.479  0.6334E+00  0.1408E+02
      1.549  0.1228E+01  0.1416E+02
      1.619  0.1642E+01  0.1428E+02
      1.688  0.1953E+01  0.1441E+02
      1.758  0.2414E+01  0.1458E+02
      1.828  0.2937E+01  0.1479E+02
      1.898  0.3174E+01  0.1501E+02
      1.968  0.3136E+01  0.1523E+02
      2.038  0.3178E+01  0.1545E+02
      2.107  0.3370E+01  0.1568E+02
      2.177  0.3544E+01  0.1593E+02
      2.247  0.3919E+01  0.1621E+02
      2.317  0.4909E+01  0.1655E+02
      2.387  0.6179E+01  0.1698E+02
      2.457  0.6620E+01  0.1744E+02
      2.526  0.5527E+01  0.1783E+02
      2.596  0.3426E+01  0.1807E+02
      2.666  0.1601E+01  0.1818E+02
      2.736  0.1018E+01  0.1825E+02
      2.806  0.1762E+01  0.1837E+02
      2.876  0.3240E+01  0.1860E+02
      2.945  0.4537E+01  0.1892E+02
      3.015  0.4829E+01  0.1925E+02
      3.085  0.4116E+01  0.1954E+02
      3.155  0.3524E+01  0.1979E+02
      3.225  0.4224E+01  0.2008E+02
      3.295  0.6096E+01  0.2051E+02
      3.364  0.7776E+01  0.2105E+02
      3.434  0.8025E+01  0.2161E+02
      3.504  0.6905E+01  0.2209E+02
      3.574  0.5596E+01  0.2248E+02
      3.644  0.5178E+01  0.2285E+02
      3.714  0.5685E+01  0.2324E+02
      3.783  0.6144E+01  0.2367E+02
      3.853  0.5503E+01  0.2406E+02
      3.923  0.3748E+01  0.2432E+02
      3.993  0.2059E+01  0.2446E+02
      4.063  0.1757E+01  0.2458E+02
      4.133  0.3179E+01  0.2481E+02
      4.202  0.5433E+01  0.2519E+02
      4.272  0.7056E+01  0.2568E+02
      4.342  0.7209E+01  0.2618E+02
      4.412  0.6446E+01  0.2663E+02
      4.482  0.6017E+01  0.2705E+02
      4.552  0.6254E+01  0.2749E+02
      4.621  0.6192E+01  0.2792E+02
      4.691  0.5070E+01  0.2828E+02
      4.761  0.3520E+01  0.2852E+02
      4.831  0.2713E+01  0.2871E+02
      4.901  0.2926E+01  0.2892E+02
      4.971  0.3535E+01  0.2916E+02
      5.041  0.3912E+01  0.2944E+02
      5.110  0.3829E+01  0.2970E+02
      5.180  0.3373E+01  0.2994E+02
      5.250  0.2916E+01  0.3014E+02
      5.320  0.2937E+01  0.3035E+02
      5.390  0.3469E+01  0.3059E+02
      5.460  0.3855E+01  0.3086E+02
      5.529  0.3424E+01  0.3110E+02
      5.599  0.2378E+01  0.3126E+02
      5.669  0.1590E+01  0.3138E+02
      5.739  0.1508E+01  0.3148E+02
      5.809  0.1672E+01  0.3160E+02
      5.879  0.1437E+01  0.3170E+02
      5.948  0.7958E+00  0.3175E+02
      6.018  0.2542E+00  0.3177E+02
      6.088  0.1699E+00  0.3178E+02
      6.158  0.4526E+00  0.3181E+02
      6.228  0.7539E+00  0.3187E+02
      6.298  0.8075E+00  0.3192E+02
      6.367  0.6145E+00  0.3197E+02
      6.437  0.3453E+00  0.3199E+02
      6.507  0.1325E+00  0.3200E+02
      6.577  0.6287E-02  0.3200E+02
      6.647 -0.3629E-01  0.3200E+02
      6.717  0.2152E-01  0.3200E+02
      6.786  0.1947E+00  0.3201E+02
      6.856  0.4358E+00  0.3204E+02
      6.926  0.6249E+00  0.3209E+02
      6.996  0.6665E+00  0.3213E+02
      7.066  0.5985E+00  0.3218E+02
      7.136  0.5619E+00  0.3221E+02
      7.205  0.6468E+00  0.3226E+02
      7.275  0.8111E+00  0.3232E+02
      7.345  0.9930E+00  0.3239E+02
      7.415  0.1241E+01  0.3247E+02
      7.485  0.1584E+01  0.3258E+02
      7.555  0.1823E+01  0.3271E+02
      7.624  0.1777E+01  0.3283E+02
      7.694  0.1731E+01  0.3296E+02
      7.764  0.2149E+01  0.3311E+02
      7.834  0.2866E+01  0.3331E+02
      7.904  0.3171E+01  0.3353E+02
      7.974  0.2902E+01  0.3373E+02
      8.043  0.2763E+01  0.3392E+02
      8.113  0.3213E+01  0.3415E+02
      8.183  0.3754E+01  0.3441E+02
      8.253  0.3811E+01  0.3467E+02
      8.323  0.3639E+01  0.3493E+02
      8.393  0.3770E+01  0.3519E+02
      8.462  0.4179E+01  0.3548E+02
      8.532  0.4671E+01  0.3581E+02
      8.602  0.5533E+01  0.3620E+02
      8.672  0.6925E+01  0.3668E+02
      8.742  0.7997E+01  0.3724E+02
      8.812  0.7601E+01  0.3777E+02
      8.881  0.5762E+01  0.3817E+02
      8.951  0.3659E+01  0.3843E+02
      9.021  0.2346E+01  0.3859E+02
      9.091  0.2114E+01  0.3874E+02
      9.161  0.2695E+01  0.3893E+02
      9.231  0.3515E+01  0.3917E+02
      9.300  0.4003E+01  0.3945E+02
      9.370  0.3986E+01  0.3973E+02
      9.440  0.3747E+01  0.3999E+02
      9.510  0.3846E+01  0.4026E+02
      9.580  0.4912E+01  0.4060E+02
      9.650  0.7117E+01  0.4110E+02
      9.719  0.9631E+01  0.4177E+02
      9.789  0.1094E+02  0.4254E+02
      9.859  0.1018E+02  0.4325E+02
      9.929  0.8160E+01  0.4382E+02
      9.999  0.6571E+01  0.4428E+02
     10.069  0.6088E+01  0.4470E+02
     10.139  0.5824E+01  0.4511E+02
     10.208  0.4882E+01  0.4545E+02
     10.278  0.3648E+01  0.4570E+02
     10.348  0.3014E+01  0.4592E+02
     10.418  0.3034E+01  0.4613E+02
     10.488  0.2979E+01  0.4634E+02
     10.558  0.2418E+01  0.4650E+02
     10.627  0.1822E+01  0.4663E+02
     10.697  0.2001E+01  0.4677E+02
     10.767  0.3017E+01  0.4698E+02
     10.837  0.3963E+01  0.4726E+02
     10.907  0.4006E+01  0.4754E+02
     10.977  0.3207E+01  0.4776E+02
     11.046  0.2121E+01  0.4791E+02
     11.116  0.1131E+01  0.4799E+02
     11.186  0.3994E+00  0.4802E+02
     11.256  0.9639E-03  0.4802E+02
     11.326 -0.1110E+00  0.4801E+02
     11.396 -0.8336E-01  0.4800E+02
     11.465 -0.3664E-01  0.4800E+02
     11.535 -0.1116E-01  0.4800E+02
     11.605 -0.2481E-02  0.4800E+02
     11.675 -0.4133E-03  0.4800E+02
     11.745 -0.5224E-04  0.4800E+02
     11.815 -0.5053E-05  0.4800E+02
     11.884 -0.3762E-06  0.4800E+02
     11.954 -0.2165E-07  0.4800E+02
     12.024 -0.9649E-09  0.4800E+02
     12.094 -0.3340E-10  0.4800E+02
     12.164 -0.8986E-12  0.4800E+02
     12.234 -0.1954E-13  0.4800E+02
     12.303  0.0000E+00  0.4800E+02
     12.373  0.0000E+00  0.4800E+02
     12.443  0.0000E+00  0.4800E+02
     12.513  0.0000E+00  0.4800E+02
     12.583  0.0000E+00  0.4800E+02
     12.653  0.0000E+00  0.4800E+02
     12.722  0.0000E+00  0.4800E+02
     12.792  0.0000E+00  0.4800E+02
     12.862  0.0000E+00  0.4800E+02
     12.932  0.0000E+00  0.4800E+02
     13.002  0.0000E+00  0.4800E+02
