    8    8    1    1
  0.1895488E+02  0.5332575E-09  0.5332575E-09  0.5332575E-09  0.5000000E-15
   1.0000000000000000E-004
  CAR 
 unknown system                          
     32     10     24

  0.1262379E-14  0.1262379E-14  0.1262379E-14  0.8000000E-02
    1       -5.948903   1.000000
    2       -1.601634   1.000000
    3       -1.601634   1.000000
    4       -1.601634   1.000000
    5       -1.601634   1.000000
    6       -1.601634   1.000000
    7       -1.601634   1.000000
    8        3.398468   1.000000
    9        3.398468   1.000000
   10        3.398468   1.000000
   11        3.398468   1.000000
   12        3.398468   1.000000
   13        3.398468   1.000000
   14        6.394268   0.920152
   15        6.394268   0.920152
   16        6.394268   0.920151
   17        6.989705  -0.001972
   18        6.989705  -0.001972
   19        6.989705  -0.001972
   20        6.989705  -0.001972
   21        6.989705  -0.001972
   22        6.989705  -0.001972
   23        8.979969  -0.000000
   24        8.979969  -0.000000

  0.2000000E+00  0.1262379E-14  0.1262379E-14  0.4800000E-01
    1       -5.765690   1.000000
    2       -3.104548   1.000000
    3       -1.540532   1.000000
    4       -1.540532   1.000000
    5       -1.540532   1.000000
    6       -1.540532   1.000000
    7        0.116950   1.000000
    8        2.949782   1.000000
    9        2.949782   1.000000
   10        2.949782   1.000000
   11        2.949782   1.000000
   12        3.562610   1.000000
   13        3.562610   1.000000
   14        5.500556   1.000000
   15        5.779875   1.000001
   16        5.779875   1.000001
   17        6.875030  -0.014297
   18        7.595360  -0.000000
   19        7.892816  -0.000000
   20        7.892816  -0.000000
   21        7.892816  -0.000000
   22        7.892816  -0.000000
   23        8.581854  -0.000000
   24        9.818139  -0.000000

  0.4000000E+00  0.1262379E-14  0.1262379E-14  0.4800000E-01
    1       -5.219995   1.000000
    2       -4.324715   1.000000
    3       -1.431540   1.000000
    4       -1.431540   1.000000
    5       -1.431540   1.000000
    6       -1.431540   1.000000
    7        1.956503   1.000000
    8        2.390696   1.000000
    9        2.390696   1.000000
   10        2.390696   1.000000
   11        2.390696   1.000000
   12        3.805671   1.000000
   13        4.047405   1.000000
   14        4.047405   1.000000
   15        4.822014   1.000000
   16        4.822014   1.000000
   17        7.184063  -0.000012
   18        7.820868  -0.000000
   19        8.737673  -0.000000
   20        9.835816  -0.000000
   21        9.835816  -0.000000
   22        9.835816  -0.000000
   23        9.835816  -0.000000
   24       10.345128  -0.000000

  0.2000000E+00  0.2000000E+00  0.1262379E-14  0.9600000E-01
    1       -5.584592   1.000000
    2       -2.977054   1.000000
    3       -2.977054   1.000000
    4       -1.819035   1.000000
    5       -1.210679   1.000000
    6        0.030985   1.000000
    7        0.030985   1.000000
    8        2.085378   1.000000
    9        2.998008   1.000000
   10        2.998008   1.000000
   11        3.337112   1.000000
   12        3.337112   1.000000
   13        3.688809   1.000000
   14        4.354681   1.000000
   15        5.159888   1.000000
   16        6.216347   1.028099
   17        7.328038  -0.000000
   18        7.829720  -0.000000
   19        7.829720  -0.000000
   20        8.405192  -0.000000
   21        8.405192  -0.000000
   22        9.353259  -0.000000
   23        9.561367  -0.000000
   24        9.571634  -0.000000

  0.4000000E+00  0.2000000E+00  0.1262379E-14  0.1920000E+00
    1       -5.046088   1.000000
    2       -4.166079   1.000000
    3       -2.630654   1.000000
    4       -2.187476   1.000000
    5       -0.762299   1.000000
    6       -0.282487   1.000000
    7        1.572638   1.000000
    8        1.795955   1.000000
    9        2.183477   1.000000
   10        2.991953   1.000000
   11        3.222235   1.000000
   12        3.430466   1.000000
   13        3.528703   1.000000
   14        4.192399   1.000000
   15        4.198307   1.000000
   16        5.387402   1.000000
   17        8.148999  -0.000000
   18        8.527662  -0.000000
   19        8.754524  -0.000000
   20        9.422488  -0.000000
   21        9.821988  -0.000000
   22       10.130752  -0.000000
   23       10.345418  -0.000000
   24       11.001761  -0.000000

  0.4000000E+00  0.4000000E+00  0.1262379E-14  0.9600000E-01
    1       -4.532237   1.000000
    2       -3.706197   1.000000
    3       -3.706197   1.000000
    4       -3.003592   1.000000
    5       -0.048213   1.000000
    6        0.771096   1.000000
    7        0.771096   1.000000
    8        1.847648   1.000000
    9        1.881650   1.000000
   10        2.500779   1.000000
   11        2.500779   1.000000
   12        3.223353   1.000000
   13        4.489931   1.000000
   14        4.510949   1.000000
   15        4.510949   1.000000
   16        5.516140   1.000000
   17        8.270294  -0.000000
   18        9.393194  -0.000000
   19        9.623067  -0.000000
   20        9.623067  -0.000000
   21       10.113520  -0.000000
   22       10.113520  -0.000000
   23       10.466983  -0.000000
   24       10.813921  -0.000000

  0.2000000E+00  0.2000000E+00  0.2000000E+00  0.6400000E-01
    1       -5.406171   1.000000
    2       -2.885648   1.000000
    3       -2.885648   1.000000
    4       -2.885648   1.000000
    5       -0.156255   1.000000
    6       -0.156255   1.000000
    7       -0.156255   1.000000
    8        2.500585   1.000000
    9        2.500585   1.000000
   10        2.500585   1.000000
   11        3.316803   1.000000
   12        3.843544   1.000000
   13        3.843544   1.000000
   14        3.843544   1.000000
   15        5.786842   1.000002
   16        5.786842   1.000002
   17        7.541241  -0.000000
   18        7.541241  -0.000000
   19        7.541241  -0.000000
   20        8.793713  -0.000000
   21        9.781216  -0.000000
   22        9.781216  -0.000000
   23        9.790815  -0.000000
   24        9.811027  -0.000000

  0.4000000E+00  0.2000000E+00  0.2000000E+00  0.1920000E+00
    1       -4.877134   1.000000
    2       -4.019219   1.000000
    3       -2.707688   1.000000
    4       -2.707688   1.000000
    5       -0.513369   1.000000
    6       -0.513369   1.000000
    7        0.971758   1.000000
    8        2.078877   1.000000
    9        2.363702   1.000000
   10        2.363702   1.000000
   11        3.656029   1.000000
   12        3.784188   1.000000
   13        3.784188   1.000000
   14        4.295122   1.000000
   15        4.993359   1.000000
   16        5.085535   1.000000
   17        8.131944  -0.000000
   18        8.716741  -0.000000
   19        8.716741  -0.000000
   20        8.841397  -0.000000
   21        9.924567  -0.000000
   22       10.503743  -0.000000
   23       10.781203  -0.000000
   24       10.833854  -0.000000

  0.4000000E+00  0.4000000E+00  0.2000000E+00  0.1920000E+00
    1       -4.382374   1.000000
    2       -3.609821   1.000000
    3       -3.609821   1.000000
    4       -3.071568   1.000000
    5       -0.515261   1.000000
    6        0.068762   1.000000
    7        0.068762   1.000000
    8        0.947866   1.000000
    9        2.804968   1.000000
   10        3.371318   1.000000
   11        3.371318   1.000000
   12        4.262519   1.000000
   13        4.598169   1.000000
   14        4.611326   1.000000
   15        4.611326   1.000000
   16        5.449671   1.000000
   17        8.441495  -0.000000
   18        8.991995  -0.000000
   19        9.214084  -0.000000
   20        9.214084  -0.000000
   21        9.709665  -0.000000
   22        9.709665  -0.000000
   23       10.026473  -0.000000
   24       10.112757  -0.000000

  0.4000000E+00  0.4000000E+00  0.4000000E+00  0.6400000E-01
    1       -3.964895   1.000000
    2       -3.421807   1.000000
    3       -3.421807   1.000000
    4       -3.421807   1.000000
    5       -0.674332   1.000000
    6       -0.674332   1.000000
    7       -0.674332   1.000000
    8       -0.093158   1.000000
    9        4.350560   1.000000
   10        4.350560   1.000000
   11        4.350560   1.000000
   12        4.883986   1.000000
   13        4.883986   1.000000
   14        4.883986   1.000000
   15        5.222630   1.000000
   16        5.222630   1.000000
   17        8.209544  -0.000000
   18        8.675997  -0.000000
   19        8.675997  -0.000000
   20        8.675997  -0.000000
   21        9.730607  -0.000000
   22        9.730608  -0.000000
   23        9.731672  -0.000000
   24        9.792972  -0.000000
