 vasp.6.2.1 16May21 (build Aug 15 2022 14:47:30) complex                         
 executed on             LinuxGNU date 2025.12.30  16:12:29
 running on    4 total cores
 distrk:  each k-point on    4 cores,    1 groups
 distr:  one band on NCORE=   1 cores,    4 groups


--------------------------------------------------------------------------------------------------------


 INCAR:
   ALGO = Fast
   EDIFF = 1e-6
   ENCUT = 520.0
   ISMEAR = 1
   LASPH = True
   LCHARG = False
   LREAL = False
   LWAVE = False
   NELM = 100
   NSW = 0
   PREC = Accurate

 POTCAR:   PAW_PBE Si 05Jan2001                   
 POTCAR:   PAW_PBE Si 05Jan2001                   
   VRHFIN =Si: s2p2                                                                                 
   LEXCH  = PE                                                                                      
   EATOM  =   103.0669 eV,    7.5752 Ry                                                             
                                                                                                    
   TITEL  = PAW_PBE Si 05Jan2001                                                                    
   LULTRA =        F    use ultrasoft PP ?                                                          
   IUNSCR =        1    unscreen: 0-lin 1-nonlin 2-no                                               
   RPACOR =    1.500    partial core radius                                                         
   POMASS =   28.085; ZVAL   =    4.000    mass and valenz                                          
   RCORE  =    1.900    outmost cutoff radius                                                       
   RWIGS  =    2.480; RWIGS  =    1.312    wigner-seitz radius (au A)                               
   ENMAX  =  245.345; ENMIN  =  184.009 eV                                                          
   ICORE  =        2    local potential                                                             
   LCOR   =        T    correct aug charges                                                         
   LPAW   =        T    paw PP                                                                      
   EAUG   =  322.069                                                                                
   DEXC   =    -.007                                                                                
   RMAX   =    2.944    core radius for proj-oper                                                   
   RAUG   =    1.300    factor for augmentation sphere                                              
   RDEP   =    1.993    radius for radial grids                                                     
   QCUT   =   -4.246; QGAM   =    8.493    optimization parameters                                  
                                                                                                    
   Description                                                                                      
     l     E      TYP  RCUT    TYP  RCUT                                                            
     0   .000     23  1.900                                                                         
     0   .000     23  1.900                                                                         
     1   .000     23  1.900                                                                         
     1   .000     23  1.900                                                                         
     2   .000      7  1.900                                                                         
  local pseudopotential read in
  partial core-charges read in
  atomic valenz-charges read in
  non local Contribution for L=           0  read in
    real space projection operators read in
  non local Contribution for L=           0  read in
    real space projection operators read in
  non local Contribution for L=           1  read in
    real space projection operators read in
  non local Contribution for L=           1  read in
    real space projection operators read in
    PAW grid and wavefunctions read in

   number of l-projection  operators is LMAX  =           4
   number of lm-projection operators is LMMAX =           8

 PAW_PBE Si 05Jan2001                   :
 energy of atom  1       EATOM= -103.0669
 kinetic energy error for atom=    0.0005 (will be added to EATOM!!)


 POSCAR: # Generated by Masgent for EOS calculati
  positions in direct lattice
  No initial velocities read in
 exchange correlation table for  LEXCH =        8
   RHO(1)=    0.500       N(1)  =     2000
   RHO(2)=  100.500       N(2)  =     4000

 VTST: version 4.2, (08/11/21)

 CHAIN: initializing optimizer
 
 OPT: Using VASP Dynamics algorithm
 CHAIN: Read ICHAIN            0

 POSCAR: # Generated by Masgent for EOS calculati
  positions in direct lattice
  No initial velocities read in



--------------------------------------------------------------------------------------------------------


 ion  position               nearest neighbor table
   1  0.750  0.750  0.250-   2 2.31   4 2.31   6 2.31   8 2.31
   2  0.000  0.500  0.500-   1 2.31   3 2.31   5 2.31   7 2.31
   3  0.750  0.250  0.750-   2 2.31   4 2.31   6 2.31   8 2.31
   4  0.000  0.000  0.000-   1 2.31   3 2.31   5 2.31   7 2.31
   5  0.250  0.750  0.750-   2 2.31   4 2.31   6 2.31   8 2.31
   6  0.500  0.500  0.000-   1 2.31   3 2.31   5 2.31   7 2.31
   7  0.250  0.250  0.250-   2 2.31   4 2.31   6 2.31   8 2.31
   8  0.500  0.000  0.500-   1 2.31   3 2.31   5 2.31   7 2.31

  LATTYP: Found a simple cubic cell.
 ALAT       =     5.3325752245
  
  Lattice vectors:
  
 A1 = (   5.3325752245,   0.0000000000,   0.0000000000)
 A2 = (   0.0000000000,   5.3325752245,   0.0000000000)
 A3 = (   0.0000000000,   0.0000000000,   5.3325752245)


Analysis of symmetry for initial positions (statically):
=====================================================================
 Subroutine PRICEL returns following result:
 
  LATTYP: Found a face centered cubic cell.
 ALAT       =     5.3325752245
  
  Lattice vectors:
  
 A1 = (   2.6662876123,  -2.6662876123,   0.0000000000)
 A2 = (   2.6662876123,   0.0000000000,   2.6662876123)
 A3 = (   0.0000000000,  -2.6662876123,   2.6662876123)
 
   4 primitive cells build up your supercell.
 

 Routine SETGRP: Setting up the symmetry group for a 
 simple cubic supercell.


 Subroutine GETGRP returns: Found 48 space group operations
 (whereof 24 operations were pure point group operations)
 out of a pool of 48 trial point group operations.


The static configuration has the point symmetry T_d .
 The point group associated with its full space group is O_h .


Analysis of symmetry for dynamics (positions and initial velocities):
=====================================================================
 Subroutine PRICEL returns following result:
 
  LATTYP: Found a face centered cubic cell.
 ALAT       =     5.3325752245
  
  Lattice vectors:
  
 A1 = (   2.6662876123,  -2.6662876123,   0.0000000000)
 A2 = (   2.6662876123,   0.0000000000,   2.6662876123)
 A3 = (   0.0000000000,  -2.6662876123,   2.6662876123)
 
   4 primitive cells build up your supercell.
 

 Routine SETGRP: Setting up the symmetry group for a 
 simple cubic supercell.


 Subroutine GETGRP returns: Found 48 space group operations
 (whereof 24 operations were pure point group operations)
 out of a pool of 48 trial point group operations.


The dynamic configuration has the point symmetry T_d .
 The point group associated with its full space group is O_h .


 Subroutine INISYM returns: Found 48 space group operations
 (whereof 24 operations are pure point group operations),
 and found     4 'primitive' translations


----------------------------------------------------------------------------------------

                                     Primitive cell                                     

  volume of cell :      37.9098

  direct lattice vectors                    reciprocal lattice vectors
     2.666287612 -2.666287612  0.000000000     0.187526656 -0.187526656 -0.187526656
     2.666287612  0.000000000  2.666287612     0.187526656  0.187526656  0.187526656
     0.000000000 -2.666287612  2.666287612    -0.187526656 -0.187526656  0.187526656

  length of vectors
     3.770700102  3.770700102  3.770700102     0.324805696  0.324805696  0.324805696

  position of ions in fractional coordinates (direct lattice)
     0.750000000  0.750000000  0.750000000
     0.000000000  0.000000000  0.000000000

  ion indices of the primitive-cell ions
   primitive index   ion index
                 1           1
                 2           2

----------------------------------------------------------------------------------------



 KPOINTS: # Generated by Masgent for EOS calculati

Automatic generation of k-mesh.
 Grid dimensions read from file:
 generate k-points for:    5    5    5

 Generating k-lattice:

  Cartesian coordinates                     Fractional coordinates (reciprocal lattice)
     0.037505331 -0.000000000  0.000000000     0.200000000  0.000000000  0.000000000
     0.000000000  0.037505331  0.000000000     0.000000000  0.200000000  0.000000000
    -0.000000000 -0.000000000  0.037505331     0.000000000  0.000000000  0.200000000

  Length of vectors
     0.037505331  0.037505331  0.037505331

  Shift w.r.t. Gamma in fractional coordinates (k-lattice)
     0.000000000  0.000000000  0.000000000

 
 Subroutine IBZKPT returns following result:
 ===========================================
 
 Found     10 irreducible k-points:
 
 Following reciprocal coordinates:
            Coordinates               Weight
  0.000000  0.000000  0.000000      1.000000
  0.200000  0.000000  0.000000      6.000000
  0.400000  0.000000  0.000000      6.000000
  0.200000  0.200000  0.000000     12.000000
  0.400000  0.200000  0.000000     24.000000
  0.400000  0.400000  0.000000     12.000000
  0.200000  0.200000  0.200000      8.000000
  0.400000  0.200000  0.200000     24.000000
  0.400000  0.400000  0.200000     24.000000
  0.400000  0.400000  0.400000      8.000000
 
 Following cartesian coordinates:
            Coordinates               Weight
  0.000000  0.000000  0.000000      1.000000
  0.037505  0.000000  0.000000      6.000000
  0.075011  0.000000  0.000000      6.000000
  0.037505  0.037505  0.000000     12.000000
  0.075011  0.037505  0.000000     24.000000
  0.075011  0.075011  0.000000     12.000000
  0.037505  0.037505  0.037505      8.000000
  0.075011  0.037505  0.037505     24.000000
  0.075011  0.075011  0.037505     24.000000
  0.075011  0.075011  0.075011      8.000000
 


--------------------------------------------------------------------------------------------------------




 Dimension of arrays:
   k-points           NKPTS =     10   k-points in BZ     NKDIM =     10   number of bands    NBANDS=     24
   number of dos      NEDOS =    301   number of ions     NIONS =      8
   non local maximal  LDIM  =      4   non local SUM 2l+1 LMDIM =      8
   total plane-waves  NPLWV =  64000
   max r-space proj   IRMAX =      1   max aug-charges    IRDMAX=  14309
   dimension x,y,z NGX =    40 NGY =   40 NGZ =   40
   dimension x,y,z NGXF=    80 NGYF=   80 NGZF=   80
   support grid    NGXF=    80 NGYF=   80 NGZF=   80
   ions per type =               8
   NGX,Y,Z   is equivalent  to a cutoff of  12.47, 12.47, 12.47 a.u.
   NGXF,Y,Z  is equivalent  to a cutoff of  24.94, 24.94, 24.94 a.u.

 SYSTEM =  unknown system                          
 POSCAR =  # Generated by Masgent for EOS calculati

 Startparameter for this run:
   NWRITE =      2    write-flag & timer
   PREC   = accura    normal or accurate (medium, high low for compatibility)
   ISTART =      0    job   : 0-new  1-cont  2-samecut
   ICHARG =      2    charge: 1-file 2-atom 10-const
   ISPIN  =      1    spin polarized calculation?
   LNONCOLLINEAR =      F non collinear calculations
   LSORBIT =      F    spin-orbit coupling
   INIWAV =      1    electr: 0-lowe 1-rand  2-diag
   LASPH  =      T    aspherical Exc in radial PAW
 Electronic Relaxation 1
   ENCUT  =  520.0 eV  38.22 Ry    6.18 a.u.   9.92  9.92  9.92*2*pi/ulx,y,z
   ENINI  =  520.0     initial cutoff
   ENAUG  =  322.1 eV  augmentation charge cutoff
   NELM   =    100;   NELMIN=  2; NELMDL=  0     # of ELM steps 
   EDIFF  = 0.1E-05   stopping-criterion for ELM
   LREAL  =      F    real-space projection
   NLSPLINE    = F    spline interpolate recip. space projectors
   LCOMPAT=      F    compatible to vasp.4.4
   GGA_COMPAT  = T    GGA compatible to vasp.4.4-vasp.4.6
   LMAXPAW     = -100 max onsite density
   LMAXMIX     =    2 max onsite mixed and CHGCAR
   VOSKOWN=      0    Vosko Wilk Nusair interpolation
   ROPT   =    0.00000
 Ionic relaxation
   EDIFFG = 0.1E-04   stopping-criterion for IOM
   NSW    =      0    number of steps for IOM
   NBLOCK =      1;   KBLOCK =      1    inner block; outer block 
   IBRION =     -1    ionic relax: 0-MD 1-quasi-New 2-CG
   NFREE  =      0    steps in history (QN), initial steepest desc. (CG)
   ISIF   =      2    stress and relaxation
   IWAVPR =     10    prediction:  0-non 1-charg 2-wave 3-comb
   ISYM   =      2    0-nonsym 1-usesym 2-fastsym
   LCORR  =      T    Harris-Foulkes like correction to forces

   POTIM  = 0.5000    time-step for ionic-motion
   TEIN   =    0.0    initial temperature
   TEBEG  =    0.0;   TEEND  =   0.0 temperature during run
   SMASS  =  -3.00    Nose mass-parameter (am)
   estimated Nose-frequenzy (Omega)   =  0.10E-29 period in steps = 0.13E+47 mass=  -0.650E-27a.u.
   SCALEE = 1.0000    scale energy and forces
   NPACO  =    256;   APACO  = 16.0  distance and # of slots for P.C.
   PSTRESS=    0.0 pullay stress

  Mass of Ions in am
   POMASS =  28.09
  Ionic Valenz
   ZVAL   =   4.00
  Atomic Wigner-Seitz radii
   RWIGS  =  -1.00
  virtual crystal weights 
   VCA    =   1.00
   NELECT =      32.0000    total number of electrons
   NUPDOWN=      -1.0000    fix difference up-down

 DOS related values:
   EMIN   =  10.00;   EMAX   =-10.00  energy-range for DOS
   EFERMI =   0.00
   ISMEAR =     1;   SIGMA  =   0.20  broadening in eV -4-tet -1-fermi 0-gaus

 Electronic relaxation 2 (details)
   IALGO  =     68    algorithm
   LDIAG  =      T    sub-space diagonalisation (order eigenvalues)
   LSUBROT=      F    optimize rotation matrix (better conditioning)
   TURBO    =      0    0=normal 1=particle mesh
   IRESTART =      0    0=no restart 2=restart with 2 vectors
   NREBOOT  =      0    no. of reboots
   NMIN     =      0    reboot dimension
   EREF     =   0.00    reference energy to select bands
   IMIX   =      4    mixing-type and parameters
     AMIX     =   0.40;   BMIX     =  1.00
     AMIX_MAG =   1.60;   BMIX_MAG =  1.00
     AMIN     =   0.10
     WC   =   100.;   INIMIX=   1;  MIXPRE=   1;  MAXMIX= -45

 Intra band minimization:
   WEIMIN = 0.0000     energy-eigenvalue tresh-hold
   EBREAK =  0.10E-07  absolut break condition
   DEPER  =   0.30     relativ break condition  

   TIME   =   0.40     timestep for ELM

  volume/ion in A,a.u.               =      18.95       127.91
  Fermi-wavevector in a.u.,A,eV,Ry     =   0.974663  1.841846 12.925100  0.949968
  Thomas-Fermi vector in A             =   2.105141

 Write flags
   LWAVE        =      F    write WAVECAR
   LDOWNSAMPLE  =      F    k-point downsampling of WAVECAR
   LCHARG       =      F    write CHGCAR
   LVTOT        =      F    write LOCPOT, total local potential
   LVHAR        =      F    write LOCPOT, Hartree potential only
   LELF         =      F    write electronic localiz. function (ELF)
   LORBIT       =      0    0 simple, 1 ext, 2 COOP (PROOUT), +10 PAW based schemes


 Dipole corrections
   LMONO  =      F    monopole corrections only (constant potential shift)
   LDIPOL =      F    correct potential (dipole corrections)
   IDIPOL =      0    1-x, 2-y, 3-z, 4-all directions 
   EPSILON=  1.0000000 bulk dielectric constant

 Exchange correlation treatment:
   GGA     =    --    GGA type
   LEXCH   =     8    internal setting for exchange type
   VOSKOWN=      0    Vosko Wilk Nusair interpolation
   LHFCALC =     F    Hartree Fock is set to
   LHFONE  =     F    Hartree Fock one center treatment
   AEXX    =    0.0000 exact exchange contribution

 Linear response parameters
   LEPSILON=     F    determine dielectric tensor
   LRPA    =     F    only Hartree local field effects (RPA)
   LNABLA  =     F    use nabla operator in PAW spheres
   LVEL    =     F    velocity operator in full k-point grid
   LINTERFAST=   F  fast interpolation
   KINTER  =     0    interpolate to denser k-point grid
   CSHIFT  =0.1000    complex shift for real part using Kramers Kronig
   OMEGAMAX=  -1.0    maximum frequency
   DEG_THRESHOLD= 0.2000000E-02 threshold for treating states as degnerate
   RTIME   =   -0.100 relaxation time in fs
  (WPLASMAI=    0.000 imaginary part of plasma frequency in eV, 0.658/RTIME)
   DFIELD  = 0.0000000 0.0000000 0.0000000 field for delta impulse in time

 Orbital magnetization related:
   ORBITALMAG=     F  switch on orbital magnetization
   LCHIMAG   =     F  perturbation theory with respect to B field
   DQ        =  0.001000  dq finite difference perturbation B field
   LLRAUG    =     F  two centre corrections for induced B field



--------------------------------------------------------------------------------------------------------


 Static calculation
 charge density and potential will be updated during run
 non-spin polarized calculation
 RMM-DIIS sequential band-by-band and
  variant of blocked Davidson during initial phase
 perform sub-space diagonalisation
    before iterative eigenvector-optimisation
 modified Broyden-mixing scheme, WC =      100.0
 initial mixing is a Kerker type mixing with AMIX =  0.4000 and BMIX =      1.0000
 Hartree-type preconditioning will be used
 using additional bands            8
 reciprocal scheme for non local part
 use partial core corrections
 calculate Harris-corrections to forces   (improved forces if not selfconsistent)
 use gradient corrections 
 use of overlap-Matrix (Vanderbilt PP)
 Methfessel and Paxton  Order N= 1 SIGMA  =   0.20


--------------------------------------------------------------------------------------------------------


  energy-cutoff  :      520.00
  volume of cell :      151.64
      direct lattice vectors                 reciprocal lattice vectors
     5.332575225  0.000000000  0.000000000     0.187526656 -0.000000000  0.000000000
     0.000000000  5.332575225  0.000000000     0.000000000  0.187526656  0.000000000
     0.000000000  0.000000000  5.332575225    -0.000000000 -0.000000000  0.187526656

  length of vectors
     5.332575225  5.332575225  5.332575225     0.187526656  0.187526656  0.187526656



 k-points in units of 2pi/SCALE and weight: # Generated by Masgent for EOS calculati
   0.00000000  0.00000000  0.00000000       0.008
   0.03750533  0.00000000  0.00000000       0.048
   0.07501066  0.00000000  0.00000000       0.048
   0.03750533  0.03750533  0.00000000       0.096
   0.07501066  0.03750533  0.00000000       0.192
   0.07501066  0.07501066  0.00000000       0.096
   0.03750533  0.03750533  0.03750533       0.064
   0.07501066  0.03750533  0.03750533       0.192
   0.07501066  0.07501066  0.03750533       0.192
   0.07501066  0.07501066  0.07501066       0.064

 k-points in reciprocal lattice and weights: # Generated by Masgent for EOS calculati
   0.00000000  0.00000000  0.00000000       0.008
   0.20000000  0.00000000  0.00000000       0.048
   0.40000000  0.00000000  0.00000000       0.048
   0.20000000  0.20000000  0.00000000       0.096
   0.40000000  0.20000000  0.00000000       0.192
   0.40000000  0.40000000  0.00000000       0.096
   0.20000000  0.20000000  0.20000000       0.064
   0.40000000  0.20000000  0.20000000       0.192
   0.40000000  0.40000000  0.20000000       0.192
   0.40000000  0.40000000  0.40000000       0.064

 position of ions in fractional coordinates (direct lattice) 
   0.75000000  0.75000000  0.25000000
   0.00000000  0.50000000  0.50000000
   0.75000000  0.25000000  0.75000000
   0.00000000  0.00000000  0.00000000
   0.25000000  0.75000000  0.75000000
   0.50000000  0.50000000  0.00000000
   0.25000000  0.25000000  0.25000000
   0.50000000  0.00000000  0.50000000

 position of ions in cartesian coordinates  (Angst):
   3.99943142  3.99943142  1.33314381
   0.00000000  2.66628761  2.66628761
   3.99943142  1.33314381  3.99943142
   0.00000000  0.00000000  0.00000000
   1.33314381  3.99943142  3.99943142
   2.66628761  2.66628761  0.00000000
   1.33314381  1.33314381  1.33314381
   2.66628761  0.00000000  2.66628761



--------------------------------------------------------------------------------------------------------


 k-point   1 :   0.0000 0.0000 0.0000  plane waves:    4067
 k-point   2 :   0.2000 0.0000 0.0000  plane waves:    4064
 k-point   3 :   0.4000 0.0000 0.0000  plane waves:    4076
 k-point   4 :   0.2000 0.2000 0.0000  plane waves:    4074
 k-point   5 :   0.4000 0.2000 0.0000  plane waves:    4095
 k-point   6 :   0.4000 0.4000 0.0000  plane waves:    4088
 k-point   7 :   0.2000 0.2000 0.2000  plane waves:    4079
 k-point   8 :   0.4000 0.2000 0.2000  plane waves:    4090
 k-point   9 :   0.4000 0.4000 0.2000  plane waves:    4078
 k-point  10 :   0.4000 0.4000 0.4000  plane waves:    4086

 maximum and minimum number of plane-waves per node :      4095     4064

 maximum number of plane-waves:      4095
 maximum index in each direction: 
   IXMAX=    9   IYMAX=    9   IZMAX=    9
   IXMIN=  -10   IYMIN=  -10   IZMIN=  -10


 serial   3D FFT for wavefunctions
 parallel 3D FFT for charge:
    minimum data exchange during FFTs selected (reduces bandwidth)


 total amount of memory used by VASP MPI-rank0    50655. kBytes
=======================================================================

   base      :      30000. kBytes
   nonl-proj :       3145. kBytes
   fftplans  :       4661. kBytes
   grid      :       8832. kBytes
   one-center:         24. kBytes
   wavefun   :       3993. kBytes

     INWAV:  cpu time    0.0000: real time    0.0002
 Broyden mixing: mesh for mixing (old mesh)
   NGX = 19   NGY = 19   NGZ = 19
  (NGX  = 80   NGY  = 80   NGZ  = 80)
  gives a total of   6859 points

 initial charge density was supplied:
 charge density of overlapping atoms calculated
 number of electron      32.0000000 magnetization 
 keeping initial charge density in first step


--------------------------------------------------------------------------------------------------------


 Maximum index for augmentation-charges         3423 (set IRDMAX)


--------------------------------------------------------------------------------------------------------


 First call to EWALD:  gamma=   0.332
 Maximum number of real-space cells 3x 3x 3
 Maximum number of reciprocal cells 3x 3x 3

    FEWALD:  cpu time    0.0005: real time    0.0005


--------------------------------------- Iteration      1(   1)  ---------------------------------------


    POTLOK:  cpu time    0.0438: real time    0.0447
    SETDIJ:  cpu time    0.0529: real time    0.0529
     EDDAV:  cpu time    0.2870: real time    0.2871
       DOS:  cpu time    0.0002: real time    0.0002
    --------------------------------------------
      LOOP:  cpu time    0.3838: real time    0.3849

 eigenvalue-minimisations  :   480
 total energy-change (2. order) : 0.6789358E+02  (-0.1216370E+04)
 number of electron      32.0000000 magnetization 
 augmentation part       32.0000000 magnetization 

 Free energy of the ion-electron system (eV)
  ---------------------------------------------------
  alpha Z        PSCENC =        14.20766900
  Ewald energy   TEWEN  =      -930.95732000
  -Hartree energ DENC   =       -40.80489973
  -exchange      EXHF   =         0.00000000
  -V(xc)+E(xc)   XCENC  =       -73.53884906
  PAW double counting   =       263.82083246     -123.07410713
  entropy T*S    EENTRO =        -0.01978942
  eigenvalues    EBANDS =       133.72923371
  atomic energy  EATOM  =       824.53081094
  Solvation  Ediel_sol  =         0.00000000
  ---------------------------------------------------
  free energy    TOTEN  =        67.89358077 eV

  energy without entropy =       67.91337019  energy(sigma->0) =       67.90017724


--------------------------------------------------------------------------------------------------------




--------------------------------------- Iteration      1(   2)  ---------------------------------------


     EDDAV:  cpu time    0.3650: real time    0.3650
       DOS:  cpu time    0.0002: real time    0.0002
    --------------------------------------------
      LOOP:  cpu time    0.3652: real time    0.3653

 eigenvalue-minimisations  :   648
 total energy-change (2. order) :-0.1068106E+03  (-0.9903186E+02)
 number of electron      32.0000000 magnetization 
 augmentation part       32.0000000 magnetization 

 Free energy of the ion-electron system (eV)
  ---------------------------------------------------
  alpha Z        PSCENC =        14.20766900
  Ewald energy   TEWEN  =      -930.95732000
  -Hartree energ DENC   =       -40.80489973
  -exchange      EXHF   =         0.00000000
  -V(xc)+E(xc)   XCENC  =       -73.53884906
  PAW double counting   =       263.82083246     -123.07410713
  entropy T*S    EENTRO =         0.00050835
  eigenvalues    EBANDS =        26.89834145
  atomic energy  EATOM  =       824.53081094
  Solvation  Ediel_sol  =         0.00000000
  ---------------------------------------------------
  free energy    TOTEN  =       -38.91701372 eV

  energy without entropy =      -38.91752207  energy(sigma->0) =      -38.91718317


--------------------------------------------------------------------------------------------------------




--------------------------------------- Iteration      1(   3)  ---------------------------------------


     EDDAV:  cpu time    0.3440: real time    0.3440
       DOS:  cpu time    0.0002: real time    0.0002
    --------------------------------------------
      LOOP:  cpu time    0.3442: real time    0.3443

 eigenvalue-minimisations  :   616
 total energy-change (2. order) :-0.4972490E+01  (-0.4906829E+01)
 number of electron      32.0000000 magnetization 
 augmentation part       32.0000000 magnetization 

 Free energy of the ion-electron system (eV)
  ---------------------------------------------------
  alpha Z        PSCENC =        14.20766900
  Ewald energy   TEWEN  =      -930.95732000
  -Hartree energ DENC   =       -40.80489973
  -exchange      EXHF   =         0.00000000
  -V(xc)+E(xc)   XCENC  =       -73.53884906
  PAW double counting   =       263.82083246     -123.07410713
  entropy T*S    EENTRO =         0.00171234
  eigenvalues    EBANDS =        21.92464742
  atomic energy  EATOM  =       824.53081094
  Solvation  Ediel_sol  =         0.00000000
  ---------------------------------------------------
  free energy    TOTEN  =       -43.88950376 eV

  energy without entropy =      -43.89121610  energy(sigma->0) =      -43.89007454


--------------------------------------------------------------------------------------------------------




--------------------------------------- Iteration      1(   4)  ---------------------------------------


     EDDAV:  cpu time    0.3293: real time    0.3294
       DOS:  cpu time    0.0002: real time    0.0003
    --------------------------------------------
      LOOP:  cpu time    0.3295: real time    0.3296

 eigenvalue-minimisations  :   584
 total energy-change (2. order) :-0.8544236E-01  (-0.8534054E-01)
 number of electron      32.0000000 magnetization 
 augmentation part       32.0000000 magnetization 

 Free energy of the ion-electron system (eV)
  ---------------------------------------------------
  alpha Z        PSCENC =        14.20766900
  Ewald energy   TEWEN  =      -930.95732000
  -Hartree energ DENC   =       -40.80489973
  -exchange      EXHF   =         0.00000000
  -V(xc)+E(xc)   XCENC  =       -73.53884906
  PAW double counting   =       263.82083246     -123.07410713
  entropy T*S    EENTRO =         0.00175017
  eigenvalues    EBANDS =        21.83916724
  atomic energy  EATOM  =       824.53081094
  Solvation  Ediel_sol  =         0.00000000
  ---------------------------------------------------
  free energy    TOTEN  =       -43.97494611 eV

  energy without entropy =      -43.97669628  energy(sigma->0) =      -43.97552950


--------------------------------------------------------------------------------------------------------




--------------------------------------- Iteration      1(   5)  ---------------------------------------


     EDDAV:  cpu time    0.3552: real time    0.3553
       DOS:  cpu time    0.0002: real time    0.0002
    CHARGE:  cpu time    0.0511: real time    0.0511
    MIXING:  cpu time    0.0013: real time    0.0013
    --------------------------------------------
      LOOP:  cpu time    0.4078: real time    0.4080

 eigenvalue-minimisations  :   640
 total energy-change (2. order) :-0.2027316E-02  (-0.2026684E-02)
 number of electron      32.0000005 magnetization 
 augmentation part       -1.8973125 magnetization 

 Broyden mixing:
  rms(total) = 0.62989E+00    rms(broyden)= 0.62989E+00
  rms(prec ) = 0.11876E+01
  weight for this iteration     100.00

 Free energy of the ion-electron system (eV)
  ---------------------------------------------------
  alpha Z        PSCENC =        14.20766900
  Ewald energy   TEWEN  =      -930.95732000
  -Hartree energ DENC   =       -40.80489973
  -exchange      EXHF   =         0.00000000
  -V(xc)+E(xc)   XCENC  =       -73.53884906
  PAW double counting   =       263.82083246     -123.07410713
  entropy T*S    EENTRO =         0.00175547
  eigenvalues    EBANDS =        21.83713461
  atomic energy  EATOM  =       824.53081094
  Solvation  Ediel_sol  =         0.00000000
  ---------------------------------------------------
  free energy    TOTEN  =       -43.97697343 eV

  energy without entropy =      -43.97872891  energy(sigma->0) =      -43.97755859


--------------------------------------------------------------------------------------------------------




--------------------------------------- Iteration      1(   6)  ---------------------------------------


    POTLOK:  cpu time    0.0397: real time    0.0398
    SETDIJ:  cpu time    0.0526: real time    0.0527
    EDDIAG:  cpu time    0.0777: real time    0.0777
  RMM-DIIS:  cpu time    0.2521: real time    0.2521
    ORTHCH:  cpu time    0.0038: real time    0.0038
       DOS:  cpu time    0.0002: real time    0.0004
    CHARGE:  cpu time    0.0480: real time    0.0481
    MIXING:  cpu time    0.0008: real time    0.0009
    --------------------------------------------
      LOOP:  cpu time    0.4750: real time    0.4753

 eigenvalue-minimisations  :   480
 total energy-change (2. order) : 0.6017470E+00  (-0.2956942E-01)
 number of electron      32.0000005 magnetization 
 augmentation part       -1.8721804 magnetization 

 Broyden mixing:
  rms(total) = 0.37339E+00    rms(broyden)= 0.37339E+00
  rms(prec ) = 0.69929E+00
  weight for this iteration     100.00

 eigenvalues of (default mixing * dielectric matrix)
  average eigenvalue GAMMA=   2.4401
  2.4401

 Free energy of the ion-electron system (eV)
  ---------------------------------------------------
  alpha Z        PSCENC =        14.20766900
  Ewald energy   TEWEN  =      -930.95732000
  -Hartree energ DENC   =       -47.12971179
  -exchange      EXHF   =         0.00000000
  -V(xc)+E(xc)   XCENC  =       -72.53105173
  PAW double counting   =       282.93656325     -142.72358600
  entropy T*S    EENTRO =         0.00176388
  eigenvalues    EBANDS =        28.28963605
  atomic energy  EATOM  =       824.53081094
  Solvation  Ediel_sol  =         0.00000000
  ---------------------------------------------------
  free energy    TOTEN  =       -43.37522641 eV

  energy without entropy =      -43.37699028  energy(sigma->0) =      -43.37581436


--------------------------------------------------------------------------------------------------------




--------------------------------------- Iteration      1(   7)  ---------------------------------------


    POTLOK:  cpu time    0.0376: real time    0.0377
    SETDIJ:  cpu time    0.0525: real time    0.0525
    EDDIAG:  cpu time    0.0798: real time    0.0798
  RMM-DIIS:  cpu time    0.2602: real time    0.2602
    ORTHCH:  cpu time    0.0037: real time    0.0037
       DOS:  cpu time    0.0002: real time    0.0003
    CHARGE:  cpu time    0.0478: real time    0.0478
    MIXING:  cpu time    0.0009: real time    0.0009
    --------------------------------------------
      LOOP:  cpu time    0.4827: real time    0.4828

 eigenvalue-minimisations  :   504
 total energy-change (2. order) : 0.2670113E+00  (-0.6769063E-01)
 number of electron      32.0000005 magnetization 
 augmentation part       -1.8378707 magnetization 

 Broyden mixing:
  rms(total) = 0.32467E-01    rms(broyden)= 0.32467E-01
  rms(prec ) = 0.56562E-01
  weight for this iteration     100.00

 eigenvalues of (default mixing * dielectric matrix)
  average eigenvalue GAMMA=   2.7147
  2.7147  2.7147

 Free energy of the ion-electron system (eV)
  ---------------------------------------------------
  alpha Z        PSCENC =        14.20766900
  Ewald energy   TEWEN  =      -930.95732000
  -Hartree energ DENC   =       -57.37600663
  -exchange      EXHF   =         0.00000000
  -V(xc)+E(xc)   XCENC  =       -70.87494222
  PAW double counting   =       309.11816140     -169.61205837
  entropy T*S    EENTRO =         0.00231807
  eigenvalues    EBANDS =        37.85315270
  atomic energy  EATOM  =       824.53081094
  Solvation  Ediel_sol  =         0.00000000
  ---------------------------------------------------
  free energy    TOTEN  =       -43.10821512 eV

  energy without entropy =      -43.11053319  energy(sigma->0) =      -43.10898781


--------------------------------------------------------------------------------------------------------




--------------------------------------- Iteration      1(   8)  ---------------------------------------


    POTLOK:  cpu time    0.0378: real time    0.0379
    SETDIJ:  cpu time    0.0519: real time    0.0519
    EDDIAG:  cpu time    0.0760: real time    0.0760
  RMM-DIIS:  cpu time    0.2619: real time    0.2619
    ORTHCH:  cpu time    0.0037: real time    0.0037
       DOS:  cpu time    0.0002: real time    0.0004
    CHARGE:  cpu time    0.0465: real time    0.0465
    MIXING:  cpu time    0.0009: real time    0.0009
    --------------------------------------------
      LOOP:  cpu time    0.4789: real time    0.4791

 eigenvalue-minimisations  :   506
 total energy-change (2. order) :-0.9513267E-02  (-0.6012970E-02)
 number of electron      32.0000005 magnetization 
 augmentation part       -1.8433397 magnetization 

 Broyden mixing:
  rms(total) = 0.87352E-02    rms(broyden)= 0.87351E-02
  rms(prec ) = 0.21295E-01
  weight for this iteration     100.00

 eigenvalues of (default mixing * dielectric matrix)
  average eigenvalue GAMMA=   2.1231
  2.7013  1.8340  1.8340

 Free energy of the ion-electron system (eV)
  ---------------------------------------------------
  alpha Z        PSCENC =        14.20766900
  Ewald energy   TEWEN  =      -930.95732000
  -Hartree energ DENC   =       -56.84875711
  -exchange      EXHF   =         0.00000000
  -V(xc)+E(xc)   XCENC  =       -70.88183674
  PAW double counting   =       303.82650523     -164.15339820
  entropy T*S    EENTRO =         0.00241517
  eigenvalues    EBANDS =        37.15618333
  atomic energy  EATOM  =       824.53081094
  Solvation  Ediel_sol  =         0.00000000
  ---------------------------------------------------
  free energy    TOTEN  =       -43.11772838 eV

  energy without entropy =      -43.12014355  energy(sigma->0) =      -43.11853344


--------------------------------------------------------------------------------------------------------




--------------------------------------- Iteration      1(   9)  ---------------------------------------


    POTLOK:  cpu time    0.0371: real time    0.0373
    SETDIJ:  cpu time    0.0519: real time    0.0519
    EDDIAG:  cpu time    0.0760: real time    0.0760
  RMM-DIIS:  cpu time    0.2776: real time    0.2776
    ORTHCH:  cpu time    0.0037: real time    0.0037
       DOS:  cpu time    0.0002: real time    0.0004
    CHARGE:  cpu time    0.0479: real time    0.0479
    MIXING:  cpu time    0.0009: real time    0.0009
    --------------------------------------------
      LOOP:  cpu time    0.4955: real time    0.4958

 eigenvalue-minimisations  :   546
 total energy-change (2. order) :-0.1077871E-02  (-0.1624928E-02)
 number of electron      32.0000005 magnetization 
 augmentation part       -1.8413709 magnetization 

 Broyden mixing:
  rms(total) = 0.88364E-02    rms(broyden)= 0.88364E-02
  rms(prec ) = 0.14760E-01
  weight for this iteration     100.00

 eigenvalues of (default mixing * dielectric matrix)
  average eigenvalue GAMMA=   2.1362
  2.9078  2.9078  1.8342  0.8952

 Free energy of the ion-electron system (eV)
  ---------------------------------------------------
  alpha Z        PSCENC =        14.20766900
  Ewald energy   TEWEN  =      -930.95732000
  -Hartree energ DENC   =       -57.26883229
  -exchange      EXHF   =         0.00000000
  -V(xc)+E(xc)   XCENC  =       -70.82453324
  PAW double counting   =       305.23912574     -165.60708920
  entropy T*S    EENTRO =         0.00204821
  eigenvalues    EBANDS =        37.55931459
  atomic energy  EATOM  =       824.53081094
  Solvation  Ediel_sol  =         0.00000000
  ---------------------------------------------------
  free energy    TOTEN  =       -43.11880626 eV

  energy without entropy =      -43.12085447  energy(sigma->0) =      -43.11948899


--------------------------------------------------------------------------------------------------------




--------------------------------------- Iteration      1(  10)  ---------------------------------------


    POTLOK:  cpu time    0.0372: real time    0.0374
    SETDIJ:  cpu time    0.0519: real time    0.0519
    EDDIAG:  cpu time    0.0760: real time    0.0760
  RMM-DIIS:  cpu time    0.2638: real time    0.2638
    ORTHCH:  cpu time    0.0038: real time    0.0038
       DOS:  cpu time    0.0002: real time    0.0004
    CHARGE:  cpu time    0.0466: real time    0.0466
    MIXING:  cpu time    0.0009: real time    0.0009
    --------------------------------------------
      LOOP:  cpu time    0.4804: real time    0.4807

 eigenvalue-minimisations  :   515
 total energy-change (2. order) :-0.6407470E-03  (-0.3770145E-03)
 number of electron      32.0000005 magnetization 
 augmentation part       -1.8432476 magnetization 

 Broyden mixing:
  rms(total) = 0.54135E-02    rms(broyden)= 0.54135E-02
  rms(prec ) = 0.11136E-01
  weight for this iteration     100.00

 eigenvalues of (default mixing * dielectric matrix)
  average eigenvalue GAMMA=   2.0366
  3.2750  2.7109  2.2505  1.0898  0.8568

 Free energy of the ion-electron system (eV)
  ---------------------------------------------------
  alpha Z        PSCENC =        14.20766900
  Ewald energy   TEWEN  =      -930.95732000
  -Hartree energ DENC   =       -56.97132365
  -exchange      EXHF   =         0.00000000
  -V(xc)+E(xc)   XCENC  =       -70.86032201
  PAW double counting   =       304.14217767     -164.47793983
  entropy T*S    EENTRO =         0.00238316
  eigenvalues    EBANDS =        37.26441772
  atomic energy  EATOM  =       824.53081094
  Solvation  Ediel_sol  =         0.00000000
  ---------------------------------------------------
  free energy    TOTEN  =       -43.11944700 eV

  energy without entropy =      -43.12183016  energy(sigma->0) =      -43.12024139


--------------------------------------------------------------------------------------------------------




--------------------------------------- Iteration      1(  11)  ---------------------------------------


    POTLOK:  cpu time    0.0374: real time    0.0375
    SETDIJ:  cpu time    0.0519: real time    0.0519
    EDDIAG:  cpu time    0.0748: real time    0.0748
  RMM-DIIS:  cpu time    0.2848: real time    0.2848
    ORTHCH:  cpu time    0.0038: real time    0.0038
       DOS:  cpu time    0.0002: real time    0.0004
    CHARGE:  cpu time    0.0480: real time    0.0480
    MIXING:  cpu time    0.0009: real time    0.0009
    --------------------------------------------
      LOOP:  cpu time    0.5018: real time    0.5021

 eigenvalue-minimisations  :   556
 total energy-change (2. order) : 0.1199376E-04  (-0.1083136E-03)
 number of electron      32.0000005 magnetization 
 augmentation part       -1.8427144 magnetization 

 Broyden mixing:
  rms(total) = 0.46329E-03    rms(broyden)= 0.46322E-03
  rms(prec ) = 0.65562E-03
  weight for this iteration     100.00

 eigenvalues of (default mixing * dielectric matrix)
  average eigenvalue GAMMA=   1.9889
  3.5672  2.7785  2.3143  1.5325  0.8704  0.8704

 Free energy of the ion-electron system (eV)
  ---------------------------------------------------
  alpha Z        PSCENC =        14.20766900
  Ewald energy   TEWEN  =      -930.95732000
  -Hartree energ DENC   =       -57.14535537
  -exchange      EXHF   =         0.00000000
  -V(xc)+E(xc)   XCENC  =       -70.83764259
  PAW double counting   =       304.81526354     -165.17105807
  entropy T*S    EENTRO =         0.00243901
  eigenvalues    EBANDS =        37.43575854
  atomic energy  EATOM  =       824.53081094
  Solvation  Ediel_sol  =         0.00000000
  ---------------------------------------------------
  free energy    TOTEN  =       -43.11943501 eV

  energy without entropy =      -43.12187402  energy(sigma->0) =      -43.12024801


--------------------------------------------------------------------------------------------------------




--------------------------------------- Iteration      1(  12)  ---------------------------------------


    POTLOK:  cpu time    0.0374: real time    0.0376
    SETDIJ:  cpu time    0.0519: real time    0.0519
    EDDIAG:  cpu time    0.0748: real time    0.0748
  RMM-DIIS:  cpu time    0.2928: real time    0.2928
    ORTHCH:  cpu time    0.0042: real time    0.0042
       DOS:  cpu time    0.0002: real time    0.0003
    CHARGE:  cpu time    0.0482: real time    0.0482
    MIXING:  cpu time    0.0010: real time    0.0010
    --------------------------------------------
      LOOP:  cpu time    0.5106: real time    0.5108

 eigenvalue-minimisations  :   572
 total energy-change (2. order) :-0.2814254E-04  (-0.2654470E-04)
 number of electron      32.0000005 magnetization 
 augmentation part       -1.8429260 magnetization 

 Broyden mixing:
  rms(total) = 0.49675E-03    rms(broyden)= 0.49673E-03
  rms(prec ) = 0.71589E-03
  weight for this iteration     100.00

 eigenvalues of (default mixing * dielectric matrix)
  average eigenvalue GAMMA=   2.1112
  4.5918  2.6557  2.1604  1.7256  1.7256  0.8536  1.0655

 Free energy of the ion-electron system (eV)
  ---------------------------------------------------
  alpha Z        PSCENC =        14.20766900
  Ewald energy   TEWEN  =      -930.95732000
  -Hartree energ DENC   =       -57.14852996
  -exchange      EXHF   =         0.00000000
  -V(xc)+E(xc)   XCENC  =       -70.83770908
  PAW double counting   =       304.83394336     -165.19066792
  entropy T*S    EENTRO =         0.00243957
  eigenvalues    EBANDS =        37.43990093
  atomic energy  EATOM  =       824.53081094
  Solvation  Ediel_sol  =         0.00000000
  ---------------------------------------------------
  free energy    TOTEN  =       -43.11946315 eV

  energy without entropy =      -43.12190273  energy(sigma->0) =      -43.12027634


--------------------------------------------------------------------------------------------------------




--------------------------------------- Iteration      1(  13)  ---------------------------------------


    POTLOK:  cpu time    0.0383: real time    0.0385
    SETDIJ:  cpu time    0.0519: real time    0.0519
    EDDIAG:  cpu time    0.0749: real time    0.0749
  RMM-DIIS:  cpu time    0.2826: real time    0.2826
    ORTHCH:  cpu time    0.0037: real time    0.0037
       DOS:  cpu time    0.0002: real time    0.0004
    CHARGE:  cpu time    0.0480: real time    0.0480
    MIXING:  cpu time    0.0010: real time    0.0010
    --------------------------------------------
      LOOP:  cpu time    0.5005: real time    0.5008

 eigenvalue-minimisations  :   553
 total energy-change (2. order) :-0.5151126E-05  (-0.6368216E-05)
 number of electron      32.0000005 magnetization 
 augmentation part       -1.8429444 magnetization 

 Broyden mixing:
  rms(total) = 0.36230E-03    rms(broyden)= 0.36229E-03
  rms(prec ) = 0.69612E-03
  weight for this iteration     100.00

 eigenvalues of (default mixing * dielectric matrix)
  average eigenvalue GAMMA=   1.9024
  3.3277  3.0898  2.6042  2.3731  1.0217  1.0217  0.8907  0.8907

 Free energy of the ion-electron system (eV)
  ---------------------------------------------------
  alpha Z        PSCENC =        14.20766900
  Ewald energy   TEWEN  =      -930.95732000
  -Hartree energ DENC   =       -57.14931255
  -exchange      EXHF   =         0.00000000
  -V(xc)+E(xc)   XCENC  =       -70.83803657
  PAW double counting   =       304.81065664     -165.16724820
  entropy T*S    EENTRO =         0.00243442
  eigenvalues    EBANDS =        37.44087803
  atomic energy  EATOM  =       824.53081094
  Solvation  Ediel_sol  =         0.00000000
  ---------------------------------------------------
  free energy    TOTEN  =       -43.11946830 eV

  energy without entropy =      -43.12190272  energy(sigma->0) =      -43.12027977


--------------------------------------------------------------------------------------------------------




--------------------------------------- Iteration      1(  14)  ---------------------------------------


    POTLOK:  cpu time    0.0372: real time    0.0374
    SETDIJ:  cpu time    0.0519: real time    0.0519
    EDDIAG:  cpu time    0.0746: real time    0.0746
  RMM-DIIS:  cpu time    0.2572: real time    0.2572
    ORTHCH:  cpu time    0.0037: real time    0.0037
       DOS:  cpu time    0.0002: real time    0.0004
    CHARGE:  cpu time    0.0481: real time    0.0481
    MIXING:  cpu time    0.0010: real time    0.0010
    --------------------------------------------
      LOOP:  cpu time    0.4741: real time    0.4744

 eigenvalue-minimisations  :   501
 total energy-change (2. order) :-0.4501123E-06  (-0.1053293E-05)
 number of electron      32.0000005 magnetization 
 augmentation part       -1.8429951 magnetization 

 Broyden mixing:
  rms(total) = 0.20191E-03    rms(broyden)= 0.20190E-03
  rms(prec ) = 0.39114E-03
  weight for this iteration     100.00

 eigenvalues of (default mixing * dielectric matrix)
  average eigenvalue GAMMA=   1.7127
  3.2161  3.2161  2.6107  2.3722  1.0362  1.0362  0.8512  0.9091  0.1668

 Free energy of the ion-electron system (eV)
  ---------------------------------------------------
  alpha Z        PSCENC =        14.20766900
  Ewald energy   TEWEN  =      -930.95732000
  -Hartree energ DENC   =       -57.14453295
  -exchange      EXHF   =         0.00000000
  -V(xc)+E(xc)   XCENC  =       -70.83893539
  PAW double counting   =       304.77854709     -165.13430997
  entropy T*S    EENTRO =         0.00243651
  eigenvalues    EBANDS =        37.43616601
  atomic energy  EATOM  =       824.53081094
  Solvation  Ediel_sol  =         0.00000000
  ---------------------------------------------------
  free energy    TOTEN  =       -43.11946875 eV

  energy without entropy =      -43.12190526  energy(sigma->0) =      -43.12028092


--------------------------------------------------------------------------------------------------------




--------------------------------------- Iteration      1(  15)  ---------------------------------------


    POTLOK:  cpu time    0.0373: real time    0.0375
    SETDIJ:  cpu time    0.0519: real time    0.0519
    EDDIAG:  cpu time    0.0747: real time    0.0747
  RMM-DIIS:  cpu time    0.2081: real time    0.2082
    ORTHCH:  cpu time    0.0037: real time    0.0037
       DOS:  cpu time    0.0002: real time    0.0002
    --------------------------------------------
      LOOP:  cpu time    0.3760: real time    0.3762

 eigenvalue-minimisations  :   375
 total energy-change (2. order) :-0.7711560E-07  (-0.2663700E-06)
 number of electron      32.0000005 magnetization 
 augmentation part       -1.8429951 magnetization 

 Free energy of the ion-electron system (eV)
  ---------------------------------------------------
  alpha Z        PSCENC =        14.20766900
  Ewald energy   TEWEN  =      -930.95732000
  -Hartree energ DENC   =       -57.14227576
  -exchange      EXHF   =         0.00000000
  -V(xc)+E(xc)   XCENC  =       -70.83926211
  PAW double counting   =       304.77415060     -165.12984632
  entropy T*S    EENTRO =         0.00243603
  eigenvalues    EBANDS =        37.43416879
  atomic energy  EATOM  =       824.53081094
  Solvation  Ediel_sol  =         0.00000000
  ---------------------------------------------------
  free energy    TOTEN  =       -43.11946883 eV

  energy without entropy =      -43.12190486  energy(sigma->0) =      -43.12028084


--------------------------------------------------------------------------------------------------------




 average (electrostatic) potential at core
  the test charge radii are     0.9892
  (the norm of the test charge is              1.0000)
       1 -82.6225       2 -82.6225       3 -82.6225       4 -82.6225       5 -82.6225
       6 -82.6225       7 -82.6225       8 -82.6225



 E-fermi :   6.5143     XC(G=0):  -9.6243     alpha+bet :-12.6535

 Fermi energy:         6.5143294951

 k-point     1 :       0.0000    0.0000    0.0000
  band No.  band energies     occupation 
      1      -5.9489      2.00000
      2      -1.6016      2.00000
      3      -1.6016      2.00000
      4      -1.6016      2.00000
      5      -1.6016      2.00000
      6      -1.6016      2.00000
      7      -1.6016      2.00000
      8       3.3985      2.00000
      9       3.3985      2.00000
     10       3.3985      2.00000
     11       3.3985      2.00000
     12       3.3985      2.00000
     13       3.3985      2.00000
     14       6.3943      1.84030
     15       6.3943      1.84030
     16       6.3943      1.84030
     17       6.9897     -0.00394
     18       6.9897     -0.00394
     19       6.9897     -0.00394
     20       6.9897     -0.00394
     21       6.9897     -0.00394
     22       6.9897     -0.00394
     23       8.9800     -0.00000
     24       8.9800     -0.00000

 k-point     2 :       0.2000    0.0000    0.0000
  band No.  band energies     occupation 
      1      -5.7657      2.00000
      2      -3.1045      2.00000
      3      -1.5405      2.00000
      4      -1.5405      2.00000
      5      -1.5405      2.00000
      6      -1.5405      2.00000
      7       0.1170      2.00000
      8       2.9498      2.00000
      9       2.9498      2.00000
     10       2.9498      2.00000
     11       2.9498      2.00000
     12       3.5626      2.00000
     13       3.5626      2.00000
     14       5.5006      2.00000
     15       5.7799      2.00000
     16       5.7799      2.00000
     17       6.8750     -0.02859
     18       7.5954     -0.00000
     19       7.8928     -0.00000
     20       7.8928     -0.00000
     21       7.8928     -0.00000
     22       7.8928     -0.00000
     23       8.5819     -0.00000
     24       9.8181     -0.00000

 k-point     3 :       0.4000    0.0000    0.0000
  band No.  band energies     occupation 
      1      -5.2200      2.00000
      2      -4.3247      2.00000
      3      -1.4315      2.00000
      4      -1.4315      2.00000
      5      -1.4315      2.00000
      6      -1.4315      2.00000
      7       1.9565      2.00000
      8       2.3907      2.00000
      9       2.3907      2.00000
     10       2.3907      2.00000
     11       2.3907      2.00000
     12       3.8057      2.00000
     13       4.0474      2.00000
     14       4.0474      2.00000
     15       4.8220      2.00000
     16       4.8220      2.00000
     17       7.1841     -0.00002
     18       7.8209     -0.00000
     19       8.7377     -0.00000
     20       9.8358     -0.00000
     21       9.8358     -0.00000
     22       9.8358     -0.00000
     23       9.8358     -0.00000
     24      10.3451     -0.00000

 k-point     4 :       0.2000    0.2000    0.0000
  band No.  band energies     occupation 
      1      -5.5846      2.00000
      2      -2.9771      2.00000
      3      -2.9771      2.00000
      4      -1.8190      2.00000
      5      -1.2107      2.00000
      6       0.0310      2.00000
      7       0.0310      2.00000
      8       2.0854      2.00000
      9       2.9980      2.00000
     10       2.9980      2.00000
     11       3.3371      2.00000
     12       3.3371      2.00000
     13       3.6888      2.00000
     14       4.3547      2.00000
     15       5.1599      2.00000
     16       6.2163      2.05620
     17       7.3280     -0.00000
     18       7.8297     -0.00000
     19       7.8297     -0.00000
     20       8.4052     -0.00000
     21       8.4052     -0.00000
     22       9.3533     -0.00000
     23       9.5614     -0.00000
     24       9.5716     -0.00000

 k-point     5 :       0.4000    0.2000    0.0000
  band No.  band energies     occupation 
      1      -5.0461      2.00000
      2      -4.1661      2.00000
      3      -2.6307      2.00000
      4      -2.1875      2.00000
      5      -0.7623      2.00000
      6      -0.2825      2.00000
      7       1.5726      2.00000
      8       1.7960      2.00000
      9       2.1835      2.00000
     10       2.9920      2.00000
     11       3.2222      2.00000
     12       3.4305      2.00000
     13       3.5287      2.00000
     14       4.1924      2.00000
     15       4.1983      2.00000
     16       5.3874      2.00000
     17       8.1490     -0.00000
     18       8.5277     -0.00000
     19       8.7545     -0.00000
     20       9.4225     -0.00000
     21       9.8220     -0.00000
     22      10.1308     -0.00000
     23      10.3454     -0.00000
     24      11.0018     -0.00000

 k-point     6 :       0.4000    0.4000    0.0000
  band No.  band energies     occupation 
      1      -4.5322      2.00000
      2      -3.7062      2.00000
      3      -3.7062      2.00000
      4      -3.0036      2.00000
      5      -0.0482      2.00000
      6       0.7711      2.00000
      7       0.7711      2.00000
      8       1.8476      2.00000
      9       1.8817      2.00000
     10       2.5008      2.00000
     11       2.5008      2.00000
     12       3.2234      2.00000
     13       4.4899      2.00000
     14       4.5109      2.00000
     15       4.5109      2.00000
     16       5.5161      2.00000
     17       8.2703     -0.00000
     18       9.3932     -0.00000
     19       9.6231     -0.00000
     20       9.6231     -0.00000
     21      10.1135     -0.00000
     22      10.1135     -0.00000
     23      10.4670     -0.00000
     24      10.8139     -0.00000

 k-point     7 :       0.2000    0.2000    0.2000
  band No.  band energies     occupation 
      1      -5.4062      2.00000
      2      -2.8856      2.00000
      3      -2.8856      2.00000
      4      -2.8856      2.00000
      5      -0.1563      2.00000
      6      -0.1563      2.00000
      7      -0.1563      2.00000
      8       2.5006      2.00000
      9       2.5006      2.00000
     10       2.5006      2.00000
     11       3.3168      2.00000
     12       3.8435      2.00000
     13       3.8435      2.00000
     14       3.8435      2.00000
     15       5.7868      2.00000
     16       5.7868      2.00000
     17       7.5412     -0.00000
     18       7.5412     -0.00000
     19       7.5412     -0.00000
     20       8.7937     -0.00000
     21       9.7812     -0.00000
     22       9.7812     -0.00000
     23       9.7908     -0.00000
     24       9.8110     -0.00000

 k-point     8 :       0.4000    0.2000    0.2000
  band No.  band energies     occupation 
      1      -4.8771      2.00000
      2      -4.0192      2.00000
      3      -2.7077      2.00000
      4      -2.7077      2.00000
      5      -0.5134      2.00000
      6      -0.5134      2.00000
      7       0.9718      2.00000
      8       2.0789      2.00000
      9       2.3637      2.00000
     10       2.3637      2.00000
     11       3.6560      2.00000
     12       3.7842      2.00000
     13       3.7842      2.00000
     14       4.2951      2.00000
     15       4.9934      2.00000
     16       5.0855      2.00000
     17       8.1319     -0.00000
     18       8.7167     -0.00000
     19       8.7167     -0.00000
     20       8.8414     -0.00000
     21       9.9246     -0.00000
     22      10.5037     -0.00000
     23      10.7812     -0.00000
     24      10.8339     -0.00000

 k-point     9 :       0.4000    0.4000    0.2000
  band No.  band energies     occupation 
      1      -4.3824      2.00000
      2      -3.6098      2.00000
      3      -3.6098      2.00000
      4      -3.0716      2.00000
      5      -0.5153      2.00000
      6       0.0688      2.00000
      7       0.0688      2.00000
      8       0.9479      2.00000
      9       2.8050      2.00000
     10       3.3713      2.00000
     11       3.3713      2.00000
     12       4.2625      2.00000
     13       4.5982      2.00000
     14       4.6113      2.00000
     15       4.6113      2.00000
     16       5.4497      2.00000
     17       8.4415     -0.00000
     18       8.9920     -0.00000
     19       9.2141     -0.00000
     20       9.2141     -0.00000
     21       9.7097     -0.00000
     22       9.7097     -0.00000
     23      10.0265     -0.00000
     24      10.1128     -0.00000

 k-point    10 :       0.4000    0.4000    0.4000
  band No.  band energies     occupation 
      1      -3.9649      2.00000
      2      -3.4218      2.00000
      3      -3.4218      2.00000
      4      -3.4218      2.00000
      5      -0.6743      2.00000
      6      -0.6743      2.00000
      7      -0.6743      2.00000
      8      -0.0932      2.00000
      9       4.3506      2.00000
     10       4.3506      2.00000
     11       4.3506      2.00000
     12       4.8840      2.00000
     13       4.8840      2.00000
     14       4.8840      2.00000
     15       5.2226      2.00000
     16       5.2226      2.00000
     17       8.2095     -0.00000
     18       8.6760     -0.00000
     19       8.6760     -0.00000
     20       8.6760     -0.00000
     21       9.7306     -0.00000
     22       9.7306     -0.00000
     23       9.7317     -0.00000
     24       9.7930     -0.00000


--------------------------------------------------------------------------------------------------------


 soft charge-density along one line, spin component           1
         0         1         2         3         4         5         6         7         8         9
 total charge-density along one line

 pseudopotential strength for first ion, spin component:           1
 18.351  -0.002   0.000  -0.000   0.000  -0.000   0.000  -0.000
 -0.002   0.006  -0.000   0.000  -0.000   0.000  -0.000   0.000
  0.000  -0.000   4.173   0.000  -0.000  -0.005  -0.000   0.000
 -0.000   0.000   0.000   4.173   0.000  -0.000  -0.005  -0.000
  0.000  -0.000  -0.000   0.000   4.173   0.000  -0.000  -0.005
 -0.000   0.000  -0.005  -0.000   0.000   0.005  -0.000  -0.000
  0.000  -0.000  -0.000  -0.005  -0.000  -0.000   0.005   0.000
 -0.000   0.000   0.000  -0.000  -0.005  -0.000   0.000   0.005
 total augmentation occupancy for first ion, spin component:           1
  1.485  -0.868  -0.000   0.000   0.000   0.000  -0.000  -0.000
 -0.868   0.901   0.000  -0.000  -0.000  -0.000  -0.000   0.000
 -0.000   0.000   1.069   0.000   0.000  -0.608  -0.000  -0.000
 -0.000  -0.000   0.000   1.069   0.000  -0.000  -0.608  -0.000
  0.000   0.000   0.000   0.000   1.069  -0.000  -0.000  -0.608
  0.000  -0.000  -0.608  -0.000  -0.000   0.409   0.000   0.000
 -0.000  -0.000  -0.000  -0.608  -0.000   0.000   0.409   0.000
 -0.000  -0.000  -0.000  -0.000  -0.608   0.000   0.000   0.409


------------------------ aborting loop because EDIFF is reached ----------------------------------------


    CHARGE:  cpu time    0.0474: real time    0.0474
    FORLOC:  cpu time    0.0021: real time    0.0021
    FORNL :  cpu time    0.0923: real time    0.0923
    STRESS:  cpu time    0.1706: real time    0.1706
    FORCOR:  cpu time    0.0381: real time    0.0381
    FORHAR:  cpu time    0.0096: real time    0.0097
    MIXING:  cpu time    0.0010: real time    0.0010
    OFIELD:  cpu time    0.0000: real time    0.0000

  FORCE on cell =-STRESS in cart. coord.  units (eV):
  Direction    XX          YY          ZZ          XY          YZ          ZX
  --------------------------------------------------------------------------------------
  Alpha Z    14.20767    14.20767    14.20767
  Ewald    -310.31964  -310.31964  -310.31964    -0.00000     0.00000     0.00000
  Hartree    19.04527    19.04527    19.04527    -0.00000    -0.00000    -0.00000
  E(xc)    -102.78831  -102.78831  -102.78831    -0.00000    -0.00000    -0.00000
  Local    -113.95135  -113.95135  -113.95135    -0.00000     0.00000     0.00000
  n-local   315.95868   318.98660   312.58868    -3.39045    -2.03586    -1.65747
  augment   -46.72742   -46.72742   -46.72742     0.00000     0.00000     0.00000
  Kinetic   224.97780   236.07483   235.44896    -4.25789    -4.27058    -2.68784
  Fock        0.00000     0.00000     0.00000     0.00000     0.00000     0.00000
  -------------------------------------------------------------------------------------
  Total       7.47807     7.47807     7.47807     0.00000     0.00000     0.00000
  in kB      79.01127    79.01127    79.01127     0.00000     0.00000     0.00000
  external pressure =       79.01 kB  Pullay stress =        0.00 kB


 VOLUME and BASIS-vectors are now :
 -----------------------------------------------------------------------------
  energy-cutoff  :      520.00
  volume of cell :      151.64
      direct lattice vectors                 reciprocal lattice vectors
     5.332575225  0.000000000  0.000000000     0.187526656 -0.000000000  0.000000000
     0.000000000  5.332575225  0.000000000     0.000000000  0.187526656  0.000000000
     0.000000000  0.000000000  5.332575225    -0.000000000 -0.000000000  0.187526656

  length of vectors
     5.332575225  5.332575225  5.332575225     0.187526656  0.187526656  0.187526656


 FORCES acting on ions
    electron-ion (+dipol)            ewald-force                    non-local-force                 convergence-correction
 -----------------------------------------------------------------------------------------------
   0.180E-13 0.721E-13 -.363E-12   0.249E-13 0.711E-14 -.355E-14   -.636E-17 -.360E-16 -.607E-17   -.274E-14 -.152E-14 0.385E-14
   -.107E-13 0.737E-14 -.780E-14   0.619E-14 0.395E-14 0.710E-14   0.185E-16 0.447E-16 0.104E-16   -.876E-15 0.363E-14 0.463E-14
   0.207E-13 -.493E-12 0.242E-12   0.178E-13 0.355E-14 -.355E-14   0.136E-16 0.737E-17 -.191E-16   -.267E-14 -.232E-14 0.547E-14
   -.147E-13 -.377E-14 -.147E-13   0.931E-15 -.507E-17 0.676E-14   -.119E-16 0.217E-17 0.191E-16   -.554E-15 0.335E-14 0.405E-14
   0.799E-14 0.131E-12 0.392E-13   0.000E+00 0.000E+00 -.711E-14   0.752E-17 -.169E-16 0.182E-16   -.205E-15 -.115E-14 0.556E-14
   -.133E-13 -.188E-12 -.142E-12   -.213E-13 -.304E-14 0.321E-14   -.926E-17 0.299E-16 -.104E-16   0.497E-15 0.351E-14 0.438E-14
   0.866E-14 0.617E-13 0.264E-13   -.711E-14 -.355E-14 -.711E-14   0.292E-16 0.369E-16 0.173E-16   -.311E-15 -.201E-14 0.339E-14
   -.733E-14 -.272E-14 -.378E-12   -.284E-13 -.714E-14 0.352E-14   -.396E-16 -.247E-16 -.173E-17   0.745E-15 0.307E-14 0.497E-14
 -----------------------------------------------------------------------------------------------
   0.933E-14 -.414E-12 -.598E-12   -.712E-14 0.879E-15 -.729E-15   0.173E-17 0.434E-16 0.278E-16   -.611E-14 0.655E-14 0.363E-13


 POSITION                                       TOTAL-FORCE (eV/Angst)
 -----------------------------------------------------------------------------------
      3.99943      3.99943      1.33314        -0.000000     -0.000000     -0.000000
      0.00000      2.66629      2.66629         0.000000      0.000000      0.000000
      3.99943      1.33314      3.99943        -0.000000      0.000000     -0.000000
      0.00000      0.00000      0.00000         0.000000     -0.000000      0.000000
      1.33314      3.99943      3.99943        -0.000000     -0.000000     -0.000000
      2.66629      2.66629      0.00000         0.000000     -0.000000      0.000000
      1.33314      1.33314      1.33314         0.000000      0.000000     -0.000000
      2.66629      0.00000      2.66629        -0.000000     -0.000000      0.000000
 -----------------------------------------------------------------------------------
    total drift:                               -0.000000     -0.000000     -0.000000


--------------------------------------------------------------------------------------------------------



  FREE ENERGIE OF THE ION-ELECTRON SYSTEM (eV)
  ---------------------------------------------------
  free  energy   TOTEN  =       -43.11946883 eV

  energy  without entropy=      -43.12190486  energy(sigma->0) =      -43.12028084



--------------------------------------------------------------------------------------------------------


    POTLOK:  cpu time    0.0893: real time    0.0893


--------------------------------------------------------------------------------------------------------


 stress matrix after NEB project (eV)
      7.47807      0.00000      0.00000
      0.00000      7.47807      0.00000
      0.00000      0.00000      7.47807
  FORCES: max atom, RMS     0.000000    0.000000
  FORCE total and by dimension    0.000000    0.000000
  Stress total and by dimension   12.952394    7.478068
     LOOP+:  cpu time    7.1112: real time    7.1179
    4ORBIT:  cpu time    0.0000: real time    0.0000

 total amount of memory used by VASP MPI-rank0    50655. kBytes
=======================================================================

   base      :      30000. kBytes
   nonl-proj :       3145. kBytes
   fftplans  :       4661. kBytes
   grid      :       8832. kBytes
   one-center:         24. kBytes
   wavefun   :       3993. kBytes

  
  
 General timing and accounting informations for this job:
 ========================================================
  
                  Total CPU time used (sec):        7.717
                            User time (sec):        7.397
                          System time (sec):        0.320
                         Elapsed time (sec):        7.936
  
                   Maximum memory used (kb):       58008.
                   Average memory used (kb):          N/A
  
                          Minor page faults:        73224
                          Major page faults:          419
                 Voluntary context switches:          869
