 running on    4 total cores
 distrk:  each k-point on    4 cores,    1 groups
 distr:  one band on    1 cores,    4 groups
 vasp.6.2.1 16May21 (build Aug 15 2022 14:47:30) complex                         
 POSCAR found type information on POSCAR Si
 POSCAR found :  1 types and       8 ions
 scaLAPACK will be used
 LDA part: xc-table for Pade appr. of Perdew
 POSCAR found type information on POSCAR Si
 POSCAR found :  1 types and       8 ions
 POSCAR, INCAR and KPOINTS ok, starting setup
 FFT: planning ...
 WAVECAR not read
 WARNING: random wavefunctions but no delay for mixing, default for NELMDL
 entering main loop
       N       E                     dE             d eps       ncg     rms          rms(c)
DAV:   1     0.678935807707E+02    0.67894E+02   -0.12164E+04   480   0.109E+03
DAV:   2    -0.389170137192E+02   -0.10681E+03   -0.99032E+02   648   0.158E+02
DAV:   3    -0.438895037594E+02   -0.49725E+01   -0.49068E+01   616   0.318E+01
DAV:   4    -0.439749461148E+02   -0.85442E-01   -0.85341E-01   584   0.525E+00
DAV:   5    -0.439769734311E+02   -0.20273E-02   -0.20267E-02   640   0.719E-01    0.630E+00
RMM:   6    -0.433752264053E+02    0.60175E+00   -0.29569E-01   480   0.215E+00    0.373E+00
RMM:   7    -0.431082151170E+02    0.26701E+00   -0.67691E-01   504   0.340E+00    0.325E-01
RMM:   8    -0.431177283844E+02   -0.95133E-02   -0.60130E-02   506   0.120E+00    0.874E-02
RMM:   9    -0.431188062559E+02   -0.10779E-02   -0.16249E-02   546   0.550E-01    0.884E-02
RMM:  10    -0.431194470029E+02   -0.64075E-03   -0.37701E-03   515   0.307E-01    0.541E-02
RMM:  11    -0.431194350091E+02    0.11994E-04   -0.10831E-03   556   0.166E-01    0.463E-03
RMM:  12    -0.431194631517E+02   -0.28143E-04   -0.26545E-04   572   0.872E-02    0.497E-03
RMM:  13    -0.431194683028E+02   -0.51511E-05   -0.63682E-05   553   0.404E-02    0.362E-03
RMM:  14    -0.431194687529E+02   -0.45011E-06   -0.10533E-05   501   0.178E-02    0.202E-03
RMM:  15    -0.431194688300E+02   -0.77116E-07   -0.26637E-06   375   0.869E-03
   1 F= -.43119469E+02 E0= -.43120281E+02  d E =0.243603E-02
