    1    1    1    2
  0.1658294E+02  0.2862368E-09  0.2862368E-09  0.2862368E-09  0.5000000E-15
   1.0000000000000000E-004
  CAR 
 unknown system                          
      3     56     48

  0.1262379E-14  0.1262379E-14  0.1262379E-14  0.7513148E-03
    1       -3.150869     -3.152708   1.000000   1.000000
    2       20.541423     20.540057   0.000000   0.000000
    3       20.541424     20.540057   0.000000   0.000000
    4       20.541424     20.540058   0.000000   0.000000
    5       21.995611     21.990190   0.000000   0.000000
    6       21.995617     21.990190   0.000000   0.000000
    7       21.995617     21.990203   0.000000   0.000000
    8       24.377978     24.378177   0.000000   0.000000
    9       27.317956     27.314025   0.000000   0.000000
   10       27.317956     27.314025   0.000000   0.000000
   11       30.160844     30.157641   0.000000   0.000000
   12       32.511876     32.510809   0.000000   0.000000
   13       32.511879     32.510809   0.000000   0.000000
   14       32.511879     32.510815   0.000000   0.000000
   15       41.064337     41.061774   0.000000   0.000000
   16       56.153384     56.153535   0.000000   0.000000
   17       56.346250     56.345222   0.000000   0.000000
   18       56.346262     56.345222   0.000000   0.000000
   19       56.346262     56.345238   0.000000   0.000000
   20       59.231377     59.228448   0.000000   0.000000
   21       59.231379     59.228450   0.000000   0.000000
   22       59.231379     59.228450   0.000000   0.000000
   23       62.850310     62.849715   0.000000   0.000000
   24       62.850310     62.849715   0.000000   0.000000
   25       65.088555     65.084517   0.000000   0.000000
   26       65.088568     65.084518   0.000000   0.000000
   27       65.088568     65.084518   0.000000   0.000000
   28       73.228976     73.227677   0.000000   0.000000
   29       73.228977     73.227677   0.000000   0.000000
   30       73.228977     73.227681   0.000000   0.000000
   31       80.829948     80.828731   0.000000   0.000000
   32       83.109599     83.107553   0.000000   0.000000
   33       83.109599     83.107553   0.000000   0.000000
   34       87.225296     87.225253   0.000000   0.000000
   35       87.225297     87.225261   0.000000   0.000000
   36       87.225306     87.225263   0.000000   0.000000
   37       90.108263     90.101842   0.000000   0.000000
   38       90.108263     90.101850   0.000000   0.000000
   39       90.108273     90.101850   0.000000   0.000000
   40       90.910774     90.903383   0.000000   0.000000
   41       93.471602     93.471161   0.000000   0.000000
   42       93.471611     93.471165   0.000000   0.000000
   43       93.471611     93.471165   0.000000   0.000000
   44       93.941235     93.937559   0.000000   0.000000
   45       93.941237     93.937559   0.000000   0.000000
   46       93.941237     93.937559   0.000000   0.000000
   47       96.377718     96.378147   0.000000   0.000000
   48       96.377721     96.378147   0.000000   0.000000

  0.9090909E-01  0.1262062E-14  0.1262062E-14  0.6010518E-02
    1       -2.927039     -2.928877   1.000000   1.000000
    2       17.619925     17.617823   0.000000   0.000000
    3       19.894630     19.892289   0.000000   0.000000
    4       19.894632     19.892292   0.000000   0.000000
    5       22.670408     22.666863   0.000000   0.000000
    6       22.981107     22.976500   0.000000   0.000000
    7       22.981111     22.976508   0.000000   0.000000
    8       26.204777     26.201544   0.000000   0.000000
    9       26.204777     26.201545   0.000000   0.000000
   10       26.471324     26.470468   0.000000   0.000000
   11       29.409159     29.406368   0.000000   0.000000
   12       33.604474     33.602756   0.000000   0.000000
   13       34.082543     34.080884   0.000000   0.000000
   14       34.082546     34.080888   0.000000   0.000000
   15       41.939604     41.937170   0.000000   0.000000
   16       55.548121     55.547676   0.000000   0.000000
   17       55.807652     55.806071   0.000000   0.000000
   18       55.807661     55.806080   0.000000   0.000000
   19       56.495889     56.495212   0.000000   0.000000
   20       57.296660     57.294305   0.000000   0.000000
   21       57.296667     57.294313   0.000000   0.000000
   22       59.291247     59.288556   0.000000   0.000000
   23       61.596646     61.595171   0.000000   0.000000
   24       61.596658     61.595177   0.000000   0.000000
   25       65.288960     65.284867   0.000000   0.000000
   26       68.950189     68.947136   0.000000   0.000000
   27       68.950191     68.947139   0.000000   0.000000
   28       71.578165     71.577043   0.000000   0.000000
   29       73.029337     73.027778   0.000000   0.000000
   30       73.029339     73.027781   0.000000   0.000000
   31       81.854329     81.851840   0.000000   0.000000
   32       81.854330     81.851842   0.000000   0.000000
   33       82.318044     82.316403   0.000000   0.000000
   34       84.110663     84.107424   0.000000   0.000000
   35       85.810445     85.810114   0.000000   0.000000
   36       85.810451     85.810118   0.000000   0.000000
   37       87.999342     87.996750   0.000000   0.000000
   38       87.999351     87.996755   0.000000   0.000000
   39       89.014559     89.012711   0.000000   0.000000
   40       90.104695     90.098377   0.000000   0.000000
   41       91.311829     91.309930   0.000000   0.000000
   42       91.311838     91.309933   0.000000   0.000000
   43       92.899789     92.898392   0.000000   0.000000
   44       94.809013     94.809265   0.000000   0.000000
   45       95.654222     95.654601   0.000000   0.000000
   46       95.654227     95.654601   0.000000   0.000000
   47       97.110894     97.107082   0.000000   0.000000
   48       97.110897     97.107083   0.000000   0.000000

  0.1818182E+00  0.1266963E-14  0.1266963E-14  0.6010518E-02
    1       -2.257692     -2.259530   1.000000   1.000000
    2       13.974715     13.972695   0.000000   0.000000
    3       19.161368     19.158677   0.000000   0.000000
    4       19.161370     19.158681   0.000000   0.000000
    5       22.437659     22.434717   0.000000   0.000000
    6       23.803861     23.799600   0.000000   0.000000
    7       23.803865     23.799606   0.000000   0.000000
    8       25.316995     25.314108   0.000000   0.000000
    9       25.316996     25.314112   0.000000   0.000000
   10       27.893246     27.890649   0.000000   0.000000
   11       29.980485     29.979066   0.000000   0.000000
   12       36.431723     36.429308   0.000000   0.000000
   13       37.236617     37.234415   0.000000   0.000000
   14       37.236619     37.234419   0.000000   0.000000
   15       44.147086     44.144963   0.000000   0.000000
   16       51.725865     51.723493   0.000000   0.000000
   17       51.725869     51.723497   0.000000   0.000000
   18       53.960734     53.960014   0.000000   0.000000
   19       56.644148     56.643426   0.000000   0.000000
   20       56.671678     56.670395   0.000000   0.000000
   21       56.671687     56.670409   0.000000   0.000000
   22       58.991866     58.989683   0.000000   0.000000
   23       61.737086     61.735399   0.000000   0.000000
   24       61.737099     61.735407   0.000000   0.000000
   25       65.879306     65.875064   0.000000   0.000000
   26       68.910187     68.908900   0.000000   0.000000
   27       71.087236     71.084756   0.000000   0.000000
   28       71.087237     71.084758   0.000000   0.000000
   29       73.966100     73.963829   0.000000   0.000000
   30       73.966107     73.963835   0.000000   0.000000
   31       78.859378     78.855386   0.000000   0.000000
   32       78.998910     78.996522   0.000000   0.000000
   33       78.998912     78.996523   0.000000   0.000000
   34       82.825451     82.825679   0.000000   0.000000
   35       82.825458     82.825681   0.000000   0.000000
   36       84.828334     84.826673   0.000000   0.000000
   37       85.658150     85.657768   0.000000   0.000000
   38       86.602514     86.600977   0.000000   0.000000
   39       86.602520     86.600978   0.000000   0.000000
   40       87.512337     87.510735   0.000000   0.000000
   41       89.464881     89.459389   0.000000   0.000000
   42       90.027217     90.024956   0.000000   0.000000
   43       90.027228     90.024963   0.000000   0.000000
   44       93.926206     93.926790   0.000000   0.000000
   45       97.296114     97.295540   0.000000   0.000000
   46       97.296121     97.295542   0.000000   0.000000
   47       99.503827     99.502168   0.000000   0.000000
   48       99.503828     99.502168   0.000000   0.000000

  0.2727273E+00  0.1237835E-14  0.1237835E-14  0.6010518E-02
    1       -1.148983     -1.150820   1.000000   1.000000
    2       10.550002     10.548045  -0.016184  -0.016289
    3       18.752509     18.749693   0.000000   0.000000
    4       18.752511     18.749698   0.000000   0.000000
    5       22.225963     22.223258   0.000000   0.000000
    6       22.258585     22.255300   0.000000   0.000000
    7       22.258587     22.255304   0.000000   0.000000
    8       26.247655     26.245080   0.000000   0.000000
    9       27.362276     27.358557   0.000000   0.000000
   10       27.362279     27.358563   0.000000   0.000000
   11       33.315706     33.313927   0.000000   0.000000
   12       40.519314     40.516329   0.000000   0.000000
   13       40.851821     40.849096   0.000000   0.000000
   14       40.851823     40.849099   0.000000   0.000000
   15       47.038553     47.036805   0.000000   0.000000
   16       47.376131     47.374170   0.000000   0.000000
   17       47.376135     47.374174   0.000000   0.000000
   18       51.960007     51.959342   0.000000   0.000000
   19       56.618158     56.616955   0.000000   0.000000
   20       56.618167     56.616970   0.000000   0.000000
   21       56.872832     56.871930   0.000000   0.000000
   22       58.199737     58.198243   0.000000   0.000000
   23       62.186401     62.184441   0.000000   0.000000
   24       62.186413     62.184450   0.000000   0.000000
   25       66.368718     66.366349   0.000000   0.000000
   26       66.818689     66.814145   0.000000   0.000000
   27       67.847930     67.845129   0.000000   0.000000
   28       67.847931     67.845131   0.000000   0.000000
   29       74.410139     74.409200   0.000000   0.000000
   30       74.410142     74.409205   0.000000   0.000000
   31       75.755824     75.751702   0.000000   0.000000
   32       78.384423     78.384778   0.000000   0.000000
   33       79.134318     79.133882   0.000000   0.000000
   34       79.134319     79.133886   0.000000   0.000000
   35       79.980729     79.979012   0.000000   0.000000
   36       79.980729     79.979014   0.000000   0.000000
   37       81.189396     81.188073   0.000000   0.000000
   38       88.180387     88.178743   0.000000   0.000000
   39       88.180393     88.178745   0.000000   0.000000
   40       88.754847     88.750837   0.000000   0.000000
   41       89.496692     89.494404   0.000000   0.000000
   42       89.496687     89.494413   0.000000   0.000000
   43       91.137115     91.135267   0.000000   0.000000
   44       93.073773     93.073534   0.000000   0.000000
   45       97.522432     97.520948   0.000000   0.000000
   46       97.522440     97.520981   0.000000   0.000000
   47      101.524428    101.522670   0.000000   0.000000
   48      102.466943    102.466425   0.000000   0.000000

  0.3636364E+00  0.1236297E-14  0.1236297E-14  0.6010518E-02
    1        0.389106      0.387270   1.000000   1.000000
    2        7.447449      7.445527   0.711069   0.711876
    3       18.708573     18.705675   0.000000   0.000000
    4       18.708575     18.705680   0.000000   0.000000
    5       20.829331     20.826300   0.000000   0.000000
    6       20.829333     20.826304   0.000000   0.000000
    7       22.296756     22.294201   0.000000   0.000000
    8       24.759921     24.757307   0.000000   0.000000
    9       29.891028     29.886846   0.000000   0.000000
   10       29.891031     29.886853   0.000000   0.000000
   11       36.445709     36.443414   0.000000   0.000000
   12       41.906662     41.903917   0.000000   0.000000
   13       41.906664     41.903921   0.000000   0.000000
   14       45.043880     45.040505   0.000000   0.000000
   15       46.441235     46.439471   0.000000   0.000000
   16       46.441237     46.439473   0.000000   0.000000
   17       48.341808     48.340401   0.000000   0.000000
   18       51.756225     51.756025   0.000000   0.000000
   19       56.538452     56.537270   0.000000   0.000000
   20       56.538462     56.537284   0.000000   0.000000
   21       56.581961     56.580936   0.000000   0.000000
   22       57.128307     57.127075   0.000000   0.000000
   23       61.366078     61.362951   0.000000   0.000000
   24       61.366078     61.362952   0.000000   0.000000
   25       63.825147     63.821690   0.000000   0.000000
   26       64.419265     64.417823   0.000000   0.000000
   27       64.419270     64.417825   0.000000   0.000000
   28       67.981525     67.976419   0.000000   0.000000
   29       69.677240     69.676090   0.000000   0.000000
   30       73.849433     73.848691   0.000000   0.000000
   31       73.849436     73.848695   0.000000   0.000000
   32       76.566348     76.564465   0.000000   0.000000
   33       76.973975     76.973649   0.000000   0.000000
   34       76.973980     76.973651   0.000000   0.000000
   35       78.225234     78.224496   0.000000   0.000000
   36       80.466042     80.464889   0.000000   0.000000
   37       80.466046     80.464896   0.000000   0.000000
   38       88.552566     88.548434   0.000000   0.000000
   39       89.134272     89.132136   0.000000   0.000000
   40       89.134284     89.132147   0.000000   0.000000
   41       90.480226     90.480157   0.000000   0.000000
   42       92.023708     92.021617   0.000000   0.000000
   43       92.023713     92.021618   0.000000   0.000000
   44       94.278664     94.277811   0.000000   0.000000
   45       98.982866     98.980863   0.000000   0.000000
   46       98.982894     98.980881   0.000000   0.000000
   47      102.353581    102.350563   0.000000   0.000000
   48      104.132370    104.131496   0.000000   0.000000

  0.4545455E+00  0.1248969E-14  0.1248969E-14  0.6010518E-02
    1        2.341980      2.340170   1.000000   1.000000
    2        4.708261      4.706330   1.000000   1.000000
    3       19.037783     19.034730   0.000000   0.000000
    4       19.037785     19.034736   0.000000   0.000000
    5       19.750089     19.747272   0.000000   0.000000
    6       19.750091     19.747276   0.000000   0.000000
    7       22.734120     22.731804   0.000000   0.000000
    8       23.571165     23.568356   0.000000   0.000000
    9       32.216212     32.211160   0.000000   0.000000
   10       32.216216     32.211167   0.000000   0.000000
   11       39.009772     39.006595   0.000000   0.000000
   12       39.228796     39.227318   0.000000   0.000000
   13       39.228798     39.227321   0.000000   0.000000
   14       45.815270     45.814933   0.000000   0.000000
   15       49.638321     49.634636   0.000000   0.000000
   16       50.328708     50.326270   0.000000   0.000000
   17       50.328709     50.326271   0.000000   0.000000
   18       54.321893     54.320573   0.000000   0.000000
   19       55.495617     55.495454   0.000000   0.000000
   20       55.644499     55.642902   0.000000   0.000000
   21       55.644506     55.642908   0.000000   0.000000
   22       57.696550     57.695010   0.000000   0.000000
   23       58.087477     58.084953   0.000000   0.000000
   24       58.087480     58.084963   0.000000   0.000000
   25       61.765229     61.762720   0.000000   0.000000
   26       63.685036     63.683646   0.000000   0.000000
   27       64.251409     64.250108   0.000000   0.000000
   28       64.251421     64.250115   0.000000   0.000000
   29       68.974229     68.968321   0.000000   0.000000
   30       73.611785     73.611099   0.000000   0.000000
   31       73.611786     73.611099   0.000000   0.000000
   32       75.534848     75.534259   0.000000   0.000000
   33       75.534852     75.534260   0.000000   0.000000
   34       76.332998     76.333071   0.000000   0.000000
   35       76.878439     76.876313   0.000000   0.000000
   36       80.587208     80.586535   0.000000   0.000000
   37       80.587214     80.586545   0.000000   0.000000
   38       88.603082     88.598704   0.000000   0.000000
   39       88.890712     88.888665   0.000000   0.000000
   40       88.890723     88.888672   0.000000   0.000000
   41       89.219377     89.219646   0.000000   0.000000
   42       94.236877     94.236408   0.000000   0.000000
   43       95.115654     95.113589   0.000000   0.000000
   44       95.115657     95.113592   0.000000   0.000000
   45      101.234052    101.232845   0.000000   0.000000
   46      101.234093    101.232901   0.000000   0.000000
   47      105.147506    105.144801   0.000000   0.000000
   48      105.147514    105.144819   0.000000   0.000000

  0.9090909E-01  0.9090909E-01  0.1262379E-14  0.4507889E-02
    1       -2.852507     -2.854345   1.000000   1.000000
    2       18.632548     18.629955   0.000000   0.000000
    3       18.632550     18.629958   0.000000   0.000000
    4       18.932461     18.931516   0.000000   0.000000
    5       21.328578     21.323275   0.000000   0.000000
    6       24.292906     24.290100   0.000000   0.000000
    7       24.337145     24.332767   0.000000   0.000000
    8       24.337147     24.332773   0.000000   0.000000
    9       26.583603     26.583368   0.000000   0.000000
   10       27.594055     27.590077   0.000000   0.000000
   11       30.594972     30.591525   0.000000   0.000000
   12       32.857612     32.856693   0.000000   0.000000
   13       32.857614     32.856697   0.000000   0.000000
   14       35.567916     35.565617   0.000000   0.000000
   15       42.374965     42.372591   0.000000   0.000000
   16       55.400250     55.398426   0.000000   0.000000
   17       55.400256     55.398430   0.000000   0.000000
   18       55.624339     55.624296   0.000000   0.000000
   19       56.720737     56.719907   0.000000   0.000000
   20       57.629752     57.627401   0.000000   0.000000
   21       57.629756     57.627412   0.000000   0.000000
   22       57.869012     57.867166   0.000000   0.000000
   23       59.427498     59.424553   0.000000   0.000000
   24       62.787709     62.787074   0.000000   0.000000
   25       67.489050     67.485299   0.000000   0.000000
   26       67.489060     67.485306   0.000000   0.000000
   27       70.420340     70.418630   0.000000   0.000000
   28       70.448923     70.446290   0.000000   0.000000
   29       73.483390     73.482331   0.000000   0.000000
   30       73.483391     73.482335   0.000000   0.000000
   31       80.643718     80.641383   0.000000   0.000000
   32       82.604981     82.602814   0.000000   0.000000
   33       82.702653     82.699906   0.000000   0.000000
   34       82.702654     82.699906   0.000000   0.000000
   35       83.423146     83.419752   0.000000   0.000000
   36       84.153086     84.151730   0.000000   0.000000
   37       88.748689     88.751014   0.000000   0.000000
   38       90.097121     90.094668   0.000000   0.000000
   39       90.097128     90.094669   0.000000   0.000000
   40       90.128653     90.126853   0.000000   0.000000
   41       90.128664     90.126859   0.000000   0.000000
   42       92.134849     92.132698   0.000000   0.000000
   43       93.157825     93.152214   0.000000   0.000000
   44       94.425400     94.421024   0.000000   0.000000
   45       94.808191     94.807756   0.000000   0.000000
   46       97.783422     97.782083   0.000000   0.000000
   47       97.811729     97.809999   0.000000   0.000000
   48       97.811779     97.810056   0.000000   0.000000

  0.1818182E+00  0.9090909E-01  0.1261396E-14  0.1803156E-01
    1       -2.331882     -2.333719   1.000000   1.000000
    2       15.296695     15.294716   0.000000   0.000000
    3       17.706291     17.703630   0.000000   0.000000
    4       19.047697     19.045637   0.000000   0.000000
    5       21.665991     21.660769   0.000000   0.000000
    6       22.281441     22.279383   0.000000   0.000000
    7       24.716018     24.712575   0.000000   0.000000
    8       25.737267     25.732497   0.000000   0.000000
    9       27.077934     27.074794   0.000000   0.000000
   10       29.501486     29.499599   0.000000   0.000000
   11       29.952498     29.950372   0.000000   0.000000
   12       34.730949     34.729507   0.000000   0.000000
   13       35.038167     35.036362   0.000000   0.000000
   14       37.876632     37.873870   0.000000   0.000000
   15       44.422918     44.420770   0.000000   0.000000
   16       51.740297     51.737994   0.000000   0.000000
   17       52.843181     52.841018   0.000000   0.000000
   18       55.628131     55.627710   0.000000   0.000000
   19       55.825138     55.823966   0.000000   0.000000
   20       56.442298     56.440993   0.000000   0.000000
   21       57.162237     57.160804   0.000000   0.000000
   22       58.052000     58.049666   0.000000   0.000000
   23       59.465280     59.462642   0.000000   0.000000
   24       62.347983     62.346944   0.000000   0.000000
   25       67.478934     67.476804   0.000000   0.000000
   26       68.434076     68.430443   0.000000   0.000000
   27       71.337631     71.334802   0.000000   0.000000
   28       72.567169     72.565768   0.000000   0.000000
   29       72.603094     72.601445   0.000000   0.000000
   30       74.932089     74.930390   0.000000   0.000000
   31       77.311614     77.308964   0.000000   0.000000
   32       78.445661     78.442168   0.000000   0.000000
   33       80.681665     80.678742   0.000000   0.000000
   34       81.721330     81.719333   0.000000   0.000000
   35       82.505103     82.503422   0.000000   0.000000
   36       84.098934     84.098282   0.000000   0.000000
   37       86.227301     86.225771   0.000000   0.000000
   38       86.287337     86.285266   0.000000   0.000000
   39       89.149012     89.148095   0.000000   0.000000
   40       89.276647     89.275578   0.000000   0.000000
   41       89.800231     89.798710   0.000000   0.000000
   42       91.366342     91.365712   0.000000   0.000000
   43       93.750286     93.748068   0.000000   0.000000
   44       94.436706     94.433244   0.000000   0.000000
   45       94.530924     94.529073   0.000000   0.000000
   46       96.182754     96.181417   0.000000   0.000000
   47       97.037113     97.036786   0.000000   0.000000
   48       97.635424     97.633508   0.000000   0.000000

  0.2727273E+00  0.9090909E-01  0.1266963E-14  0.1803156E-01
    1       -1.370043     -1.371881   1.000000   1.000000
    2       11.821996     11.820049   0.000000   0.000000
    3       17.150037     17.147343   0.000000   0.000000
    4       18.707463     18.705053   0.000000   0.000000
    5       20.016546     20.013433   0.000000   0.000000
    6       23.796286     23.792113   0.000000   0.000000
    7       24.650297     24.647635   0.000000   0.000000
    8       24.758550     24.754798   0.000000   0.000000
    9       28.255116     28.252615   0.000000   0.000000
   10       28.540930     28.537032   0.000000   0.000000
   11       33.056497     33.054708   0.000000   0.000000
   12       38.086200     38.084151   0.000000   0.000000
   13       39.027454     39.025036   0.000000   0.000000
   14       40.881660     40.878590   0.000000   0.000000
   15       47.139998     47.138007   0.000000   0.000000
   16       47.331712     47.329797   0.000000   0.000000
   17       49.092170     49.090044   0.000000   0.000000
   18       53.747107     53.746124   0.000000   0.000000
   19       55.718610     55.718102   0.000000   0.000000
   20       56.435069     56.433884   0.000000   0.000000
   21       57.293195     57.291673   0.000000   0.000000
   22       58.589679     58.587173   0.000000   0.000000
   23       58.768755     58.766862   0.000000   0.000000
   24       62.561259     62.559955   0.000000   0.000000
   25       65.028167     65.025474   0.000000   0.000000
   26       68.798174     68.794465   0.000000   0.000000
   27       68.862854     68.860085   0.000000   0.000000
   28       71.546351     71.545149   0.000000   0.000000
   29       72.029828     72.028856   0.000000   0.000000
   30       73.739445     73.736193   0.000000   0.000000
   31       77.017357     77.014648   0.000000   0.000000
   32       77.143770     77.143201   0.000000   0.000000
   33       78.620510     78.618058   0.000000   0.000000
   34       80.695392     80.694242   0.000000   0.000000
   35       81.027957     81.026070   0.000000   0.000000
   36       81.489835     81.488557   0.000000   0.000000
   37       82.635675     82.634967   0.000000   0.000000
   38       86.763696     86.761745   0.000000   0.000000
   39       86.808674     86.806184   0.000000   0.000000
   40       87.059899     87.058684   0.000000   0.000000
   41       91.037238     91.035580   0.000000   0.000000
   42       92.399896     92.399725   0.000000   0.000000
   43       92.616486     92.614413   0.000000   0.000000
   44       94.160705     94.157503   0.000000   0.000000
   45       94.495431     94.493682   0.000000   0.000000
   46       97.284382     97.283428   0.000000   0.000000
   47       99.752184     99.751133   0.000000   0.000000
   48      100.810247    100.809765   0.000000   0.000000

  0.3636364E+00  0.9090909E-01  0.1237502E-14  0.1803156E-01
    1        0.024252      0.022417   1.000000   1.000000
    2        8.621331      8.619411   0.196702   0.197549
    3       16.970817     16.968090   0.000000   0.000000
    4       18.367054     18.365111   0.000000   0.000000
    5       18.618785     18.615270   0.000000   0.000000
    6       23.299331     23.295957   0.000000   0.000000
    7       24.395049     24.391335   0.000000   0.000000
    8       26.046613     26.043977   0.000000   0.000000
    9       27.217437     27.214460   0.000000   0.000000
   10       30.852570     30.848098   0.000000   0.000000
   11       36.281428     36.279150   0.000000   0.000000
   12       40.874963     40.872403   0.000000   0.000000
   13       43.236889     43.233644   0.000000   0.000000
   14       43.719619     43.716350   0.000000   0.000000
   15       44.221810     44.220463   0.000000   0.000000
   16       46.388970     46.387581   0.000000   0.000000
   17       49.803390     49.801464   0.000000   0.000000
   18       52.293346     52.292908   0.000000   0.000000
   19       55.854231     55.853624   0.000000   0.000000
   20       56.516518     56.515393   0.000000   0.000000
   21       56.884720     56.883028   0.000000   0.000000
   22       57.719341     57.718068   0.000000   0.000000
   23       59.180012     59.177219   0.000000   0.000000
   24       61.792246     61.789152   0.000000   0.000000
   25       63.257015     63.255675   0.000000   0.000000
   26       64.954967     64.951611   0.000000   0.000000
   27       66.465532     66.462447   0.000000   0.000000
   28       70.442721     70.442175   0.000000   0.000000
   29       70.493642     70.492683   0.000000   0.000000
   30       71.375712     71.372017   0.000000   0.000000
   31       72.607270     72.605962   0.000000   0.000000
   32       76.142081     76.141553   0.000000   0.000000
   33       77.168339     77.167422   0.000000   0.000000
   34       78.198753     78.197883   0.000000   0.000000
   35       80.608442     80.607302   0.000000   0.000000
   36       81.550789     81.549331   0.000000   0.000000
   37       83.350962     83.347600   0.000000   0.000000
   38       84.624545     84.623936   0.000000   0.000000
   39       87.294770     87.292945   0.000000   0.000000
   40       88.631185     88.628893   0.000000   0.000000
   41       92.545260     92.544753   0.000000   0.000000
   42       93.607485     93.604849   0.000000   0.000000
   43       93.739492     93.737625   0.000000   0.000000
   44       94.506335     94.504658   0.000000   0.000000
   45       96.196701     96.193950   0.000000   0.000000
   46       98.343941     98.342003   0.000000   0.000000
   47      101.155650    101.155362   0.000000   0.000000
   48      103.294901    103.294553   0.000000   0.000000

  0.4545455E+00  0.9090909E-01  0.1249509E-14  0.1803156E-01
    1        1.838268      1.836444   1.000000   1.000000
    2        5.764826      5.762913   1.045091   1.044837
    3       17.143647     17.141092   0.000000   0.000000
    4       17.171079     17.168304   0.000000   0.000000
    5       18.834616     18.831737   0.000000   0.000000
    6       22.122069     22.118890   0.000000   0.000000
    7       24.645548     24.641267   0.000000   0.000000
    8       25.336491     25.335049   0.000000   0.000000
    9       29.469207     29.465205   0.000000   0.000000
   10       32.733409     32.728048   0.000000   0.000000
   11       39.108351     39.105373   0.000000   0.000000
   12       39.155065     39.153839   0.000000   0.000000
   13       40.669102     40.666901   0.000000   0.000000
   14       47.129469     47.127476   0.000000   0.000000
   15       47.447742     47.445613   0.000000   0.000000
   16       48.749268     48.746697   0.000000   0.000000
   17       49.820249     49.818135   0.000000   0.000000
   18       54.255090     54.253678   0.000000   0.000000
   19       55.120848     55.120095   0.000000   0.000000
   20       55.841699     55.840516   0.000000   0.000000
   21       56.486603     56.485532   0.000000   0.000000
   22       56.874562     56.873494   0.000000   0.000000