       N       E                     dE             d eps       ncg     rms          rms(c)
DAV:   1    -0.366314381979E+01   -0.36631E+01   -0.78254E+02 15936   0.291E+01
DAV:   2    -0.368266073291E+01   -0.19517E-01   -0.19593E-01 11616   0.737E-01
DAV:   3    -0.368266132860E+01   -0.59569E-06   -0.59636E-06 19536   0.374E-03
DAV:   4    -0.368266132839E+01    0.20248E-09   -0.38143E-12 12192   0.137E-06
DAV:   5    -0.368266132847E+01   -0.71097E-10    0.70697E-13 16608   0.152E-09    0.176E+00
RMM:   6    -0.375429088923E+01   -0.71630E-01   -0.24870E-03 10756   0.762E-02    0.832E-01
RMM:   7    -0.374586817991E+01    0.84227E-02   -0.10117E-03 11177   0.465E-02    0.676E-01
RMM:   8    -0.374581141400E+01    0.56766E-04   -0.21154E-04 11104   0.236E-02    0.218E-01
RMM:   9    -0.374581405812E+01   -0.26441E-05   -0.29992E-05 11592   0.826E-03
   1 F= -.37458141E+01 E0= -.37458141E+01  d E =0.000000E+00  mag=     0.0016
