    1    1    1    2
  0.1658294E+02  0.2862368E-09  0.2862368E-09  0.2862368E-09  0.5000000E-15
   1.0000000000000000E-004
  CAR 
 unknown system                          
      3    256     48

  0.1262379E-14  0.1262379E-14  0.1262379E-14  0.1250000E-03
    1       -3.152055     -3.152990   1.000000   1.000000
    2       20.539426     20.538951   0.000000   0.000000
    3       20.539426     20.538951   0.000000   0.000000
    4       20.539426     20.538951   0.000000   0.000000
    5       21.994474     21.989967   0.000000   0.000000
    6       21.994474     21.989967   0.000000   0.000000
    7       21.994474     21.989967   0.000000   0.000000
    8       24.375987     24.376688   0.000000   0.000000
    9       27.314078     27.311221   0.000000   0.000000
   10       27.314078     27.311221   0.000000   0.000000
   11       30.160853     30.158754   0.000000   0.000000
   12       32.510655     32.510497   0.000000   0.000000
   13       32.510655     32.510497   0.000000   0.000000
   14       32.510655     32.510498   0.000000   0.000000
   15       41.062097     41.059800   0.000000   0.000000
   16       56.021633     56.020327   0.000000   0.000000
   17       56.021633     56.020328   0.000000   0.000000
   18       56.021633     56.020328   0.000000   0.000000
   19       56.058132     56.057993   0.000000   0.000000
   20       59.213835     59.211606   0.000000   0.000000
   21       59.213835     59.211606   0.000000   0.000000
   22       59.213835     59.211607   0.000000   0.000000
   23       62.833237     62.833604   0.000000   0.000000
   24       62.833237     62.833604   0.000000   0.000000
   25       65.076521     65.073519   0.000000   0.000000
   26       65.076521     65.073519   0.000000   0.000000
   27       65.076521     65.073520   0.000000   0.000000
   28       73.177519     73.177017   0.000000   0.000000
   29       73.177519     73.177017   0.000000   0.000000
   30       73.177519     73.177018   0.000000   0.000000
   31       80.818694     80.818321   0.000000   0.000000
   32       83.078202     83.077110   0.000000   0.000000
   33       83.078202     83.077110   0.000000   0.000000
   34       87.205828     87.206416   0.000000   0.000000
   35       87.205828     87.206416   0.000000   0.000000
   36       87.205828     87.206418   0.000000   0.000000
   37       90.088158     90.082861   0.000000   0.000000
   38       90.088158     90.082862   0.000000   0.000000
   39       90.088159     90.082862   0.000000   0.000000
   40       90.896368     90.889631   0.000000   0.000000
   41       93.459837     93.460525   0.000000   0.000000
   42       93.459838     93.460525   0.000000   0.000000
   43       93.459838     93.460525   0.000000   0.000000
   44       93.934384     93.931768   0.000000   0.000000
   45       93.934384     93.931768   0.000000   0.000000
   46       93.934384     93.931768   0.000000   0.000000
   47       96.373290     96.374534   0.000000   0.000000
   48       96.373290     96.374659   0.000000   0.000000

  0.5000000E-01  0.1264436E-14  0.1262879E-14  0.1000000E-02
    1       -3.084309     -3.085244   1.000000   1.000000
    2       19.229722     19.228543   0.000000   0.000000
    3       20.271910     20.270871   0.000000   0.000000
    4       20.271910     20.270871   0.000000   0.000000
    5       22.367589     22.363602   0.000000   0.000000
    6       22.367589     22.363603   0.000000   0.000000
    7       22.537529     22.534134   0.000000   0.000000
    8       25.094374     25.094699   0.000000   0.000000
    9       26.910114     26.907533   0.000000   0.000000
   10       26.910114     26.907533   0.000000   0.000000
   11       29.903559     29.901618   0.000000   0.000000
   12       32.862990     32.862580   0.000000   0.000000
   13       33.050343     33.049938   0.000000   0.000000
   14       33.050343     33.049939   0.000000   0.000000
   15       41.337317     41.335076   0.000000   0.000000
   16       55.707244     55.706490   0.000000   0.000000
   17       55.958548     55.957240   0.000000   0.000000
   18       55.958548     55.957240   0.000000   0.000000
   19       56.256881     56.256167   0.000000   0.000000
   20       58.480175     58.477951   0.000000   0.000000
   21       58.480175     58.477951   0.000000   0.000000
   22       59.221370     59.219167   0.000000   0.000000
   23       61.961422     61.961103   0.000000   0.000000
   24       61.961423     61.961104   0.000000   0.000000
   25       65.137334     65.134319   0.000000   0.000000
   26       66.806885     66.804598   0.000000   0.000000
   27       66.806885     66.804598   0.000000   0.000000
   28       72.583245     72.582817   0.000000   0.000000
   29       73.114545     73.113974   0.000000   0.000000
   30       73.114546     73.113975   0.000000   0.000000
   31       81.511562     81.511172   0.000000   0.000000
   32       82.722445     82.721209   0.000000   0.000000
   33       82.722445     82.721210   0.000000   0.000000
   34       85.583796     85.582039   0.000000   0.000000
   35       86.664258     86.664521   0.000000   0.000000
   36       86.664258     86.664521   0.000000   0.000000
   37       89.351518     89.348119   0.000000   0.000000
   38       89.351518     89.348120   0.000000   0.000000
   39       90.316644     90.310916   0.000000   0.000000
   40       91.049334     91.048588   0.000000   0.000000
   41       91.885132     91.882438   0.000000   0.000000
   42       92.291539     92.291003   0.000000   0.000000
   43       92.291539     92.291004   0.000000   0.000000
   44       95.188374     95.189140   0.000000   0.000000
   45       95.188374     95.189140   0.000000   0.000000
   46       95.500278     95.498863   0.000000   0.000000
   47       95.500278     95.498864   0.000000   0.000000
   48       96.490354     96.489182   0.000000   0.000000

  0.1000000E+00  0.1265938E-14  0.1262879E-14  0.1000000E-02
    1       -2.881258     -2.882193   1.000000   1.000000
    2       17.251038     17.249816   0.000000   0.000000
    3       19.808788     19.807293   0.000000   0.000000
    4       19.808788     19.807293   0.000000   0.000000
    5       22.662510     22.659871   0.000000   0.000000
    6       23.129741     23.126030   0.000000   0.000000
    7       23.129741     23.126031   0.000000   0.000000
    8       26.028781     26.026707   0.000000   0.000000
    9       26.028781     26.026708   0.000000   0.000000
   10       26.812684     26.812378   0.000000   0.000000
   11       29.276307     29.274539   0.000000   0.000000
   12       33.816079     33.815244   0.000000   0.000000
   13       34.354082     34.353298   0.000000   0.000000
   14       34.354083     34.353298   0.000000   0.000000
   15       42.109633     42.107540   0.000000   0.000000
   16       55.182212     55.181453   0.000000   0.000000
   17       55.372555     55.371076   0.000000   0.000000
   18       55.372556     55.371076   0.000000   0.000000
   19       56.384752     56.383996   0.000000   0.000000
   20       56.954320     56.952457   0.000000   0.000000
   21       56.954320     56.952458   0.000000   0.000000
   22       59.196637     59.194509   0.000000   0.000000
   23       61.554424     61.553801   0.000000   0.000000
   24       61.554424     61.553802   0.000000   0.000000
   25       65.319318     65.316262   0.000000   0.000000
   26       69.399187     69.397147   0.000000   0.000000
   27       69.399187     69.397147   0.000000   0.000000
   28       71.270353     71.270017   0.000000   0.000000
   29       72.945730     72.944916   0.000000   0.000000
   30       72.945730     72.944917   0.000000   0.000000
   31       81.558993     81.557421   0.000000   0.000000
   32       81.558993     81.557421   0.000000   0.000000
   33       82.174833     82.173419   0.000000   0.000000
   34       84.113774     84.111696   0.000000   0.000000
   35       85.569622     85.570231   0.000000   0.000000
   36       85.569622     85.570231   0.000000   0.000000
   37       87.689652     87.688266   0.000000   0.000000
   38       87.689652     87.688267   0.000000   0.000000
   39       88.564557     88.563829   0.000000   0.000000
   40       90.021022     90.015710   0.000000   0.000000
   41       91.119449     91.118280   0.000000   0.000000
   42       91.119449     91.118281   0.000000   0.000000
   43       92.788350     92.787987   0.000000   0.000000
   44       94.216641     94.218150   0.000000   0.000000
   45       95.839809     95.841145   0.000000   0.000000
   46       95.839809     95.841145   0.000000   0.000000
   47       97.444130     97.441286   0.000000   0.000000
   48       97.444130     97.441287   0.000000   0.000000

  0.1500000E+00  0.1270243E-14  0.1276756E-14  0.1000000E-02
    1       -2.543492     -2.544427   1.000000   1.000000
    2       15.233830     15.232655   0.000000   0.000000
    3       19.384313     19.382610   0.000000   0.000000
    4       19.384313     19.382611   0.000000   0.000000
    5       22.540034     22.537742   0.000000   0.000000
    6       23.867029     23.863090   0.000000   0.000000
    7       23.867029     23.863091   0.000000   0.000000
    8       25.220563     25.219127   0.000000   0.000000
    9       25.220563     25.219127   0.000000   0.000000
   10       28.459506     28.457807   0.000000   0.000000
   11       28.754425     28.753810   0.000000   0.000000
   12       35.270663     35.269424   0.000000   0.000000
   13       36.042695     36.041614   0.000000   0.000000
   14       36.042695     36.041614   0.000000   0.000000
   15       43.263439     43.261556   0.000000   0.000000
   16       53.296349     53.294705   0.000000   0.000000
   17       53.296349     53.294706   0.000000   0.000000
   18       54.445708     54.444957   0.000000   0.000000
   19       56.469801     56.468294   0.000000   0.000000
   20       56.469801     56.468294   0.000000   0.000000
   21       56.488160     56.487350   0.000000   0.000000
   22       59.052155     59.050167   0.000000   0.000000
   23       61.599122     61.598343   0.000000   0.000000
   24       61.599122     61.598344   0.000000   0.000000
   25       65.618393     65.615263   0.000000   0.000000
   26       69.805153     69.804745   0.000000   0.000000
   27       71.225194     71.223610   0.000000   0.000000
   28       71.225194     71.223611   0.000000   0.000000
   29       73.128343     73.126925   0.000000   0.000000
   30       73.128343     73.126927   0.000000   0.000000
   31       79.863525     79.861920   0.000000   0.000000
   32       79.863526     79.861920   0.000000   0.000000
   33       80.166153     80.163234   0.000000   0.000000
   34       84.002500     84.003731   0.000000   0.000000
   35       84.002500     84.003731   0.000000   0.000000
   36       85.832018     85.830934   0.000000   0.000000
   37       86.226695     86.226063   0.000000   0.000000
   38       86.683117     86.682211   0.000000   0.000000
   39       86.683117     86.682211   0.000000   0.000000
   40       88.800328     88.800532   0.000000   0.000000
   41       89.659110     89.654634   0.000000   0.000000
   42       90.340370     90.338992   0.000000   0.000000
   43       90.340370     90.338993   0.000000   0.000000
   44       94.024660     94.026235   0.000000   0.000000
   45       96.944278     96.945276   0.000000   0.000000
   46       96.944279     96.945276   0.000000   0.000000
   47       98.783765     98.781876   0.000000   0.000000
   48       98.783765     98.781877   0.000000   0.000000

  0.2000000E+00  0.1261337E-14  0.1262879E-14  0.1000000E-02
    1       -2.071985     -2.072921   1.000000   1.000000
    2       13.265768     13.264640   0.000000   0.000000
    3       19.049896     19.048086   0.000000   0.000000
    4       19.049896     19.048086   0.000000   0.000000
    5       22.379173     22.377076   0.000000   0.000000
    6       23.540920     23.537948   0.000000   0.000000
    7       23.540920     23.537948   0.000000   0.000000
    8       25.625506     25.623305   0.000000   0.000000
    9       25.625506     25.623305   0.000000   0.000000
   10       27.561077     27.559378   0.000000   0.000000
   11       30.664468     30.663672   0.000000   0.000000
   12       37.167059     37.165438   0.000000   0.000000
   13       37.943569     37.942241   0.000000   0.000000
   14       37.943569     37.942242   0.000000   0.000000
   15       44.686635     44.685005   0.000000   0.000000
   16       50.797565     50.796049   0.000000   0.000000
   17       50.797565     50.796049   0.000000   0.000000
   18       53.521660     53.520966   0.000000   0.000000
   19       56.388903     56.387462   0.000000   0.000000
   20       56.388903     56.387462   0.000000   0.000000
   21       56.595478     56.594598   0.000000   0.000000
   22       58.728332     58.726566   0.000000   0.000000
   23       61.806692     61.805800   0.000000   0.000000
   24       61.806692     61.805801   0.000000   0.000000
   25       66.029812     66.026567   0.000000   0.000000
   26       68.384043     68.383280   0.000000   0.000000
   27       70.658291     70.656592   0.000000   0.000000
   28       70.658292     70.656592   0.000000   0.000000
   29       74.348958     74.347863   0.000000   0.000000
   30       74.348958     74.347865   0.000000   0.000000
   31       78.164641     78.161354   0.000000   0.000000
   32       78.728095     78.726647   0.000000   0.000000
   33       78.728095     78.726648   0.000000   0.000000
   34       82.136282     82.137368   0.000000   0.000000
   35       82.136282     82.137369   0.000000   0.000000
   36       84.047392     84.046894   0.000000   0.000000
   37       84.117991     84.118820   0.000000   0.000000
   38       86.673898     86.673321   0.000000   0.000000
   39       86.673898     86.673322   0.000000   0.000000
   40       88.156589     88.155893   0.000000   0.000000
   41       89.395189     89.390626   0.000000   0.000000
   42       89.872102     89.870651   0.000000   0.000000
   43       89.872102     89.870652   0.000000   0.000000
   44       93.751342     93.752701   0.000000   0.000000
   45       97.334700     97.334771   0.000000   0.000000
   46       97.334700     97.334771   0.000000   0.000000
   47      100.018902    100.018698   0.000000   0.000000
   48      100.018902    100.018698   0.000000   0.000000

  0.2500000E+00  0.1266142E-14  0.1262879E-14  0.1000000E-02
    1       -1.468011     -1.468947   1.000000   1.000000
    2       11.376888     11.375797   0.000000   0.000000
    3       18.819732     18.817858   0.000000   0.000000
    4       18.819732     18.817858   0.000000   0.000000
    5       22.256357     22.254392   0.000000   0.000000
    6       22.658078     22.655626   0.000000   0.000000
    7       22.658078     22.655626   0.000000   0.000000
    8       26.650837     26.649120   0.000000   0.000000
    9       26.774220     26.771570   0.000000   0.000000
   10       26.774220     26.771570   0.000000   0.000000
   11       32.500218     32.499240   0.000000   0.000000
   12       39.413336     39.411337   0.000000   0.000000
   13       39.950041     39.948451   0.000000   0.000000
   14       39.950041     39.948451   0.000000   0.000000
   15       46.283307     46.281958   0.000000   0.000000
   16       48.375615     48.374343   0.000000   0.000000
   17       48.375615     48.374343   0.000000   0.000000
   18       52.429615     52.429069   0.000000   0.000000
   19       56.370684     56.369262   0.000000   0.000000
   20       56.370685     56.369262   0.000000   0.000000
   21       56.722537     56.721572   0.000000   0.000000
   22       58.223507     58.222020   0.000000   0.000000
   23       62.066295     62.065253   0.000000   0.000000
   24       62.066296     62.065254   0.000000   0.000000
   25       66.543508     66.540098   0.000000   0.000000
   26       66.982775     66.981360   0.000000   0.000000
   27       68.865207     68.863324   0.000000   0.000000
   28       68.865207     68.863324   0.000000   0.000000
   29       74.535359     74.535101   0.000000   0.000000
   30       74.535360     74.535102   0.000000   0.000000
   31       76.540145     76.536746   0.000000   0.000000
   32       79.034855     79.033979   0.000000   0.000000
   33       79.034856     79.033979   0.000000   0.000000
   34       79.955553     79.956832   0.000000   0.000000
   35       80.433311     80.433685   0.000000   0.000000
   36       80.433311     80.433686   0.000000   0.000000
   37       82.036645     82.036334   0.000000   0.000000
   38       87.496583     87.495969   0.000000   0.000000
   39       87.496583     87.495972   0.000000   0.000000
   40       88.807796     88.804945   0.000000   0.000000
   41       89.585104     89.583651   0.000000   0.000000
   42       89.585106     89.583654   0.000000   0.000000
   43       90.500506     90.498643   0.000000   0.000000
   44       93.171346     93.172347   0.000000   0.000000
   45       97.397534     97.397184   0.000000   0.000000
   46       97.397550     97.397219   0.000000   0.000000
   47      101.374375    101.373959   0.000000   0.000000
   48      101.697309    101.697626   0.000000   0.000000

  0.3000000E+00  0.1228980E-14  0.1221245E-14  0.1000000E-02
    1       -0.733230     -0.734166   1.000000   1.000000
    2        9.581811      9.580749  -0.001874  -0.001915
    3       18.699012     18.697092   0.000000   0.000000
    4       18.699012     18.697092   0.000000   0.000000
    5       21.795386     21.793149   0.000000   0.000000
    6       21.795386     21.793149   0.000000   0.000000
    7       22.210159     22.208295   0.000000   0.000000
    8       25.775167     25.773421   0.000000   0.000000
    9       28.095146     28.092252   0.000000   0.000000
   10       28.095146     28.092252   0.000000   0.000000
   11       34.274355     34.273156   0.000000   0.000000
   12       41.812694     41.810702   0.000000   0.000000
   13       41.812694     41.810702   0.000000   0.000000
   14       41.879185     41.876801   0.000000   0.000000
   15       46.342737     46.341912   0.000000   0.000000
   16       46.342737     46.341912   0.000000   0.000000
   17       47.871438     47.870324   0.000000   0.000000
   18       51.354280     51.354073   0.000000   0.000000
   19       56.349691     56.348280   0.000000   0.000000
   20       56.349692     56.348280   0.000000   0.000000
   21       56.861861     56.860800   0.000000   0.000000
   22       57.533731     57.532503   0.000000   0.000000
   23       62.230006     62.228636   0.000000   0.000000
   24       62.230007     62.228637   0.000000   0.000000
   25       65.542449     65.540259   0.000000   0.000000
   26       66.555116     66.553550   0.000000   0.000000
   27       66.555116     66.553550   0.000000   0.000000
   28       67.140800     67.137151   0.000000   0.000000
   29       74.188626     74.188651   0.000000   0.000000
   30       74.188627     74.188651   0.000000   0.000000
   31       74.318180     74.316291   0.000000   0.000000
   32       77.188437     77.188656   0.000000   0.000000
   33       78.560307     78.561316   0.000000   0.000000
   34       78.560308     78.561316   0.000000   0.000000
   35       80.067255     80.066089   0.000000   0.000000
   36       80.067260     80.066090   0.000000   0.000000
   37       80.212271     80.212214   0.000000   0.000000
   38       88.659774     88.656593   0.000000   0.000000
   39       89.165531     89.164570   0.000000   0.000000
   40       89.165532     89.164570   0.000000   0.000000
   41       89.389411     89.388054   0.000000   0.000000
   42       89.389422     89.388056   0.000000   0.000000
   43       91.309560     91.309666   0.000000   0.000000
   44       93.276138     93.275899   0.000000   0.000000
   45       97.765885     97.765251   0.000000   0.000000
   46       97.765899     97.765260   0.000000   0.000000
   47      101.588761    101.587667   0.000000   0.000000
   48      103.222616    103.223011   0.000000   0.000000

  0.3500000E+00  0.1234285E-14  0.1221245E-14  0.1000000E-02
    1        0.130368      0.129432   1.000000   1.000000
    2        7.889250      7.888209   0.559303   0.560122
    3       18.690070     18.688108   0.000000   0.000000
    4       18.690070     18.688108   0.000000   0.000000
    5       21.021155     21.019046   0.000000   0.000000
    6       21.021155     21.019046   0.000000   0.000000
    7       22.262267     22.260488   0.000000   0.000000
    8       24.965150     24.963364   0.000000   0.000000
    9       29.500094     29.496936   0.000000   0.000000
   10       29.500094     29.496937   0.000000   0.000000
   11       35.990489     35.988997   0.000000   0.000000
   12       42.214544     42.212544   0.000000   0.000000
   13       42.214544     42.212545   0.000000   0.000000
   14       44.388150     44.385425   0.000000   0.000000
   15       46.044431     46.043735   0.000000   0.000000
   16       46.044432     46.043735   0.000000   0.000000
   17       48.481988     48.481113   0.000000   0.000000
   18       51.368267     51.368484   0.000000   0.000000
   19       56.306468     56.305071   0.000000   0.000000
   20       56.306469     56.305072   0.000000   0.000000
   21       56.671755     56.670661   0.000000   0.000000
   22       57.019126     57.017970   0.000000   0.000000
   23       61.741025     61.738906   0.000000   0.000000
   24       61.741025     61.738907   0.000000   0.000000
   25       64.117852     64.115036   0.000000   0.000000
   26       64.665048     64.664351   0.000000   0.000000
   27       64.665048     64.664352   0.000000   0.000000
   28       67.788975     67.784998   0.000000   0.000000
   29       70.699541     70.699225   0.000000   0.000000
   30       73.893914     73.893996   0.000000   0.000000
   31       73.893916     73.893998   0.000000   0.000000
   32       76.573150     76.572200   0.000000   0.000000
   33       77.280458     77.281230   0.000000   0.000000
   34       77.280459     77.281231   0.000000   0.000000
   35       78.610484     78.610768   0.000000   0.000000
   36       80.390241     80.389681   0.000000   0.000000
   37       80.390241     80.389683   0.000000   0.000000
   38       88.556300     88.553096   0.000000   0.000000
   39       89.171715     89.170393   0.000000   0.000000
   40       89.171722     89.170393   0.000000   0.000000
   41       90.687974     90.688725   0.000000   0.000000
   42       91.402342     91.401187   0.000000   0.000000
   43       91.402342     91.401187   0.000000   0.000000
   44       94.102447     94.102143   0.000000   0.000000
   45       98.633455     98.632534   0.000000   0.000000
   46       98.633476     98.632547   0.000000   0.000000
   47      102.065428    102.063654   0.000000   0.000000
   48      104.026375    104.026544   0.000000   0.000000

  0.4000000E+00  0.1224712E-14  0.1221245E-14  0.1000000E-02
    1        1.120480      1.119547   1.000000   1.000000
    2        6.305162      6.304133   1.000000   1.000000
    3       18.794042     18.792030   0.000000   0.000000
    4       18.794042     18.792030   0.000000   0.000000
    5       20.351763     20.349754   0.000000   0.000000
    6       20.351763     20.349754   0.000000   0.000000
    7       22.424574     22.422887   0.000000   0.000000
    8       24.241923     24.240077   0.000000   0.000000
    9       30.907886     30.904353   0.000000   0.000000
   10       30.907886     30.904353   0.000000   0.000000
   11       37.598222     37.596322   0.000000   0.000000
   12       40.780995     40.779722   0.000000   0.000000
   13       40.780995     40.779722   0.000000   0.000000
   14       46.338665     46.336805   0.000000   0.000000
   15       47.892927     47.891743   0.000000   0.000000
   16       47.892927     47.891743   0.000000   0.000000
   17       48.000233     47.998756   0.000000   0.000000
   18       53.136950     53.137305   0.000000   0.000000
   19       55.612571     55.611453   0.000000   0.000000
   20       56.162157     56.160791   0.000000   0.000000
   21       56.162157     56.160791   0.000000   0.000000
   22       57.214078     57.212836   0.000000   0.000000
   23       59.896619     59.894350   0.000000   0.000000
   24       59.896619     59.894350   0.000000   0.000000
   25       62.862120     62.859072   0.000000   0.000000
   26       64.172128     64.171713   0.000000   0.000000
   27       64.172128     64.171714   0.000000   0.000000
   28       67.006651     67.006789   0.000000   0.000000
   29       68.422933     68.418525   0.000000   0.000000
   30       73.704423     73.704527   0.000000   0.000000
   31       73.704424     73.704530   0.000000   0.000000
   32       76.246205     76.246805   0.000000   0.000000
   33       76.246205     76.246805   0.000000   0.000000
   34       76.640229     76.639043   0.000000   0.000000
   35       77.295347     77.296071   0.000000   0.000000
   36       80.513338     80.513174   0.000000   0.000000
   37       80.513338     80.513176   0.000000   0.000000
   38       88.529241     88.526039   0.000000   0.000000
   39       89.003814     89.002560   0.000000   0.000000
   40       89.003822     89.002557   0.000000   0.000000
   41       89.897003     89.897845   0.000000   0.000000
   42       93.521216     93.520047   0.000000   0.000000
   43       93.521217     93.520051   0.000000   0.000000
   44       94.343592     94.343608   0.000000   0.000000
   45       99.994683     99.993677   0.000000   0.000000
   46       99.994867     99.993752   0.000000   0.000000
   47      103.406573    103.404446   0.000000   0.000000
   48      104.157382    104.156977   0.000000   0.000000

  0.4500000E+00  0.1229684E-14  0.1221245E-14  0.1000000E-02
    1        2.233774      2.232860   1.000000   1.000000
    2        4.834832      4.833792   1.000000   1.000000
    3       19.011093     19.008980   0.000000   0.000000
    4       19.011093     19.008980   0.000000   0.000000
    5       19.793644     19.791762   0.000000   0.000000
    6       19.793644     19.791762   0.000000   0.000000
    7       22.701962     22.700439   0.000000   0.000000
    8       23.620673     23.618678   0.000000   0.000000
    9       32.124723     32.120647   0.000000   0.000000
   10       32.124723     32.120647   0.000000   0.000000
   11       38.915520     38.913070   0.000000   0.000000
   12       39.328723     39.328123   0.000000   0.000000
   13       39.328723     39.328123   0.000000   0.000000
   14       45.884375     45.884617   0.000000   0.000000
   15       49.472539     49.469316   0.000000   0.000000
   16       50.129486     50.128008   0.000000   0.000000
   17       50.129486     50.128008   0.000000   0.000000
   18       54.307005     54.305728   0.000000   0.000000
   19       55.300253     55.300482   0.000000   0.000000
   20       55.564019     55.562687   0.000000   0.000000
   21       55.564019     55.562687   0.000000   0.000000
   22       57.588072     57.586942   0.000000   0.000000
   23       58.056451     58.054396   0.000000   0.000000
   24       58.056451     58.054397   0.000000   0.000000
   25       61.780571     61.778408   0.000000   0.000000
   26       63.845886     63.845488   0.000000   0.000000
   27       64.223505     64.223025   0.000000   0.000000
   28       64.223506     64.223026   0.000000   0.000000
   29       68.923220     68.918353   0.000000   0.000000
   30       73.606425     73.606559   0.000000   0.000000
   31       73.606425     73.606559   0.000000   0.000000
   32       75.570443     75.570926   0.000000   0.000000
   33       75.570443     75.570926   0.000000   0.000000
   34       76.386177     76.387366   0.000000   0.000000
   35       76.848065     76.846802   0.000000   0.000000
   36       80.539364     80.539408   0.000000   0.000000
   37       80.539365     80.539410   0.000000   0.000000
   38       88.582896     88.579514   0.000000   0.000000
   39       88.886615     88.885393   0.000000   0.000000
   40       88.886615     88.885395   0.000000   0.000000
   41       89.254161     89.255200   0.000000   0.000000
   42       94.216302     94.216494   0.000000   0.000000
   43       95.006606     95.005501   0.000000   0.000000
   44       95.006607     95.005501   0.000000   0.000000
   45      101.140637    101.140303   0.000000   0.000000
   46      101.140638    101.140304   0.000000   0.000000
   47      104.963105    104.961508   0.000000   0.000000
   48      104.963107    104.961511   0.000000   0.000000

  0.5000000E+00  0.1247534E-14  0.1249001E-14  0.5000000E-03
    1        3.374520      3.374227   1.000000   1.000000
    2        3.574995      3.573338   1.000000   1.000000
    3       19.304855     19.301443   0.000000   0.000000
    4       19.304855     19.301443   0.000000   0.000000
    5       19.385996     19.385421   0.000000   0.000000
    6       19.385996     19.385421   0.000000   0.000000
    7       23.042197     23.042428   0.000000   0.000000
    8       23.164738     23.160995   0.000000   0.000000
    9       32.670999     32.666538   0.000000   0.000000
   10       32.670999     32.666539   0.000000   0.000000
   11       38.689079     38.688897   0.000000   0.000000
   12       38.689079     38.688897   0.000000   0.000000
   13       39.485072     39.482258   0.000000   0.000000
   14       45.404432     45.405161   0.000000   0.000000
   15       50.568257     50.564649   0.000000   0.000000
   16       51.534357     51.532674   0.000000   0.000000
   17       51.534357     51.532674   0.000000   0.000000
   18       53.502525     53.501351   0.000000   0.000000
   19       54.652339     54.651061   0.000000   0.000000
   20       54.652339     54.651061   0.000000   0.000000
   21       56.249010     56.248572   0.000000   0.000000
   22       57.503343     57.501442   0.000000   0.000000