       N       E                     dE             d eps       ncg     rms          rms(c)
DAV:   1    -0.363011092774E+01   -0.36301E+01   -0.86730E+02 70176   0.339E+01
DAV:   2    -0.368243789838E+01   -0.52327E-01   -0.52360E-01 62928   0.110E+00
DAV:   3    -0.368244037488E+01   -0.24765E-05   -0.24820E-05 74688   0.695E-03
DAV:   4    -0.368244037416E+01    0.71466E-09   -0.12828E-10 70368   0.104E-05
DAV:   5    -0.368244037517E+01   -0.10104E-08   -0.13931E-14 71472   0.414E-09    0.173E+00
RMM:   6    -0.375395902636E+01   -0.71519E-01   -0.23611E-03 49162   0.760E-02    0.819E-01
RMM:   7    -0.374536438638E+01    0.85946E-02   -0.87383E-04 51335   0.438E-02    0.657E-01
RMM:   8    -0.374505515073E+01    0.30924E-03   -0.18804E-04 50947   0.233E-02    0.201E-01
RMM:   9    -0.374503232549E+01    0.22825E-04   -0.25374E-05 53327   0.773E-03
   1 F= -.37450323E+01 E0= -.37450323E+01  d E =0.000000E+00  mag=     0.0011
