   1   1   1   0
  0.1658294E+02  0.2862368E-09  0.2862368E-09  0.2862368E-09  0.5000000E-15
   1.0000000000000000E-004
  CAR 
 unknown system                          
    115.40092722     -8.79835683  301      7.98011987      1.00000000
     -8.798  0.0000E+00  0.0000E+00  0.0000E+00  0.0000E+00
     -8.384  0.0000E+00  0.0000E+00  0.0000E+00  0.0000E+00
     -7.970  0.0000E+00  0.0000E+00  0.0000E+00  0.0000E+00
     -7.556  0.0000E+00  0.0000E+00  0.0000E+00  0.0000E+00
     -7.142  0.0000E+00  0.0000E+00  0.0000E+00  0.0000E+00
     -6.728  0.0000E+00  0.0000E+00  0.0000E+00  0.0000E+00
     -6.314  0.0000E+00  0.0000E+00  0.0000E+00  0.0000E+00
     -5.900  0.0000E+00  0.0000E+00  0.0000E+00  0.0000E+00
     -5.486  0.0000E+00  0.0000E+00  0.0000E+00  0.0000E+00
     -5.072  0.0000E+00  0.0000E+00  0.0000E+00  0.0000E+00
     -4.658  0.0000E+00  0.0000E+00  0.0000E+00  0.0000E+00
     -4.244  0.0000E+00  0.0000E+00  0.0000E+00  0.0000E+00
     -3.830  0.0000E+00  0.0000E+00  0.0000E+00  0.0000E+00
     -3.416  0.0000E+00  0.0000E+00  0.0000E+00  0.0000E+00
     -3.002  0.2077E-01  0.2087E-01  0.1585E-02  0.1609E-02
     -2.588  0.4315E-01  0.4322E-01  0.1499E-01  0.1505E-01
     -2.174  0.5724E-01  0.5729E-01  0.3564E-01  0.3572E-01
     -1.760  0.6805E-01  0.6808E-01  0.6160E-01  0.6168E-01
     -1.346  0.7800E-01  0.7802E-01  0.9205E-01  0.9215E-01
     -0.932  0.8765E-01  0.8768E-01  0.1263E+00  0.1264E+00
     -0.518  0.9522E-01  0.9525E-01  0.1642E+00  0.1643E+00
     -0.104  0.1037E+00  0.1037E+00  0.2053E+00  0.2055E+00
      0.310  0.1103E+00  0.1103E+00  0.2496E+00  0.2497E+00
      0.724  0.1177E+00  0.1177E+00  0.2968E+00  0.2969E+00
      1.138  0.1240E+00  0.1240E+00  0.3468E+00  0.3470E+00
      1.552  0.1305E+00  0.1305E+00  0.3995E+00  0.3997E+00
      1.966  0.1371E+00  0.1371E+00  0.4549E+00  0.4551E+00
      2.380  0.1430E+00  0.1430E+00  0.5129E+00  0.5130E+00
      2.794  0.1531E+00  0.1531E+00  0.5738E+00  0.5740E+00
      3.208  0.1704E+00  0.1703E+00  0.6420E+00  0.6422E+00
      3.622  0.1554E+00  0.1553E+00  0.7088E+00  0.7090E+00
      4.036  0.1536E+00  0.1536E+00  0.7718E+00  0.7720E+00
      4.450  0.1841E+00  0.1838E+00  0.8421E+00  0.8424E+00
      4.864  0.1964E+00  0.1965E+00  0.9166E+00  0.9168E+00
      5.278  0.1896E+00  0.1895E+00  0.9981E+00  0.9984E+00
      5.692  0.1956E+00  0.1958E+00  0.1075E+01  0.1075E+01
      6.106  0.1630E+00  0.1631E+00  0.1147E+01  0.1147E+01
      6.520  0.1655E+00  0.1657E+00  0.1216E+01  0.1216E+01
      6.934  0.2075E+00  0.2079E+00  0.1292E+01  0.1292E+01
      7.348  0.2091E+00  0.2089E+00  0.1382E+01  0.1382E+01
      7.762  0.1787E+00  0.1788E+00  0.1461E+01  0.1462E+01
      8.176  0.1993E+00  0.1993E+00  0.1537E+01  0.1537E+01
      8.590  0.2184E+00  0.2184E+00  0.1625E+01  0.1626E+01
      9.004  0.2207E+00  0.2206E+00  0.1716E+01  0.1717E+01
      9.418  0.2100E+00  0.2100E+00  0.1805E+01  0.1806E+01
      9.832  0.2161E+00  0.2162E+00  0.1893E+01  0.1893E+01
     10.246  0.2343E+00  0.2343E+00  0.1986E+01  0.1986E+01
     10.660  0.2304E+00  0.2305E+00  0.2082E+01  0.2082E+01
     11.074  0.2379E+00  0.2379E+00  0.2179E+01  0.2179E+01
     11.488  0.2384E+00  0.2384E+00  0.2278E+01  0.2278E+01
     11.902  0.2491E+00  0.2492E+00  0.2378E+01  0.2378E+01
     12.316  0.2510E+00  0.2511E+00  0.2482E+01  0.2482E+01
     12.730  0.2658E+00  0.2659E+00  0.2587E+01  0.2588E+01
     13.144  0.2817E+00  0.2818E+00  0.2701E+01  0.2701E+01
     13.558  0.3259E+00  0.3262E+00  0.2821E+01  0.2822E+01
     13.972  0.2922E+00  0.2922E+00  0.2944E+01  0.2945E+01
     14.386  0.2767E+00  0.2766E+00  0.3062E+01  0.3062E+01
     14.800  0.2644E+00  0.2643E+00  0.3174E+01  0.3175E+01
     15.214  0.2656E+00  0.2657E+00  0.3283E+01  0.3284E+01
     15.628  0.2641E+00  0.2641E+00  0.3393E+01  0.3394E+01
     16.041  0.2626E+00  0.2626E+00  0.3502E+01  0.3503E+01
     16.455  0.2654E+00  0.2654E+00  0.3612E+01  0.3612E+01
     16.869  0.2631E+00  0.2631E+00  0.3721E+01  0.3722E+01
     17.283  0.2675E+00  0.2677E+00  0.3830E+01  0.3831E+01
     17.697  0.2778E+00  0.2778E+00  0.3944E+01  0.3944E+01
     18.111  0.2786E+00  0.2787E+00  0.4059E+01  0.4060E+01
     18.525  0.2872E+00  0.2874E+00  0.4176E+01  0.4177E+01
     18.939  0.3155E+00  0.3156E+00  0.4301E+01  0.4301E+01
     19.353  0.3265E+00  0.3266E+00  0.4433E+01  0.4434E+01
     19.767  0.3735E+00  0.3738E+00  0.4578E+01  0.4579E+01
     20.181  0.3610E+00  0.3600E+00  0.4739E+01  0.4740E+01
     20.595  0.3279E+00  0.3283E+00  0.4873E+01  0.4874E+01
     21.009  0.2959E+00  0.2958E+00  0.5004E+01  0.5005E+01
     21.423  0.2736E+00  0.2737E+00  0.5122E+01  0.5122E+01
     21.837  0.2897E+00  0.2902E+00  0.5241E+01  0.5242E+01
     22.251  0.2819E+00  0.2825E+00  0.5355E+01  0.5356E+01
     22.665  0.3786E+00  0.3785E+00  0.5495E+01  0.5496E+01
     23.079  0.4140E+00  0.4142E+00  0.5658E+01  0.5659E+01
     23.493  0.3169E+00  0.3147E+00  0.5809E+01  0.5810E+01
     23.907  0.3477E+00  0.3474E+00  0.5931E+01  0.5932E+01
     24.321  0.3029E+00  0.3028E+00  0.6063E+01  0.6063E+01
     24.735  0.3905E+00  0.3909E+00  0.6204E+01  0.6205E+01
     25.149  0.3771E+00  0.3766E+00  0.6364E+01  0.6365E+01
     25.563  0.3736E+00  0.3741E+00  0.6517E+01  0.6518E+01
     25.977  0.4210E+00  0.4206E+00  0.6684E+01  0.6685E+01
     26.391  0.3530E+00  0.3530E+00  0.6840E+01  0.6841E+01
     26.805  0.3822E+00  0.3822E+00  0.6988E+01  0.6989E+01
     27.219  0.3737E+00  0.3761E+00  0.7144E+01  0.7145E+01
     27.633  0.3286E+00  0.3250E+00  0.7280E+01  0.7281E+01
     28.047  0.3290E+00  0.3295E+00  0.7410E+01  0.7410E+01
     28.461  0.4167E+00  0.4176E+00  0.7563E+01  0.7564E+01
     28.875  0.4297E+00  0.4297E+00  0.7753E+01  0.7754E+01
     29.289  0.3776E+00  0.3776E+00  0.7915E+01  0.7916E+01
     29.703  0.3983E+00  0.3983E+00  0.8076E+01  0.8077E+01
     30.117  0.4210E+00  0.4200E+00  0.8247E+01  0.8248E+01
     30.531  0.3773E+00  0.3770E+00  0.8412E+01  0.8413E+01
     30.945  0.3842E+00  0.3845E+00  0.8570E+01  0.8571E+01
     31.359  0.4336E+00  0.4337E+00  0.8743E+01  0.8745E+01
     31.773  0.4168E+00  0.4163E+00  0.8918E+01  0.8920E+01
     32.187  0.4296E+00  0.4299E+00  0.9092E+01  0.9094E+01
     32.601  0.4144E+00  0.4135E+00  0.9277E+01  0.9278E+01
     33.015  0.3749E+00  0.3746E+00  0.9439E+01  0.9440E+01
     33.429  0.3409E+00  0.3405E+00  0.9586E+01  0.9587E+01
     33.843  0.3246E+00  0.3238E+00  0.9717E+01  0.9718E+01
     34.257  0.2491E+00  0.2483E+00  0.9836E+01  0.9837E+01
     34.671  0.2192E+00  0.2183E+00  0.9934E+01  0.9934E+01
     35.085  0.1741E+00  0.1741E+00  0.1001E+02  0.1001E+02
     35.499  0.1786E+00  0.1787E+00  0.1008E+02  0.1008E+02
     35.913  0.1870E+00  0.1871E+00  0.1015E+02  0.1015E+02
     36.327  0.2229E+00  0.2229E+00  0.1024E+02  0.1024E+02
     36.741  0.2535E+00  0.2535E+00  0.1033E+02  0.1034E+02
     37.155  0.2721E+00  0.2721E+00  0.1044E+02  0.1044E+02
     37.569  0.2877E+00  0.2878E+00  0.1056E+02  0.1056E+02
     37.983  0.2980E+00  0.2980E+00  0.1068E+02  0.1068E+02
     38.397  0.3547E+00  0.3545E+00  0.1082E+02  0.1082E+02
     38.811  0.3170E+00  0.3169E+00  0.1096E+02  0.1096E+02
     39.225  0.3709E+00  0.3710E+00  0.1109E+02  0.1109E+02
     39.639  0.4533E+00  0.4538E+00  0.1125E+02  0.1125E+02
     40.053  0.6235E+00  0.6232E+00  0.1148E+02  0.1148E+02
     40.467  0.5230E+00  0.5231E+00  0.1170E+02  0.1170E+02
     40.881  0.4563E+00  0.4560E+00  0.1189E+02  0.1189E+02
     41.295  0.4450E+00  0.4454E+00  0.1208E+02  0.1209E+02
     41.709  0.4286E+00  0.4288E+00  0.1227E+02  0.1227E+02
     42.123  0.4882E+00  0.4897E+00  0.1245E+02  0.1245E+02
     42.537  0.5948E+00  0.5949E+00  0.1268E+02  0.1268E+02
     42.951  0.4788E+00  0.4788E+00  0.1291E+02  0.1291E+02
     43.365  0.4689E+00  0.4689E+00  0.1309E+02  0.1309E+02
     43.779  0.5266E+00  0.5266E+00  0.1330E+02  0.1330E+02
     44.193  0.4360E+00  0.4354E+00  0.1350E+02  0.1350E+02
     44.607  0.5515E+00  0.5151E+00  0.1366E+02  0.1366E+02
     45.021  0.4069E+00  0.4069E+00  0.1382E+02  0.1383E+02
     45.435  0.4593E+00  0.4548E+00  0.1400E+02  0.1401E+02
     45.849  0.4964E+00  0.4964E+00  0.1420E+02  0.1420E+02
     46.263  0.5796E+00  0.5798E+00  0.1442E+02  0.1442E+02
     46.677  0.4734E+00  0.4723E+00  0.1465E+02  0.1465E+02
     47.091  0.4487E+00  0.4482E+00  0.1484E+02  0.1484E+02
     47.505  0.4104E+00  0.4105E+00  0.1501E+02  0.1501E+02
     47.919  0.4309E+00  0.4313E+00  0.1518E+02  0.1518E+02
     48.333  0.5054E+00  0.5055E+00  0.1538E+02  0.1538E+02
     48.747  0.4938E+00  0.4941E+00  0.1559E+02  0.1559E+02
     49.161  0.4827E+00  0.4829E+00  0.1579E+02  0.1579E+02
     49.575  0.4146E+00  0.4140E+00  0.1598E+02  0.1598E+02
     49.989  0.4360E+00  0.4345E+00  0.1615E+02  0.1615E+02
     50.403  0.3915E+00  0.3914E+00  0.1632E+02  0.1632E+02
     50.817  0.4782E+00  0.4787E+00  0.1649E+02  0.1649E+02
     51.231  0.5339E+00  0.5327E+00  0.1670E+02  0.1670E+02
     51.645  0.5439E+00  0.5450E+00  0.1691E+02  0.1692E+02
     52.059  0.4709E+00  0.4710E+00  0.1713E+02  0.1713E+02
     52.473  0.5153E+00  0.5137E+00  0.1734E+02  0.1734E+02
     52.887  0.5379E+00  0.5380E+00  0.1754E+02  0.1754E+02
     53.301  0.6816E+00  0.6806E+00  0.1780E+02  0.1780E+02
     53.715  0.8881E+00  0.8878E+00  0.1812E+02  0.1812E+02
     54.129  0.8876E+00  0.8875E+00  0.1849E+02  0.1849E+02
     54.543  0.8961E+00  0.8951E+00  0.1886E+02  0.1886E+02
     54.957  0.1169E+01  0.1170E+01  0.1927E+02  0.1928E+02
     55.371  0.1032E+01  0.1033E+01  0.1972E+02  0.1972E+02
     55.785  0.1393E+01  0.1392E+01  0.2021E+02  0.2021E+02
     56.199  0.1653E+01  0.1651E+01  0.2076E+02  0.2076E+02
     56.613  0.1025E+01  0.1026E+01  0.2125E+02  0.2126E+02
     57.027  0.1283E+01  0.1280E+01  0.2176E+02  0.2177E+02
     57.441  0.8737E+00  0.8743E+00  0.2213E+02  0.2213E+02
     57.855  0.7001E+00  0.6992E+00  0.2245E+02  0.2245E+02
     58.269  0.5696E+00  0.5702E+00  0.2268E+02  0.2268E+02
     58.683  0.6414E+00  0.6406E+00  0.2292E+02  0.2292E+02
     59.097  0.9555E+00  0.9569E+00  0.2323E+02  0.2324E+02
     59.511  0.9853E+00  0.9838E+00  0.2368E+02  0.2368E+02
     59.925  0.5097E+00  0.5089E+00  0.2394E+02  0.2394E+02
     60.339  0.5492E+00  0.5500E+00  0.2414E+02  0.2415E+02
     60.753  0.6654E+00  0.6621E+00  0.2439E+02  0.2439E+02
     61.167  0.5813E+00  0.5813E+00  0.2463E+02  0.2463E+02
     61.581  0.6682E+00  0.6685E+00  0.2488E+02  0.2488E+02
     61.995  0.5601E+00  0.5590E+00  0.2517E+02  0.2517E+02
     62.409  0.5184E+00  0.5168E+00  0.2539E+02  0.2539E+02
     62.823  0.5470E+00  0.5471E+00  0.2560E+02  0.2560E+02
     63.237  0.5307E+00  0.5307E+00  0.2582E+02  0.2582E+02
     63.651  0.5588E+00  0.5577E+00  0.2605E+02  0.2605E+02
     64.065  0.4962E+00  0.4961E+00  0.2625E+02  0.2625E+02
     64.479  0.5282E+00  0.5285E+00  0.2646E+02  0.2646E+02
     64.893  0.5090E+00  0.5090E+00  0.2668E+02  0.2668E+02
     65.307  0.4876E+00  0.4876E+00  0.2689E+02  0.2689E+02
     65.721  0.5133E+00  0.5134E+00  0.2709E+02  0.2709E+02
     66.135  0.4686E+00  0.4684E+00  0.2730E+02  0.2730E+02
     66.549  0.4497E+00  0.4497E+00  0.2749E+02  0.2749E+02
     66.963  0.4396E+00  0.4395E+00  0.2767E+02  0.2767E+02
     67.377  0.4422E+00  0.4420E+00  0.2785E+02  0.2785E+02
     67.791  0.4700E+00  0.4702E+00  0.2804E+02  0.2804E+02
     68.205  0.4847E+00  0.4846E+00  0.2824E+02  0.2824E+02
     68.619  0.4589E+00  0.4589E+00  0.2844E+02  0.2844E+02
     69.033  0.4637E+00  0.4639E+00  0.2862E+02  0.2862E+02
     69.447  0.4319E+00  0.4321E+00  0.2880E+02  0.2881E+02
     69.861  0.4500E+00  0.4501E+00  0.2899E+02  0.2899E+02
     70.275  0.4592E+00  0.4593E+00  0.2917E+02  0.2917E+02
     70.689  0.4521E+00  0.4519E+00  0.2937E+02  0.2937E+02
     71.103  0.4623E+00  0.4623E+00  0.2956E+02  0.2956E+02
     71.517  0.5086E+00  0.5088E+00  0.2976E+02  0.2976E+02
     71.931  0.6051E+00  0.6043E+00  0.2999E+02  0.2999E+02
     72.345  0.5501E+00  0.5498E+00  0.3022E+02  0.3022E+02
     72.759  0.5703E+00  0.5701E+00  0.3046E+02  0.3046E+02
     73.173  0.4690E+00  0.4687E+00  0.3067E+02  0.3067E+02
     73.587  0.4023E+00  0.4024E+00  0.3084E+02  0.3084E+02
     74.001  0.3927E+00  0.3928E+00  0.3101E+02  0.3101E+02
     74.415  0.4673E+00  0.4743E+00  0.3118E+02  0.3118E+02
     74.829  0.4734E+00  0.4733E+00  0.3136E+02  0.3136E+02
     75.243  0.4126E+00  0.4126E+00  0.3154E+02  0.3154E+02
     75.657  0.4625E+00  0.4628E+00  0.3172E+02  0.3172E+02
     76.071  0.4654E+00  0.4661E+00  0.3190E+02  0.3190E+02
     76.485  0.5114E+00  0.5115E+00  0.3211E+02  0.3211E+02
     76.899  0.5323E+00  0.5322E+00  0.3233E+02  0.3233E+02
     77.313  0.4583E+00  0.4580E+00  0.3254E+02  0.3254E+02
     77.727  0.5870E+00  0.5867E+00  0.3276E+02  0.3276E+02
     78.141  0.5760E+00  0.5753E+00  0.3300E+02  0.3300E+02
     78.555  0.6415E+00  0.6421E+00  0.3325E+02  0.3325E+02
     78.969  0.6233E+00  0.6220E+00  0.3353E+02  0.3353E+02
     79.383  0.4031E+00  0.4036E+00  0.3372E+02  0.3373E+02
     79.797  0.7407E+00  0.7423E+00  0.3394E+02  0.3394E+02
     80.211  0.6882E+00  0.6879E+00  0.3425E+02  0.3425E+02
     80.625  0.5693E+00  0.5691E+00  0.3450E+02  0.3450E+02
     81.039  0.5018E+00  0.5018E+00  0.3471E+02  0.3472E+02
     81.453  0.5543E+00  0.5542E+00  0.3493E+02  0.3493E+02
     81.867  0.5679E+00  0.5680E+00  0.3516E+02  0.3516E+02
     82.281  0.5537E+00  0.5537E+00  0.3539E+02  0.3539E+02
     82.695  0.4979E+00  0.4976E+00  0.3561E+02  0.3561E+02
     83.109  0.4664E+00  0.4667E+00  0.3581E+02  0.3581E+02
     83.523  0.4920E+00  0.4925E+00  0.3601E+02  0.3601E+02
     83.937  0.5709E+00  0.5709E+00  0.3622E+02  0.3622E+02
     84.351  0.6171E+00  0.6169E+00  0.3648E+02  0.3648E+02
     84.765  0.5252E+00  0.5255E+00  0.3672E+02  0.3672E+02
     85.179  0.5254E+00  0.5252E+00  0.3695E+02  0.3695E+02
     85.593  0.4899E+00  0.4900E+00  0.3715E+02  0.3715E+02
     86.007  0.4658E+00  0.4659E+00  0.3735E+02  0.3735E+02
     86.421  0.4760E+00  0.4762E+00  0.3754E+02  0.3754E+02
     86.835  0.4514E+00  0.4514E+00  0.3773E+02  0.3773E+02
     87.249  0.5607E+00  0.5610E+00  0.3793E+02  0.3793E+02
     87.663  0.6989E+00  0.6992E+00  0.3820E+02  0.3820E+02
     88.077  0.6745E+00  0.6738E+00  0.3848E+02  0.3848E+02
     88.491  0.6095E+00  0.6104E+00  0.3873E+02  0.3873E+02
     88.905  0.7005E+00  0.7005E+00  0.3901E+02  0.3901E+02
     89.319  0.6250E+00  0.6250E+00  0.3930E+02  0.3930E+02
     89.733  0.4980E+00  0.4978E+00  0.3953E+02  0.3953E+02
     90.147  0.4281E+00  0.4281E+00  0.3972E+02  0.3972E+02
     90.561  0.4630E+00  0.4707E+00  0.3990E+02  0.3990E+02
     90.975  0.5072E+00  0.5033E+00  0.4010E+02  0.4010E+02
     91.389  0.5050E+00  0.5048E+00  0.4030E+02  0.4030E+02
     91.803  0.4564E+00  0.4566E+00  0.4049E+02  0.4049E+02
     92.217  0.5889E+00  0.5893E+00  0.4070E+02  0.4070E+02
     92.631  0.7156E+00  0.7156E+00  0.4099E+02  0.4099E+02
     93.045  0.5209E+00  0.5208E+00  0.4123E+02  0.4123E+02
     93.459  0.6070E+00  0.6069E+00  0.4146E+02  0.4146E+02
     93.873  0.6539E+00  0.6537E+00  0.4171E+02  0.4172E+02
     94.287  0.5408E+00  0.5407E+00  0.4195E+02  0.4195E+02
     94.701  0.5651E+00  0.5650E+00  0.4218E+02  0.4218E+02
     95.115  0.5906E+00  0.5908E+00  0.4242E+02  0.4242E+02
     95.529  0.6938E+00  0.6940E+00  0.4268E+02  0.4268E+02
     95.943  0.6305E+00  0.6300E+00  0.4296E+02  0.4296E+02
     96.357  0.5852E+00  0.5852E+00  0.4321E+02  0.4321E+02
     96.771  0.6139E+00  0.6141E+00  0.4345E+02  0.4345E+02
     97.185  0.5471E+00  0.5478E+00  0.4368E+02  0.4368E+02
     97.599  0.5672E+00  0.5686E+00  0.4392E+02  0.4392E+02
     98.013  0.5570E+00  0.5570E+00  0.4415E+02  0.4416E+02
     98.427  0.4746E+00  0.4746E+00  0.4436E+02  0.4437E+02
     98.841  0.4672E+00  0.4668E+00  0.4456E+02  0.4456E+02
     99.255  0.4966E+00  0.4968E+00  0.4476E+02  0.4476E+02
     99.669  0.5603E+00  0.5609E+00  0.4497E+02  0.4497E+02
    100.083  0.6744E+00  0.6744E+00  0.4523E+02  0.4523E+02
    100.497  0.6882E+00  0.6881E+00  0.4551E+02  0.4551E+02
    100.911  0.6919E+00  0.6917E+00  0.4580E+02  0.4581E+02
    101.325  0.5225E+00  0.5223E+00  0.4606E+02  0.4606E+02
    101.739  0.4839E+00  0.4839E+00  0.4626E+02  0.4626E+02
    102.153  0.5255E+00  0.5254E+00  0.4647E+02  0.4647E+02
    102.567  0.5739E+00  0.5741E+00  0.4668E+02  0.4669E+02
    102.981  0.5038E+00  0.5034E+00  0.4692E+02  0.4692E+02
    103.395  0.4515E+00  0.4514E+00  0.4711E+02  0.4711E+02
    103.809  0.3948E+00  0.3949E+00  0.4728E+02  0.4728E+02
    104.223  0.3393E+00  0.3392E+00  0.4743E+02  0.4743E+02
    104.637  0.2877E+00  0.2877E+00  0.4756E+02  0.4756E+02
    105.051  0.3039E+00  0.3039E+00  0.4768E+02  0.4768E+02
    105.465  0.3453E+00  0.3447E+00  0.4782E+02  0.4782E+02
    105.879  0.1331E+00  0.1325E+00  0.4791E+02  0.4791E+02
    106.293  0.5389E-01  0.5372E-01  0.4795E+02  0.4795E+02
    106.707  0.1941E-01  0.1938E-01  0.4796E+02  0.4796E+02
    107.121  0.1370E-01  0.1369E-01  0.4797E+02  0.4797E+02
    107.535  0.1126E-01  0.1125E-01  0.4797E+02  0.4797E+02
    107.949  0.1015E-01  0.1016E-01  0.4798E+02  0.4798E+02
    108.363  0.1355E-01  0.1358E-01  0.4798E+02  0.4798E+02
    108.777  0.1931E-01  0.1926E-01  0.4799E+02  0.4799E+02
    109.191  0.1175E-01  0.1167E-01  0.4800E+02  0.4800E+02
    109.605  0.1182E-02  0.1143E-02  0.4800E+02  0.4800E+02
    110.019  0.0000E+00  0.0000E+00  0.4800E+02  0.4800E+02
    110.433  0.0000E+00  0.0000E+00  0.4800E+02  0.4800E+02
    110.847  0.0000E+00  0.0000E+00  0.4800E+02  0.4800E+02
    111.261  0.0000E+00  0.0000E+00  0.4800E+02  0.4800E+02
    111.675  0.0000E+00  0.0000E+00  0.4800E+02  0.4800E+02
    112.089  0.0000E+00  0.0000E+00  0.4800E+02  0.4800E+02
    112.503  0.0000E+00  0.0000E+00  0.4800E+02  0.4800E+02
    112.917  0.0000E+00  0.0000E+00  0.4800E+02  0.4800E+02
    113.331  0.0000E+00  0.0000E+00  0.4800E+02  0.4800E+02
    113.745  0.0000E+00  0.0000E+00  0.4800E+02  0.4800E+02
    114.159  0.0000E+00  0.0000E+00  0.4800E+02  0.4800E+02
    114.573  0.0000E+00  0.0000E+00  0.4800E+02  0.4800E+02
    114.987  0.0000E+00  0.0000E+00  0.4800E+02  0.4800E+02
    115.401  0.0000E+00  0.0000E+00  0.4800E+02  0.4800E+02
    115.40092722     -8.79835683  301      7.98011987      1.00000000
     -8.798  0.0000E+00  0.0000E+00  0.0000E+00  0.0000E+00  0.0000E+00  0.0000E+00  0.0000E+00  0.0000E+00  0.0000E+00  0.0000E+00  0.0000E+00  0.0000E+00  0.0000E+00  0.0000E+00  0.0000E+00  0.0000E+00  0.0000E+00  0.0000E+00
     -8.384  0.0000E+00  0.0000E+00  0.0000E+00  0.0000E+00  0.0000E+00  0.0000E+00  0.0000E+00  0.0000E+00  0.0000E+00  0.0000E+00  0.0000E+00  0.0000E+00  0.0000E+00  0.0000E+00  0.0000E+00  0.0000E+00  0.0000E+00  0.0000E+00
     -7.970  0.0000E+00  0.0000E+00  0.0000E+00  0.0000E+00  0.0000E+00  0.0000E+00  0.0000E+00  0.0000E+00  0.0000E+00  0.0000E+00  0.0000E+00  0.0000E+00  0.0000E+00  0.0000E+00  0.0000E+00  0.0000E+00  0.0000E+00  0.0000E+00
     -7.556  0.0000E+00  0.0000E+00  0.0000E+00  0.0000E+00  0.0000E+00  0.0000E+00  0.0000E+00  0.0000E+00  0.0000E+00  0.0000E+00  0.0000E+00  0.0000E+00  0.0000E+00  0.0000E+00  0.0000E+00  0.0000E+00  0.0000E+00  0.0000E+00
     -7.142  0.0000E+00  0.0000E+00  0.0000E+00  0.0000E+00  0.0000E+00  0.0000E+00  0.0000E+00  0.0000E+00  0.0000E+00  0.0000E+00  0.0000E+00  0.0000E+00  0.0000E+00  0.0000E+00  0.0000E+00  0.0000E+00  0.0000E+00  0.0000E+00
     -6.728  0.0000E+00  0.0000E+00  0.0000E+00  0.0000E+00  0.0000E+00  0.0000E+00  0.0000E+00  0.0000E+00  0.0000E+00  0.0000E+00  0.0000E+00  0.0000E+00  0.0000E+00  0.0000E+00  0.0000E+00  0.0000E+00  0.0000E+00  0.0000E+00
     -6.314  0.0000E+00  0.0000E+00  0.0000E+00  0.0000E+00  0.0000E+00  0.0000E+00  0.0000E+00  0.0000E+00  0.0000E+00  0.0000E+00  0.0000E+00  0.0000E+00  0.0000E+00  0.0000E+00  0.0000E+00  0.0000E+00  0.0000E+00  0.0000E+00
     -5.900  0.0000E+00  0.0000E+00  0.0000E+00  0.0000E+00  0.0000E+00  0.0000E+00  0.0000E+00  0.0000E+00  0.0000E+00  0.0000E+00  0.0000E+00  0.0000E+00  0.0000E+00  0.0000E+00  0.0000E+00  0.0000E+00  0.0000E+00  0.0000E+00
     -5.486  0.0000E+00  0.0000E+00  0.0000E+00  0.0000E+00  0.0000E+00  0.0000E+00  0.0000E+00  0.0000E+00  0.0000E+00  0.0000E+00  0.0000E+00  0.0000E+00  0.0000E+00  0.0000E+00  0.0000E+00  0.0000E+00  0.0000E+00  0.0000E+00
     -5.072  0.0000E+00  0.0000E+00  0.0000E+00  0.0000E+00  0.0000E+00  0.0000E+00  0.0000E+00  0.0000E+00  0.0000E+00  0.0000E+00  0.0000E+00  0.0000E+00  0.0000E+00  0.0000E+00  0.0000E+00  0.0000E+00  0.0000E+00  0.0000E+00
     -4.658  0.0000E+00  0.0000E+00  0.0000E+00  0.0000E+00  0.0000E+00  0.0000E+00  0.0000E+00  0.0000E+00  0.0000E+00  0.0000E+00  0.0000E+00  0.0000E+00  0.0000E+00  0.0000E+00  0.0000E+00  0.0000E+00  0.0000E+00  0.0000E+00
     -4.244  0.0000E+00  0.0000E+00  0.0000E+00  0.0000E+00  0.0000E+00  0.0000E+00  0.0000E+00  0.0000E+00  0.0000E+00  0.0000E+00  0.0000E+00  0.0000E+00  0.0000E+00  0.0000E+00  0.0000E+00  0.0000E+00  0.0000E+00  0.0000E+00
     -3.830  0.0000E+00  0.0000E+00  0.0000E+00  0.0000E+00  0.0000E+00  0.0000E+00  0.0000E+00  0.0000E+00  0.0000E+00  0.0000E+00  0.0000E+00  0.0000E+00  0.0000E+00  0.0000E+00  0.0000E+00  0.0000E+00  0.0000E+00  0.0000E+00
     -3.416  0.0000E+00  0.0000E+00  0.0000E+00  0.0000E+00  0.0000E+00  0.0000E+00  0.0000E+00  0.0000E+00  0.0000E+00  0.0000E+00  0.0000E+00  0.0000E+00  0.0000E+00  0.0000E+00  0.0000E+00  0.0000E+00  0.0000E+00  0.0000E+00
     -3.002  0.5520E-02  0.5551E-02  0.2412E-04  0.2440E-04  0.2412E-04  0.2440E-04  0.2412E-04  0.2440E-04  0.0000E+00  0.0000E+00  0.0000E+00  0.0000E+00  0.0000E+00  0.0000E+00  0.0000E+00  0.0000E+00  0.0000E+00  0.0000E+00
     -2.588  0.1114E-01  0.1116E-01  0.1613E-03  0.1618E-03  0.1613E-03  0.1618E-03  0.1613E-03  0.1618E-03  0.0000E+00  0.0000E+00  0.0000E+00  0.0000E+00  0.0000E+00  0.0000E+00  0.0000E+00  0.0000E+00  0.0000E+00  0.0000E+00
     -2.174  0.1431E-01  0.1433E-01  0.3696E-03  0.3704E-03  0.3696E-03  0.3704E-03  0.3696E-03  0.3704E-03  0.0000E+00  0.0000E+00  0.0000E+00  0.0000E+00  0.0000E+00  0.0000E+00  0.0000E+00  0.0000E+00  0.0000E+00  0.0000E+00
     -1.760  0.1643E-01  0.1645E-01  0.6316E-03  0.6326E-03  0.6316E-03  0.6326E-03  0.6316E-03  0.6326E-03  0.0000E+00  0.0000E+00  0.0000E+00  0.0000E+00  0.0000E+00  0.0000E+00  0.0000E+00  0.0000E+00  0.0000E+00  0.0000E+00
     -1.346  0.1819E-01  0.1821E-01  0.9301E-03  0.9314E-03  0.9301E-03  0.9314E-03  0.9301E-03  0.9314E-03  0.0000E+00  0.0000E+00  0.0000E+00  0.0000E+00  0.0000E+00  0.0000E+00  0.0000E+00  0.0000E+00  0.0000E+00  0.0000E+00
     -0.932  0.1981E-01  0.1983E-01  0.1250E-02  0.1251E-02  0.1250E-02  0.1251E-02  0.1250E-02  0.1251E-02  0.0000E+00  0.0000E+00  0.0000E+00  0.0000E+00  0.0000E+00  0.0000E+00  0.0000E+00  0.0000E+00  0.0000E+00  0.0000E+00
     -0.518  0.2069E-01  0.2070E-01  0.1619E-02  0.1621E-02  0.1619E-02  0.1621E-02  0.1619E-02  0.1621E-02  0.0000E+00  0.0000E+00  0.0000E+00  0.0000E+00  0.0000E+00  0.0000E+00  0.0000E+00  0.0000E+00  0.0000E+00  0.0000E+00
     -0.104  0.2178E-01  0.2180E-01  0.1992E-02  0.1994E-02  0.1992E-02  0.1994E-02  0.1992E-02  0.1994E-02  0.0000E+00  0.0000E+00  0.0000E+00  0.0000E+00  0.0000E+00  0.0000E+00  0.0000E+00  0.0000E+00  0.0000E+00  0.0000E+00
      0.310  0.2221E-01  0.2223E-01  0.2415E-02  0.2417E-02  0.2415E-02  0.2417E-02  0.2415E-02  0.2417E-02  0.0000E+00  0.0000E+00  0.0000E+00  0.0000E+00  0.0000E+00  0.0000E+00  0.0000E+00  0.0000E+00  0.0000E+00  0.0000E+00
      0.724  0.2280E-01  0.2282E-01  0.2840E-02  0.2842E-02  0.2840E-02  0.2842E-02  0.2840E-02  0.2842E-02  0.0000E+00  0.0000E+00  0.0000E+00  0.0000E+00  0.0000E+00  0.0000E+00  0.0000E+00  0.0000E+00  0.0000E+00  0.0000E+00
      1.138  0.2295E-01  0.2297E-01  0.3309E-02  0.3312E-02  0.3309E-02  0.3312E-02  0.3309E-02  0.3312E-02  0.0000E+00  0.0000E+00  0.0000E+00  0.0000E+00  0.0000E+00  0.0000E+00  0.0000E+00  0.0000E+00  0.0000E+00  0.0000E+00
      1.552  0.2308E-01  0.2309E-01  0.3793E-02  0.3795E-02  0.3793E-02  0.3795E-02  0.3793E-02  0.3795E-02  0.0000E+00  0.0000E+00  0.0000E+00  0.0000E+00  0.0000E+00  0.0000E+00  0.0000E+00  0.0000E+00  0.0000E+00  0.0000E+00
      1.966  0.2310E-01  0.2312E-01  0.4302E-02  0.4305E-02  0.4302E-02  0.4305E-02  0.4302E-02  0.4305E-02  0.0000E+00  0.0000E+00  0.0000E+00  0.0000E+00  0.0000E+00  0.0000E+00  0.0000E+00  0.0000E+00  0.0000E+00  0.0000E+00
      2.380  0.2264E-01  0.2266E-01  0.4884E-02  0.4887E-02  0.4884E-02  0.4887E-02  0.4884E-02  0.4887E-02  0.0000E+00  0.0000E+00  0.0000E+00  0.0000E+00  0.0000E+00  0.0000E+00  0.0000E+00  0.0000E+00  0.0000E+00  0.0000E+00
      2.794  0.2252E-01  0.2255E-01  0.5671E-02  0.5675E-02  0.5671E-02  0.5675E-02  0.5671E-02  0.5675E-02  0.0000E+00  0.0000E+00  0.0000E+00  0.0000E+00  0.0000E+00  0.0000E+00  0.0000E+00  0.0000E+00  0.0000E+00  0.0000E+00
      3.208  0.2290E-01  0.2290E-01  0.6856E-02  0.6853E-02  0.6856E-02  0.6853E-02  0.6856E-02  0.6853E-02  0.0000E+00  0.0000E+00  0.0000E+00  0.0000E+00  0.0000E+00  0.0000E+00  0.0000E+00  0.0000E+00  0.0000E+00  0.0000E+00
      3.622  0.1907E-01  0.1907E-01  0.6710E-02  0.6707E-02  0.6710E-02  0.6707E-02  0.6710E-02  0.6707E-02  0.0000E+00  0.0000E+00  0.0000E+00  0.0000E+00  0.0000E+00  0.0000E+00  0.0000E+00  0.0000E+00  0.0000E+00  0.0000E+00
      4.036  0.1821E-01  0.1824E-01  0.6826E-02  0.6829E-02  0.6826E-02  0.6829E-02  0.6826E-02  0.6829E-02  0.0000E+00  0.0000E+00  0.0000E+00  0.0000E+00  0.0000E+00  0.0000E+00  0.0000E+00  0.0000E+00  0.0000E+00  0.0000E+00
      4.450  0.2173E-01  0.2170E-01  0.8278E-02  0.8272E-02  0.8278E-02  0.8272E-02  0.8278E-02  0.8272E-02  0.0000E+00  0.0000E+00  0.0000E+00  0.0000E+00  0.0000E+00  0.0000E+00  0.0000E+00  0.0000E+00  0.0000E+00  0.0000E+00
      4.864  0.2074E-01  0.2078E-01  0.9541E-02  0.9552E-02  0.9541E-02  0.9552E-02  0.9541E-02  0.9552E-02  0.0000E+00  0.0000E+00  0.0000E+00  0.0000E+00  0.0000E+00  0.0000E+00  0.0000E+00  0.0000E+00  0.0000E+00  0.0000E+00
      5.278  0.1886E-01  0.1887E-01  0.9521E-02  0.9522E-02  0.9521E-02  0.9522E-02  0.9521E-02  0.9522E-02  0.0000E+00  0.0000E+00  0.0000E+00  0.0000E+00  0.0000E+00  0.0000E+00  0.0000E+00  0.0000E+00  0.0000E+00  0.0000E+00
      5.692  0.1830E-01  0.1832E-01  0.1006E-01  0.1008E-01  0.1006E-01  0.1008E-01  0.1006E-01  0.1008E-01  0.0000E+00  0.0000E+00  0.0000E+00  0.0000E+00  0.0000E+00  0.0000E+00  0.0000E+00  0.0000E+00  0.0000E+00  0.0000E+00
      6.106  0.1677E-01  0.1677E-01  0.8026E-02  0.8037E-02  0.8026E-02  0.8037E-02  0.8026E-02  0.8037E-02  0.0000E+00  0.0000E+00  0.0000E+00  0.0000E+00  0.0000E+00  0.0000E+00  0.0000E+00  0.0000E+00  0.0000E+00  0.0000E+00
      6.520  0.1550E-01  0.1552E-01  0.8418E-02  0.8432E-02  0.8418E-02  0.8432E-02  0.8418E-02  0.8432E-02  0.0000E+00  0.0000E+00  0.0000E+00  0.0000E+00  0.0000E+00  0.0000E+00  0.0000E+00  0.0000E+00  0.0000E+00  0.0000E+00
      6.934  0.1960E-01  0.1964E-01  0.1007E-01  0.1009E-01  0.1007E-01  0.1009E-01  0.1007E-01  0.1009E-01  0.0000E+00  0.0000E+00  0.0000E+00  0.0000E+00  0.0000E+00  0.0000E+00  0.0000E+00  0.0000E+00  0.0000E+00  0.0000E+00
      7.348  0.1887E-01  0.1886E-01  0.1008E-01  0.1008E-01  0.1008E-01  0.1008E-01  0.1008E-01  0.1008E-01  0.0000E+00  0.0000E+00  0.0000E+00  0.0000E+00  0.0000E+00  0.0000E+00  0.0000E+00  0.0000E+00  0.0000E+00  0.0000E+00
      7.762  0.1532E-01  0.1536E-01  0.8855E-02  0.8859E-02  0.8855E-02  0.8859E-02  0.8855E-02  0.8859E-02  0.0000E+00  0.0000E+00  0.0000E+00  0.0000E+00  0.0000E+00  0.0000E+00  0.0000E+00  0.0000E+00  0.0000E+00  0.0000E+00
      8.176  0.2109E-01  0.2111E-01  0.9067E-02  0.9077E-02  0.9067E-02  0.9077E-02  0.9067E-02  0.9077E-02  0.0000E+00  0.0000E+00  0.0000E+00  0.0000E+00  0.0000E+00  0.0000E+00  0.0000E+00  0.0000E+00  0.0000E+00  0.0000E+00
      8.590  0.2236E-01  0.2236E-01  0.1007E-01  0.1008E-01  0.1007E-01  0.1008E-01  0.1007E-01  0.1008E-01  0.0000E+00  0.0000E+00  0.0000E+00  0.0000E+00  0.0000E+00  0.0000E+00  0.0000E+00  0.0000E+00  0.0000E+00  0.0000E+00
      9.004  0.2052E-01  0.2053E-01  0.1055E-01  0.1055E-01  0.1055E-01  0.1055E-01  0.1055E-01  0.1055E-01  0.0000E+00  0.0000E+00  0.0000E+00  0.0000E+00  0.0000E+00  0.0000E+00  0.0000E+00  0.0000E+00  0.0000E+00  0.0000E+00
      9.418  0.2048E-01  0.2049E-01  0.9984E-02  0.9990E-02  0.9984E-02  0.9990E-02  0.9984E-02  0.9990E-02  0.0000E+00  0.0000E+00  0.0000E+00  0.0000E+00  0.0000E+00  0.0000E+00  0.0000E+00  0.0000E+00  0.0000E+00  0.0000E+00
      9.832  0.2196E-01  0.2200E-01  0.1028E-01  0.1029E-01  0.1028E-01  0.1029E-01  0.1028E-01  0.1029E-01  0.0000E+00  0.0000E+00  0.0000E+00  0.0000E+00  0.0000E+00  0.0000E+00  0.0000E+00  0.0000E+00  0.0000E+00  0.0000E+00
     10.246  0.2374E-01  0.2375E-01  0.1136E-01  0.1137E-01  0.1136E-01  0.1137E-01  0.1136E-01  0.1137E-01  0.0000E+00  0.0000E+00  0.0000E+00  0.0000E+00  0.0000E+00  0.0000E+00  0.0000E+00  0.0000E+00  0.0000E+00  0.0000E+00
     10.660  0.2262E-01  0.2264E-01  0.1145E-01  0.1146E-01  0.1145E-01  0.1146E-01  0.1145E-01  0.1146E-01  0.0000E+00  0.0000E+00  0.0000E+00  0.0000E+00  0.0000E+00  0.0000E+00  0.0000E+00  0.0000E+00  0.0000E+00  0.0000E+00
     11.074  0.2335E-01  0.2336E-01  0.1205E-01  0.1206E-01  0.1205E-01  0.1206E-01  0.1205E-01  0.1206E-01  0.0000E+00  0.0000E+00  0.0000E+00  0.0000E+00  0.0000E+00  0.0000E+00  0.0000E+00  0.0000E+00  0.0000E+00  0.0000E+00
     11.488  0.2332E-01  0.2331E-01  0.1246E-01  0.1247E-01  0.1246E-01  0.1247E-01  0.1246E-01  0.1247E-01  0.0000E+00  0.0000E+00  0.0000E+00  0.0000E+00  0.0000E+00  0.0000E+00  0.0000E+00  0.0000E+00  0.0000E+00  0.0000E+00
     11.902  0.2268E-01  0.2268E-01  0.1349E-01  0.1351E-01  0.1349E-01  0.1351E-01  0.1349E-01  0.1351E-01  0.0000E+00  0.0000E+00  0.0000E+00  0.0000E+00  0.0000E+00  0.0000E+00  0.0000E+00  0.0000E+00  0.0000E+00  0.0000E+00