    1    1    1    2
  0.1658294E+02  0.2862368E-09  0.2862368E-09  0.2862368E-09  0.5000000E-15
   1.0000000000000000E-004
  CAR 
 unknown system                          
      3    165     48

  0.1262379E-14  0.1262379E-14  0.1262379E-14  0.2035416E-03
    1       -3.151655     -3.152935   1.000000   1.000000
    2       20.539884     20.539074   0.000000   0.000000
    3       20.539884     20.539074   0.000000   0.000000
    4       20.539884     20.539074   0.000000   0.000000
    5       21.994776     21.990325   0.000000   0.000000
    6       21.994776     21.990325   0.000000   0.000000
    7       21.994776     21.990326   0.000000   0.000000
    8       24.376851     24.376950   0.000000   0.000000
    9       27.314403     27.311506   0.000000   0.000000
   10       27.314403     27.311506   0.000000   0.000000
   11       30.161038     30.158097   0.000000   0.000000
   12       32.510936     32.510296   0.000000   0.000000
   13       32.510936     32.510296   0.000000   0.000000
   14       32.510936     32.510297   0.000000   0.000000
   15       41.062869     41.060411   0.000000   0.000000
   16       56.021712     56.020681   0.000000   0.000000
   17       56.021712     56.020682   0.000000   0.000000
   18       56.021712     56.020682   0.000000   0.000000
   19       56.058024     56.058135   0.000000   0.000000
   20       59.214185     59.211680   0.000000   0.000000
   21       59.214185     59.211680   0.000000   0.000000
   22       59.214185     59.211680   0.000000   0.000000
   23       62.833753     62.833857   0.000000   0.000000
   24       62.833753     62.833857   0.000000   0.000000
   25       65.076801     65.073718   0.000000   0.000000
   26       65.076802     65.073718   0.000000   0.000000
   27       65.076802     65.073718   0.000000   0.000000
   28       73.178028     73.176977   0.000000   0.000000
   29       73.178028     73.176977   0.000000   0.000000
   30       73.178028     73.176978   0.000000   0.000000
   31       80.819213     80.818062   0.000000   0.000000
   32       83.078224     83.076851   0.000000   0.000000
   33       83.078224     83.076851   0.000000   0.000000
   34       87.206318     87.206423   0.000000   0.000000
   35       87.206318     87.206424   0.000000   0.000000
   36       87.206319     87.206425   0.000000   0.000000
   37       90.088515     90.083244   0.000000   0.000000
   38       90.088515     90.083245   0.000000   0.000000
   39       90.088516     90.083245   0.000000   0.000000
   40       90.897011     90.890237   0.000000   0.000000
   41       93.460047     93.460304   0.000000   0.000000
   42       93.460048     93.460304   0.000000   0.000000
   43       93.460048     93.460304   0.000000   0.000000
   44       93.934599     93.931913   0.000000   0.000000
   45       93.934599     93.931914   0.000000   0.000000
   46       93.934599     93.931914   0.000000   0.000000
   47       96.373865     96.374578   0.000000   0.000000
   48       96.373865     96.374579   0.000000   0.000000

  0.5882353E-01  0.1265118E-14  0.1265118E-14  0.1628333E-02
    1       -3.057893     -3.059173   1.000000   1.000000
    2       18.893254     18.891771   0.000000   0.000000
    3       20.193492     20.192076   0.000000   0.000000
    4       20.193492     20.192077   0.000000   0.000000
    5       22.486723     22.482821   0.000000   0.000000
    6       22.486723     22.482822   0.000000   0.000000
    7       22.597511     22.594186   0.000000   0.000000
    8       25.354362     25.354032   0.000000   0.000000
    9       26.774409     26.771819   0.000000   0.000000
   10       26.774409     26.771819   0.000000   0.000000
   11       29.813631     29.810982   0.000000   0.000000
   12       32.991910     32.990885   0.000000   0.000000
   13       33.239253     33.238342   0.000000   0.000000
   14       33.239253     33.238343   0.000000   0.000000
   15       41.441189     41.438793   0.000000   0.000000
   16       55.629908     55.629390   0.000000   0.000000
   17       55.921974     55.920911   0.000000   0.000000
   18       55.921975     55.920911   0.000000   0.000000
   19       56.282257     56.281781   0.000000   0.000000
   20       58.213104     58.210682   0.000000   0.000000
   21       58.213104     58.210683   0.000000   0.000000
   22       59.221731     59.219300   0.000000   0.000000
   23       61.832254     61.831622   0.000000   0.000000
   24       61.832254     61.831623   0.000000   0.000000
   25       65.160908     65.157807   0.000000   0.000000
   26       67.258004     67.255642   0.000000   0.000000
   27       67.258004     67.255643   0.000000   0.000000
   28       72.383030     72.382056   0.000000   0.000000
   29       73.091041     73.089907   0.000000   0.000000
   30       73.091041     73.089908   0.000000   0.000000
   31       81.734507     81.733361   0.000000   0.000000
   32       82.578256     82.576696   0.000000   0.000000
   33       82.578256     82.576697   0.000000   0.000000
   34       85.176205     85.173826   0.000000   0.000000
   35       86.493231     86.493013   0.000000   0.000000
   36       86.493231     86.493013   0.000000   0.000000
   37       89.083522     89.080502   0.000000   0.000000
   38       89.083522     89.080502   0.000000   0.000000
   39       90.284328     90.278593   0.000000   0.000000
   40       90.600877     90.599854   0.000000   0.000000
   41       92.061653     92.060627   0.000000   0.000000
   42       92.061653     92.060627   0.000000   0.000000
   43       92.169679     92.167383   0.000000   0.000000
   44       95.208421     95.209209   0.000000   0.000000
   45       95.208421     95.209209   0.000000   0.000000
   46       95.830249     95.827958   0.000000   0.000000
   47       95.830250     95.827958   0.000000   0.000000
   48       96.994822     96.993432   0.000000   0.000000

  0.1176471E+00  0.1266218E-14  0.1266218E-14  0.1628333E-02
    1       -2.776993     -2.778273   1.000000   1.000000
    2       16.537139     16.535647   0.000000   0.000000
    3       19.650831     19.649021   0.000000   0.000000
    4       19.650831     19.649021   0.000000   0.000000
    5       22.632144     22.629427   0.000000   0.000000
    6       23.423090     23.419327   0.000000   0.000000
    7       23.423090     23.419327   0.000000   0.000000
    8       25.698422     25.696385   0.000000   0.000000
    9       25.698422     25.696385   0.000000   0.000000
   10       27.494148     27.493263   0.000000   0.000000
   11       29.003352     29.000991   0.000000   0.000000
   12       34.275250     34.273703   0.000000   0.000000
   13       34.918317     34.917044   0.000000   0.000000
   14       34.918317     34.917044   0.000000   0.000000
   15       42.480275     42.478040   0.000000   0.000000
   16       54.770459     54.768785   0.000000   0.000000
   17       54.770459     54.768786   0.000000   0.000000
   18       54.941705     54.941098   0.000000   0.000000
   19       56.421592     56.421042   0.000000   0.000000
   20       56.670841     56.669286   0.000000   0.000000
   21       56.670841     56.669286   0.000000   0.000000
   22       59.163568     59.161328   0.000000   0.000000
   23       61.541181     61.540236   0.000000   0.000000
   24       61.541181     61.540237   0.000000   0.000000
   25       65.411944     65.408790   0.000000   0.000000
   26       70.239851     70.237724   0.000000   0.000000
   27       70.239851     70.237725   0.000000   0.000000
   28       70.753194     70.752292   0.000000   0.000000
   29       72.897929     72.896498   0.000000   0.000000
   30       72.897930     72.896499   0.000000   0.000000
   31       80.979958     80.978073   0.000000   0.000000
   32       80.979959     80.978074   0.000000   0.000000
   33       81.571086     81.568435   0.000000   0.000000
   34       84.570766     84.568717   0.000000   0.000000
   35       85.085646     85.086055   0.000000   0.000000
   36       85.085647     85.086055   0.000000   0.000000
   37       87.201428     87.199996   0.000000   0.000000
   38       87.201428     87.199997   0.000000   0.000000
   39       87.722437     87.721464   0.000000   0.000000
   40       89.884268     89.879075   0.000000   0.000000
   41       90.801689     90.800125   0.000000   0.000000
   42       90.801689     90.800126   0.000000   0.000000
   43       91.680751     91.680276   0.000000   0.000000
   44       93.930418     93.931434   0.000000   0.000000
   45       96.249104     96.249909   0.000000   0.000000
   46       96.249104     96.249909   0.000000   0.000000
   47       98.037956     98.034889   0.000000   0.000000
   48       98.037956     98.034890   0.000000   0.000000

  0.1764706E+00  0.1260797E-14  0.1260797E-14  0.1628333E-02
    1       -2.310063     -2.311343   1.000000   1.000000
    2       14.183771     14.182323   0.000000   0.000000
    3       19.195199     19.193226   0.000000   0.000000
    4       19.195199     19.193226   0.000000   0.000000
    5       22.453978     22.451507   0.000000   0.000000
    6       23.858022     23.854476   0.000000   0.000000
    7       23.858022     23.854476   0.000000   0.000000
    8       25.249994     25.248049   0.000000   0.000000
    9       25.249994     25.248049   0.000000   0.000000
   10       27.989321     27.987079   0.000000   0.000000
   11       29.775225     29.774064   0.000000   0.000000
   12       36.224638     36.222682   0.000000   0.000000
   13       37.029589     37.028042   0.000000   0.000000
   14       37.029589     37.028043   0.000000   0.000000
   15       43.990170     43.988158   0.000000   0.000000
   16       51.978596     51.976804   0.000000   0.000000
   17       51.978596     51.976805   0.000000   0.000000
   18       53.980272     53.979586   0.000000   0.000000
   19       56.412327     56.411107   0.000000   0.000000
   20       56.412327     56.411108   0.000000   0.000000
   21       56.543685     56.543041   0.000000   0.000000
   22       58.904968     58.903026   0.000000   0.000000
   23       61.697298     61.696202   0.000000   0.000000
   24       61.697298     61.696203   0.000000   0.000000
   25       65.823006     65.819753   0.000000   0.000000
   26       69.046929     69.045863   0.000000   0.000000
   27       71.150341     71.148393   0.000000   0.000000
   28       71.150341     71.148393   0.000000   0.000000
   29       73.805667     73.804009   0.000000   0.000000
   30       73.805667     73.804010   0.000000   0.000000
   31       79.058180     79.054703   0.000000   0.000000
   32       79.099122     79.097356   0.000000   0.000000
   33       79.099122     79.097357   0.000000   0.000000
   34       83.015779     83.016465   0.000000   0.000000
   35       83.015779     83.016465   0.000000   0.000000
   36       85.052955     85.052103   0.000000   0.000000
   37       86.040906     86.040596   0.000000   0.000000
   38       86.576453     86.575416   0.000000   0.000000
   39       86.576453     86.575416   0.000000   0.000000
   40       87.353788     87.352555   0.000000   0.000000
   41       89.476531     89.471875   0.000000   0.000000
   42       90.062452     90.060760   0.000000   0.000000
   43       90.062452     90.060761   0.000000   0.000000
   44       93.947641     93.948532   0.000000   0.000000
   45       97.256848     97.256835   0.000000   0.000000
   46       97.256848     97.256835   0.000000   0.000000
   47       99.350627     99.349342   0.000000   0.000000
   48       99.350626     99.349343   0.000000   0.000000

  0.2352941E+00  0.1262064E-14  0.1262064E-14  0.1628333E-02
    1       -1.658903     -1.660182   1.000000   1.000000
    2       11.923627     11.922217   0.000000   0.000000
    3       18.876601     18.874548   0.000000   0.000000
    4       18.876601     18.874548   0.000000   0.000000
    5       22.286324     22.283987   0.000000   0.000000
    6       22.922753     22.920083   0.000000   0.000000
    7       22.922753     22.920083   0.000000   0.000000
    8       26.411858     26.409149   0.000000   0.000000
    9       26.411858     26.409150   0.000000   0.000000
   10       26.917104     26.914896   0.000000   0.000000
   11       31.968088     31.966700   0.000000   0.000000
   12       38.723669     38.721362   0.000000   0.000000
   13       39.357196     39.355392   0.000000   0.000000
   14       39.357196     39.355392   0.000000   0.000000
   15       45.802713     45.800963   0.000000   0.000000
   16       49.067414     49.065820   0.000000   0.000000
   17       49.067414     49.065820   0.000000   0.000000
   18       52.763551     52.762864   0.000000   0.000000
   19       56.374539     56.373374   0.000000   0.000000
   20       56.374539     56.373374   0.000000   0.000000
   21       56.683526     56.682770   0.000000   0.000000
   22       58.390558     58.389001   0.000000   0.000000
   23       61.991025     61.989786   0.000000   0.000000
   24       61.991025     61.989788   0.000000   0.000000
   25       66.382961     66.379552   0.000000   0.000000
   26       67.397680     67.396091   0.000000   0.000000
   27       69.475318     69.473098   0.000000   0.000000
   28       69.475318     69.473098   0.000000   0.000000
   29       74.590783     74.589980   0.000000   0.000000
   30       74.590783     74.589981   0.000000   0.000000
   31       76.996258     76.992506   0.000000   0.000000
   32       78.857804     78.856324   0.000000   0.000000
   33       78.857805     78.856324   0.000000   0.000000
   34       80.892795     80.893014   0.000000   0.000000
   35       80.892795     80.893015   0.000000   0.000000
   36       81.123910     81.124397   0.000000   0.000000
   37       82.609836     82.609165   0.000000   0.000000
   38       87.162815     87.161889   0.000000   0.000000
   39       87.162816     87.161889   0.000000   0.000000
   40       88.819756     88.817026   0.000000   0.000000
   41       89.658309     89.656598   0.000000   0.000000
   42       89.658309     89.656599   0.000000   0.000000
   43       90.011365     90.008487   0.000000   0.000000
   44       93.338076     93.338604   0.000000   0.000000
   45       97.363071     97.362333   0.000000   0.000000
   46       97.363072     97.362333   0.000000   0.000000
   47      101.194720    101.194465   0.000000   0.000000
   48      101.195194    101.194476   0.000000   0.000000

  0.2941176E+00  0.1222198E-14  0.1222198E-14  0.1628333E-02
    1       -0.826003     -0.827282   1.000000   1.000000
    2        9.788237      9.786856  -0.004988  -0.005060
    3       18.707814     18.705710   0.000000   0.000000
    4       18.707814     18.705710   0.000000   0.000000
    5       21.893158     21.890752   0.000000   0.000000
    6       21.893159     21.890752   0.000000   0.000000
    7       22.211284     22.209039   0.000000   0.000000
    8       25.875710     25.873503   0.000000   0.000000
    9       27.934498     27.931507   0.000000   0.000000
   10       27.934498     27.931508   0.000000   0.000000
   11       34.068957     34.067312   0.000000   0.000000
   12       41.583016     41.580367   0.000000   0.000000
   13       41.624826     41.622643   0.000000   0.000000
   14       41.624826     41.622643   0.000000   0.000000
   15       46.537312     46.536131   0.000000   0.000000
   16       46.537312     46.536132   0.000000   0.000000
   17       47.701458     47.699935   0.000000   0.000000
   18       51.461571     51.461102   0.000000   0.000000
   19       56.349471     56.348326   0.000000   0.000000
   20       56.349472     56.348327   0.000000   0.000000
   21       56.841290     56.840397   0.000000   0.000000
   22       57.618486     57.617297   0.000000   0.000000
   23       62.226387     62.224843   0.000000   0.000000
   24       62.226388     62.224845   0.000000   0.000000
   25       65.711165     65.708830   0.000000   0.000000
   26       66.829954     66.828015   0.000000   0.000000
   27       66.829954     66.828015   0.000000   0.000000
   28       67.067301     67.063653   0.000000   0.000000
   29       74.229851     74.229393   0.000000   0.000000
   30       74.229853     74.229394   0.000000   0.000000
   31       74.680348     74.677621   0.000000   0.000000
   32       77.371903     77.371795   0.000000   0.000000
   33       78.711361     78.711896   0.000000   0.000000
   34       78.711362     78.711896   0.000000   0.000000
   35       80.018632     80.017129   0.000000   0.000000
   36       80.018636     80.017130   0.000000   0.000000
   37       80.416332     80.415920   0.000000   0.000000
   38       88.676866     88.673459   0.000000   0.000000
   39       88.940573     88.939346   0.000000   0.000000
   40       88.940574     88.939346   0.000000   0.000000
   41       89.401458     89.399803   0.000000   0.000000
   42       89.401468     89.399806   0.000000   0.000000
   43       91.322882     91.322317   0.000000   0.000000
   44       93.185615     93.184957   0.000000   0.000000
   45       97.698135     97.697081   0.000000   0.000000
   46       97.698132     97.697098   0.000000   0.000000
   47      101.567905    101.566523   0.000000   0.000000
   48      103.070150    103.070061   0.000000   0.000000

  0.3529412E+00  0.1223299E-14  0.1223299E-14  0.1628333E-02
    1        0.185539      0.184260   1.000000   1.000000
    2        7.793436      7.792075   0.606271   0.607177
    3       18.693427     18.691279   0.000000   0.000000
    4       18.693427     18.691279   0.000000   0.000000
    5       20.979146     20.976876   0.000000   0.000000
    6       20.979146     20.976876   0.000000   0.000000
    7       22.269166     22.266996   0.000000   0.000000
    8       24.920492     24.918265   0.000000   0.000000
    9       29.584258     29.580982   0.000000   0.000000
   10       29.584258     29.580983   0.000000   0.000000
   11       36.089539     36.087561   0.000000   0.000000
   12       42.157740     42.155586   0.000000   0.000000
   13       42.157740     42.155586   0.000000   0.000000
   14       44.531318     44.528376   0.000000   0.000000
   15       46.117156     46.116076   0.000000   0.000000
   16       46.117156     46.116076   0.000000   0.000000
   17       48.457102     48.455840   0.000000   0.000000
   18       51.439298     51.439166   0.000000   0.000000
   19       56.302107     56.300976   0.000000   0.000000
   20       56.302108     56.300977   0.000000   0.000000
   21       56.615235     56.614224   0.000000   0.000000
   22       57.029235     57.028196   0.000000   0.000000
   23       61.666731     61.664375   0.000000   0.000000
   24       61.666732     61.664376   0.000000   0.000000
   25       64.038165     64.035227   0.000000   0.000000
   26       64.598744     64.597783   0.000000   0.000000
   27       64.598745     64.597784   0.000000   0.000000
   28       67.827827     67.823827   0.000000   0.000000
   29       70.477817     70.476904   0.000000   0.000000
   30       73.880398     73.879975   0.000000   0.000000
   31       73.880400     73.879976   0.000000   0.000000
   32       76.566805     76.565292   0.000000   0.000000
   33       77.211583     77.211854   0.000000   0.000000
   34       77.211584     77.211854   0.000000   0.000000
   35       78.524499     78.524453   0.000000   0.000000
   36       80.402527     80.401668   0.000000   0.000000
   37       80.402527     80.401669   0.000000   0.000000
   38       88.553018     88.549589   0.000000   0.000000
   39       89.161349     89.159753   0.000000   0.000000
   40       89.161356     89.159754   0.000000   0.000000
   41       90.641329     90.641548   0.000000   0.000000
   42       91.536115     91.534648   0.000000   0.000000
   43       91.536114     91.534649   0.000000   0.000000
   44       94.135377     94.134689   0.000000   0.000000
   45       98.701838     98.700518   0.000000   0.000000
   46       98.701852     98.700533   0.000000   0.000000
   47      102.119016    102.116838   0.000000   0.000000
   48      104.045799    104.045464   0.000000   0.000000

  0.4117647E+00  0.1238944E-14  0.1238944E-14  0.1628333E-02
    1        1.371926      1.370653   1.000000   1.000000
    2        5.949171      5.947818   1.000000   1.000000
    3       18.835338     18.833133   0.000000   0.000000
    4       18.835338     18.833134   0.000000   0.000000
    5       20.210613     20.208447   0.000000   0.000000
    6       20.210613     20.208447   0.000000   0.000000
    7       22.479932     22.477848   0.000000   0.000000
    8       24.086549     24.084267   0.000000   0.000000
    9       31.223495     31.219784   0.000000   0.000000
   10       31.223495     31.219784   0.000000   0.000000
   11       37.946277     37.943825   0.000000   0.000000
   12       40.405594     40.404227   0.000000   0.000000
   13       40.405594     40.404228   0.000000   0.000000
   14       46.412646     46.411244   0.000000   0.000000
   15       48.186401     48.183985   0.000000   0.000000
   16       48.418121     48.416533   0.000000   0.000000
   17       48.418121     48.416533   0.000000   0.000000
   18       53.639191     53.639130   0.000000   0.000000
   19       55.336131     55.335069   0.000000   0.000000
   20       56.086087     56.084954   0.000000   0.000000
   21       56.086087     56.084954   0.000000   0.000000
   22       57.272615     57.271402   0.000000   0.000000
   23       59.396306     59.393908   0.000000   0.000000
   24       59.396307     59.393908   0.000000   0.000000
   25       62.602669     62.599643   0.000000   0.000000
   26       64.169616     64.168902   0.000000   0.000000
   27       64.169616     64.168903   0.000000   0.000000
   28       66.187448     66.186961   0.000000   0.000000
   29       68.558793     68.554315   0.000000   0.000000
   30       73.674296     73.673884   0.000000   0.000000
   31       73.674299     73.673887   0.000000   0.000000
   32       76.052089     76.052174   0.000000   0.000000
   33       76.052089     76.052175   0.000000   0.000000
   34       76.688804     76.687040   0.000000   0.000000
   35       77.039246     77.039687   0.000000   0.000000
   36       80.524920     80.524445   0.000000   0.000000
   37       80.524920     80.524447   0.000000   0.000000
   38       88.534747     88.531316   0.000000   0.000000
   39       88.970916     88.969383   0.000000   0.000000
   40       88.970925     88.969379   0.000000   0.000000
   41       89.726937     89.727252   0.000000   0.000000
   42       93.943012     93.941537   0.000000   0.000000
   43       93.943009     93.941541   0.000000   0.000000
   44       94.329805     94.329541   0.000000   0.000000
   45      100.335342    100.334131   0.000000   0.000000
   46      100.335594    100.334244   0.000000   0.000000
   47      103.838476    103.835907   0.000000   0.000000
   48      104.214499    104.213450   0.000000   0.000000

  0.4705882E+00  0.1240045E-14  0.1240045E-14  0.1628333E-02
    1        2.726278      2.725048   1.000000   1.000000
    2        4.265274      4.263885   1.000000   1.000000
    3       19.132999     19.130619   0.000000   0.000000
    4       19.132999     19.130619   0.000000   0.000000
    5       19.598004     19.596034   0.000000   0.000000
    6       19.598004     19.596034   0.000000   0.000000
    7       22.849019     22.847199   0.000000   0.000000
    8       23.398972     23.396440   0.000000   0.000000
    9       32.469497     32.465177   0.000000   0.000000
   10       32.469497     32.465178   0.000000   0.000000
   11       38.924207     38.923548   0.000000   0.000000
   12       38.924207     38.923548   0.000000   0.000000
   13       39.276879     39.273827   0.000000   0.000000
   14       45.586700     45.586718   0.000000   0.000000
   15       50.124895     50.121438   0.000000   0.000000
   16       50.943724     50.941812   0.000000   0.000000
   17       50.943724     50.941812   0.000000   0.000000
   18       53.845063     53.843851   0.000000   0.000000
   19       55.093618     55.092326   0.000000   0.000000
   20       55.093618     55.092326   0.000000   0.000000
   21       55.920617     55.920447   0.000000   0.000000
   22       57.678240     57.676307   0.000000   0.000000
   23       57.678240     57.676307   0.000000   0.000000
   24       57.944826     57.943505   0.000000   0.000000
   25       61.230412     61.229177   0.000000   0.000000
   26       63.022925     63.021219   0.000000   0.000000
   27       64.256353     64.255583   0.000000   0.000000
   28       64.256353     64.255584   0.000000   0.000000
   29       69.051891     69.046967   0.000000   0.000000
   30       73.588245     73.587859   0.000000   0.000000
   31       73.588245     73.587859   0.000000   0.000000
   32       75.415970     75.415948   0.000000   0.000000
   33       75.415970     75.415948   0.000000   0.000000
   34       76.169658     76.170552   0.000000   0.000000
   35       76.912000     76.910157   0.000000   0.000000
   36       80.543837     80.543525   0.000000   0.000000
   37       80.543838     80.543527   0.000000   0.000000
   38       88.633160     88.629190   0.000000   0.000000
   39       88.862582     88.861063   0.000000   0.000000
   40       88.862582     88.861065   0.000000   0.000000
   41       89.069594     89.070469   0.000000   0.000000
   42       94.164712     94.164627   0.000000   0.000000
   43       95.355719     95.354272   0.000000   0.000000
   44       95.355720     95.354273   0.000000   0.000000
   45      101.305410    101.305058   0.000000   0.000000
   46      101.305411    101.305058   0.000000   0.000000
   47      105.826719    105.824315   0.000000   0.000000
   48      105.826723    105.824315   0.000000   0.000000

  0.5882353E-01  0.5882353E-01  0.1262379E-14  0.1221250E-02
    1       -3.026644     -3.027924   1.000000   1.000000
    2       19.426125     19.424362   0.000000   0.000000
    3       19.426125     19.424362   0.000000   0.000000
    4       19.707878     19.707237   0.000000   0.000000
    5       21.695536     21.691125   0.000000   0.000000
    6       23.291773     23.288201   0.000000   0.000000
    7       23.291773     23.288202   0.000000   0.000000
    8       25.458606     25.458531   0.000000   0.000000
    9       25.811140     25.808844   0.000000   0.000000
   10       27.430181     27.427267   0.000000   0.000000
   11       30.204582     30.201626   0.000000   0.000000
   12       32.653829     32.653251   0.000000   0.000000
   13       32.653830     32.653251   0.000000   0.000000
   14       34.204310     34.202940   0.000000   0.000000
   15       41.594732     41.592365   0.000000   0.000000
   16       55.666958     55.666655   0.000000   0.000000
   17       55.771795     55.770631   0.000000   0.000000
   18       55.771795     55.770631   0.000000   0.000000
   19       56.382117     56.381509   0.000000   0.000000
   20       58.187907     58.185469   0.000000   0.000000
   21       58.187907     58.185469   0.000000   0.000000
   22       59.296691     59.294179   0.000000   0.000000
   23       59.863053     59.862093   0.000000   0.000000
   24       62.817453     62.817528   0.000000   0.000000
   25       66.303491     66.300501   0.000000   0.000000
   26       66.303492     66.300501   0.000000   0.000000
   27       68.216070     68.214101   0.000000   0.000000
   28       71.785250     71.784017   0.000000   0.000000
   29       73.292677     73.291707   0.000000   0.000000
   30       73.292677     73.291708   0.000000   0.000000
   31       81.377367     81.375842   0.000000   0.000000
   32       82.839065     82.837666   0.000000   0.000000
   33       82.917275     82.916000   0.000000   0.000000
   34       85.005854     85.004250   0.000000   0.000000
   35       85.005854     85.004250   0.000000   0.000000
   36       85.346812     85.344448   0.000000   0.000000
   37       89.853999     89.851866   0.000000   0.000000
   38       89.853999     89.851866   0.000000   0.000000
   39       90.639967     90.640883   0.000000   0.000000
   40       91.139996     91.138574   0.000000   0.000000
   41       91.139996     91.138575   0.000000   0.000000
   42       91.567717     91.562887   0.000000   0.000000
   43       92.969218     92.967462   0.000000   0.000000
   44       93.489212     93.485876   0.000000   0.000000
   45       94.041439     94.041692   0.000000   0.000000
   46       96.657438     96.655676   0.000000   0.000000
   47       96.657438     96.655676   0.000000   0.000000
   48       98.332606     98.333569   0.000000   0.000000

  0.1176471E+00  0.5882353E-01  0.1264535E-14  0.4884999E-02
    1       -2.808171     -2.809451   1.000000   1.000000
    2       17.352021     17.350561   0.000000   0.000000
    3       18.752062     18.750167   0.000000   0.000000
    4       19.763792     19.762513   0.000000   0.000000
    5       21.879833     21.875624   0.000000   0.000000
    6       23.685659     23.682726   0.000000   0.000000
    7       24.272297     24.268693   0.000000   0.000000
    8       24.464632     24.462668   0.000000   0.000000
    9       27.034270     27.031696   0.000000   0.000000
   10       27.134536     27.133828   0.000000   0.000000
   11       29.939092     29.936516   0.000000   0.000000
   12       33.503263     33.502217   0.000000   0.000000
   13       33.515898     33.515091   0.000000   0.000000
   14       35.657790     35.656091   0.000000   0.000000
   15       42.481662     42.479438   0.000000   0.000000
   16       54.719719     54.718063   0.000000   0.000000
   17       54.847991     54.846942   0.000000   0.000000
   18       55.724969     55.724133   0.000000   0.000000
   19       56.290532     56.289786   0.000000   0.000000
   20       56.819509     56.818045   0.000000   0.000000
   21       57.117256     57.115355   0.000000   0.000000
   22       59.264715     59.263240   0.000000   0.000000