unknown system                          
           1
     0.000000    2.024000    2.024000
     2.024000    0.000000    2.024000
     2.024000    2.024000    0.000000
   Al
     1
Direct configuration=     1
   0.00000000  0.00000000  0.00000000
