 vasp.6.2.1 16May21 (build Aug 15 2022 14:47:30) complex                         
 executed on             LinuxGNU date 2025.12.24  15:19:29
 running on    4 total cores
 distrk:  each k-point on    4 cores,    1 groups
 distr:  one band on NCORE=   1 cores,    4 groups


--------------------------------------------------------------------------------------------------------


 INCAR:
   ALGO = Fast
   EDIFF = 1e-8
   ENCUT = 520.0
   ISMEAR = 1
   LASPH = True
   LCHARG = True
   LORBIT = 11
   LREAL = False
   LWAVE = False
   NELM = 100
   NSW = 0
   PREC = Accurate

 POTCAR:   PAW_PBE Cu_pv 06Sep2000                
 POTCAR:   PAW_PBE Cu_pv 06Sep2000                
   VRHFIN =Cu: d10 p1                                                                               
   LEXCH  = PE                                                                                      
   EATOM  =  4119.1903 eV,  302.7519 Ry                                                             
                                                                                                    
   TITEL  = PAW_PBE Cu_pv 06Sep2000                                                                 
   LULTRA =        F    use ultrasoft PP ?                                                          
   IUNSCR =        1    unscreen: 0-lin 1-nonlin 2-no                                               
   RPACOR =    1.500    partial core radius                                                         
   POMASS =   63.546; ZVAL   =   17.000    mass and valenz                                          
   RCORE  =    2.000    outmost cutoff radius                                                       
   RWIGS  =    2.000; RWIGS  =    1.058    wigner-seitz radius (au A)                               
   ENMAX  =  368.605; ENMIN  =  276.454 eV                                                          
   RCLOC  =    1.304    cutoff for local pot                                                        
   LCOR   =        T    correct aug charges                                                         
   LPAW   =        T    paw PP                                                                      
   EAUG   =  758.233                                                                                
   DEXC   =    -.002                                                                                
   RMAX   =    2.402    core radius for proj-oper                                                   
   RAUG   =    1.300    factor for augmentation sphere                                              
   RDEP   =    2.025    radius for radial grids                                                     
   QCUT   =   -5.205; QGAM   =   10.410    optimization parameters                                  
                                                                                                    
   Description                                                                                      
     l     E      TYP  RCUT    TYP  RCUT                                                            
     1   .000     23  1.700                                                                         
     1  -.100     23  1.700                                                                         
     2   .000     23  2.000                                                                         
     2   .000     23  2.000                                                                         
     0   .000     23  1.800                                                                         
     0   .000     23  1.800                                                                         
     3   .000      7   .000                                                                         
  local pseudopotential read in
  partial core-charges read in
  atomic valenz-charges read in
  non local Contribution for L=           1  read in
    real space projection operators read in
  non local Contribution for L=           1  read in
    real space projection operators read in
  non local Contribution for L=           2  read in
    real space projection operators read in
  non local Contribution for L=           2  read in
    real space projection operators read in
  non local Contribution for L=           0  read in
    real space projection operators read in
  non local Contribution for L=           0  read in
    real space projection operators read in
    PAW grid and wavefunctions read in

   number of l-projection  operators is LMAX  =           6
   number of lm-projection operators is LMMAX =          18

 PAW_PBE Cu_pv 06Sep2000                :
 energy of atom  1       EATOM=-4119.1903
 kinetic energy error for atom=    0.0541 (will be added to EATOM!!)


 POSCAR: # Generated by Masgent for elastic const
  positions in direct lattice
  No initial velocities read in
 exchange correlation table for  LEXCH =        8
   RHO(1)=    0.500       N(1)  =     2000
   RHO(2)=  100.500       N(2)  =     4000

 VTST: version 4.2, (08/11/21)

 CHAIN: initializing optimizer
 
 OPT: Using VASP Dynamics algorithm
 CHAIN: Read ICHAIN            0

 POSCAR: # Generated by Masgent for elastic const
  positions in direct lattice
  No initial velocities read in



--------------------------------------------------------------------------------------------------------


 ion  position               nearest neighbor table
   1  0.000  0.000  0.000-   3 2.52   3 2.52   4 2.53   2 2.53   2 2.53   4 2.53   2 2.53   4 2.53
                             2 2.53   4 2.53
   2  0.000  0.500  0.500-   4 2.52   4 2.52   1 2.53   1 2.53   1 2.53   3 2.53   1 2.53   3 2.53
                             3 2.53   3 2.53
   3  0.500  0.000  0.500-   1 2.52   1 2.52   4 2.53   4 2.53   2 2.53   4 2.53   4 2.53   2 2.53
                             2 2.53   2 2.53
   4  0.500  0.500  0.000-   2 2.52   2 2.52   3 2.53   3 2.53   1 2.53   3 2.53   3 2.53   1 2.53
                             1 2.53   1 2.53

  LATTYP: Found a base centered orthorhombic cell.
 ALAT       =     5.0339547193
 B/A-ratio  =     1.0100502513
 C/A-ratio  =     0.7106600816
  
  Lattice vectors:
  
 A1 = (  -0.0178871534,   0.0000000000,   3.5774306716)
 A2 = (   3.5774306716,   0.0000000000,  -0.0178871534)
 A3 = (   0.0000000000,   3.5774306716,   0.0000000000)


Analysis of symmetry for initial positions (statically):
=====================================================================
 Subroutine PRICEL returns following result:
 
  LATTYP: Found a body centered orthorhombic cell.
 ALAT       =     2.5169773597
 B/A-ratio  =     1.0100502513
 C/A-ratio  =     1.4213201632
  
  Lattice vectors:
  
 A1 = (  -0.0089435767,   1.7887153358,   1.7887153358)
 A2 = (   0.0089435767,   1.7887153358,  -1.7887153358)
 A3 = (  -1.7887153358,  -1.7887153358,   0.0089435767)
 
   4 primitive cells build up your supercell.
 

 Routine SETGRP: Setting up the symmetry group for a 
 base centered orthorhombic supercell.


 Subroutine GETGRP returns: Found  8 space group operations
 (whereof  8 operations were pure point group operations)
 out of a pool of  8 trial point group operations.


The static configuration has the point symmetry D_2h.


Analysis of symmetry for dynamics (positions and initial velocities):
=====================================================================
 Subroutine PRICEL returns following result:
 
  LATTYP: Found a body centered orthorhombic cell.
 ALAT       =     2.5169773597
 B/A-ratio  =     1.0100502513
 C/A-ratio  =     1.4213201632
  
  Lattice vectors:
  
 A1 = (  -0.0089435767,   1.7887153358,   1.7887153358)
 A2 = (   0.0089435767,   1.7887153358,  -1.7887153358)
 A3 = (  -1.7887153358,  -1.7887153358,   0.0089435767)
 
   4 primitive cells build up your supercell.
 

 Routine SETGRP: Setting up the symmetry group for a 
 base centered orthorhombic supercell.


 Subroutine GETGRP returns: Found  8 space group operations
 (whereof  8 operations were pure point group operations)
 out of a pool of  8 trial point group operations.


The dynamic configuration has the point symmetry D_2h.


 Subroutine INISYM returns: Found  8 space group operations
 (whereof  8 operations are pure point group operations),
 and found     4 'primitive' translations


----------------------------------------------------------------------------------------

                                     Primitive cell                                     

  volume of cell :      11.4457

  direct lattice vectors                    reciprocal lattice vectors
    -0.008943577  1.788715336  1.788715336    -0.278139527  0.279530225  0.278139527
     0.008943577  1.788715336 -1.788715336    -0.280934899  0.279530225 -0.280934899
    -1.788715336 -1.788715336  0.008943577    -0.559074427  0.000000000 -0.002795372

  length of vectors
     2.529641297  2.529641297  2.529641297     0.482556048  0.485783884  0.559081415

  position of ions in fractional coordinates (direct lattice)
     0.000000000  0.000000000  0.000000000

  ion indices of the primitive-cell ions
   primitive index   ion index
                 1           1

----------------------------------------------------------------------------------------



 KPOINTS: # Generated by Masgent for elastic const

Automatic generation of k-mesh.
 Grid dimensions read from file:
 generate k-points for:   12   12   12

 Generating k-lattice:

  Cartesian coordinates                     Fractional coordinates (reciprocal lattice)
     0.023294768 -0.000000000  0.000116474     0.083333333  0.000000000  0.000000000
    -0.000000000  0.023294185 -0.000000000     0.000000000  0.083333333  0.000000000
     0.000116474 -0.000000000  0.023294768    -0.000000000  0.000000000  0.083333333

  Length of vectors
     0.023295059  0.023294185  0.023295059

  Shift w.r.t. Gamma in fractional coordinates (k-lattice)
     0.000000000  0.000000000  0.000000000

 
 Subroutine IBZKPT returns following result:
 ===========================================
 
 Found    301 irreducible k-points:
 
 Following reciprocal coordinates:
            Coordinates               Weight
  0.000000  0.000000  0.000000      1.000000
  0.083333  0.000000  0.000000      4.000000
  0.166667  0.000000  0.000000      4.000000
  0.250000  0.000000  0.000000      4.000000
  0.333333  0.000000  0.000000      4.000000
  0.416667  0.000000  0.000000      4.000000
  0.500000  0.000000  0.000000      2.000000
  0.000000  0.083333  0.000000      2.000000
  0.083333  0.083333  0.000000      8.000000
  0.166667  0.083333  0.000000      8.000000
  0.250000  0.083333  0.000000      8.000000
  0.333333  0.083333  0.000000      8.000000
  0.416667  0.083333  0.000000      8.000000
  0.500000  0.083333  0.000000      4.000000
  0.000000  0.166667  0.000000      2.000000
  0.083333  0.166667  0.000000      8.000000
  0.166667  0.166667  0.000000      8.000000
  0.250000  0.166667  0.000000      8.000000
  0.333333  0.166667  0.000000      8.000000
  0.416667  0.166667  0.000000      8.000000
  0.500000  0.166667  0.000000      4.000000
  0.000000  0.250000  0.000000      2.000000
  0.083333  0.250000  0.000000      8.000000
  0.166667  0.250000  0.000000      8.000000
  0.250000  0.250000  0.000000      8.000000
  0.333333  0.250000  0.000000      8.000000
  0.416667  0.250000  0.000000      8.000000
  0.500000  0.250000  0.000000      4.000000
  0.000000  0.333333  0.000000      2.000000
  0.083333  0.333333  0.000000      8.000000
  0.166667  0.333333  0.000000      8.000000
  0.250000  0.333333  0.000000      8.000000
  0.333333  0.333333  0.000000      8.000000
  0.416667  0.333333  0.000000      8.000000
  0.500000  0.333333  0.000000      4.000000
  0.000000  0.416667  0.000000      2.000000
  0.083333  0.416667  0.000000      8.000000
  0.166667  0.416667  0.000000      8.000000
  0.250000  0.416667  0.000000      8.000000
  0.333333  0.416667  0.000000      8.000000
  0.416667  0.416667  0.000000      8.000000
  0.500000  0.416667  0.000000      4.000000
  0.000000  0.500000  0.000000      1.000000
  0.083333  0.500000  0.000000      4.000000
  0.166667  0.500000  0.000000      4.000000
  0.250000  0.500000  0.000000      4.000000
  0.333333  0.500000  0.000000      4.000000
  0.416667  0.500000  0.000000      4.000000
  0.500000  0.500000  0.000000      2.000000
  0.083333  0.000000  0.083333      2.000000
  0.166667  0.000000  0.083333      4.000000
  0.250000  0.000000  0.083333      4.000000
  0.333333  0.000000  0.083333      4.000000
  0.416667  0.000000  0.083333      4.000000
  0.500000  0.000000  0.083333      4.000000
 -0.416667  0.000000  0.083333      4.000000
 -0.333333  0.000000  0.083333      4.000000
 -0.250000  0.000000  0.083333      4.000000
 -0.166667  0.000000  0.083333      4.000000
 -0.083333  0.000000  0.083333      2.000000
  0.083333  0.083333  0.083333      4.000000
  0.166667  0.083333  0.083333      8.000000
  0.250000  0.083333  0.083333      8.000000
  0.333333  0.083333  0.083333      8.000000
  0.416667  0.083333  0.083333      8.000000
  0.500000  0.083333  0.083333      8.000000
 -0.416667  0.083333  0.083333      8.000000
 -0.333333  0.083333  0.083333      8.000000
 -0.250000  0.083333  0.083333      8.000000
 -0.166667  0.083333  0.083333      8.000000
 -0.083333  0.083333  0.083333      4.000000
  0.083333  0.166667  0.083333      4.000000
  0.166667  0.166667  0.083333      8.000000
  0.250000  0.166667  0.083333      8.000000
  0.333333  0.166667  0.083333      8.000000
  0.416667  0.166667  0.083333      8.000000
  0.500000  0.166667  0.083333      8.000000
 -0.416667  0.166667  0.083333      8.000000
 -0.333333  0.166667  0.083333      8.000000
 -0.250000  0.166667  0.083333      8.000000
 -0.166667  0.166667  0.083333      8.000000
 -0.083333  0.166667  0.083333      4.000000
  0.083333  0.250000  0.083333      4.000000
  0.166667  0.250000  0.083333      8.000000
  0.250000  0.250000  0.083333      8.000000
  0.333333  0.250000  0.083333      8.000000
  0.416667  0.250000  0.083333      8.000000
  0.500000  0.250000  0.083333      8.000000
 -0.416667  0.250000  0.083333      8.000000
 -0.333333  0.250000  0.083333      8.000000
 -0.250000  0.250000  0.083333      8.000000
 -0.166667  0.250000  0.083333      8.000000
 -0.083333  0.250000  0.083333      4.000000
  0.083333  0.333333  0.083333      4.000000
  0.166667  0.333333  0.083333      8.000000
  0.250000  0.333333  0.083333      8.000000
  0.333333  0.333333  0.083333      8.000000
  0.416667  0.333333  0.083333      8.000000
  0.500000  0.333333  0.083333      8.000000
 -0.416667  0.333333  0.083333      8.000000
 -0.333333  0.333333  0.083333      8.000000
 -0.250000  0.333333  0.083333      8.000000
 -0.166667  0.333333  0.083333      8.000000
 -0.083333  0.333333  0.083333      4.000000
  0.083333  0.416667  0.083333      4.000000
  0.166667  0.416667  0.083333      8.000000
  0.250000  0.416667  0.083333      8.000000
  0.333333  0.416667  0.083333      8.000000
  0.416667  0.416667  0.083333      8.000000
  0.500000  0.416667  0.083333      8.000000
 -0.416667  0.416667  0.083333      8.000000
 -0.333333  0.416667  0.083333      8.000000
 -0.250000  0.416667  0.083333      8.000000
 -0.166667  0.416667  0.083333      8.000000
 -0.083333  0.416667  0.083333      4.000000
  0.083333  0.500000  0.083333      2.000000
  0.166667  0.500000  0.083333      4.000000
  0.250000  0.500000  0.083333      4.000000
  0.333333  0.500000  0.083333      4.000000
  0.416667  0.500000  0.083333      4.000000
  0.500000  0.500000  0.083333      4.000000
 -0.416667  0.500000  0.083333      4.000000
 -0.333333  0.500000  0.083333      4.000000
 -0.250000  0.500000  0.083333      4.000000
 -0.166667  0.500000  0.083333      4.000000
 -0.083333  0.500000  0.083333      2.000000
  0.166667  0.000000  0.166667      2.000000
  0.250000  0.000000  0.166667      4.000000
  0.333333  0.000000  0.166667      4.000000
  0.416667  0.000000  0.166667      4.000000
  0.500000  0.000000  0.166667      4.000000
 -0.416667  0.000000  0.166667      4.000000
 -0.333333  0.000000  0.166667      4.000000
 -0.250000  0.000000  0.166667      4.000000
 -0.166667  0.000000  0.166667      2.000000
  0.166667  0.083333  0.166667      4.000000
  0.250000  0.083333  0.166667      8.000000
  0.333333  0.083333  0.166667      8.000000
  0.416667  0.083333  0.166667      8.000000
  0.500000  0.083333  0.166667      8.000000
 -0.416667  0.083333  0.166667      8.000000
 -0.333333  0.083333  0.166667      8.000000
 -0.250000  0.083333  0.166667      8.000000
 -0.166667  0.083333  0.166667      4.000000
  0.166667  0.166667  0.166667      4.000000
  0.250000  0.166667  0.166667      8.000000
  0.333333  0.166667  0.166667      8.000000
  0.416667  0.166667  0.166667      8.000000
  0.500000  0.166667  0.166667      8.000000
 -0.416667  0.166667  0.166667      8.000000
 -0.333333  0.166667  0.166667      8.000000
 -0.250000  0.166667  0.166667      8.000000
 -0.166667  0.166667  0.166667      4.000000
  0.166667  0.250000  0.166667      4.000000
  0.250000  0.250000  0.166667      8.000000
  0.333333  0.250000  0.166667      8.000000
  0.416667  0.250000  0.166667      8.000000
  0.500000  0.250000  0.166667      8.000000
 -0.416667  0.250000  0.166667      8.000000
 -0.333333  0.250000  0.166667      8.000000
 -0.250000  0.250000  0.166667      8.000000
 -0.166667  0.250000  0.166667      4.000000
  0.166667  0.333333  0.166667      4.000000
  0.250000  0.333333  0.166667      8.000000
  0.333333  0.333333  0.166667      8.000000
  0.416667  0.333333  0.166667      8.000000
  0.500000  0.333333  0.166667      8.000000
 -0.416667  0.333333  0.166667      8.000000
 -0.333333  0.333333  0.166667      8.000000
 -0.250000  0.333333  0.166667      8.000000
 -0.166667  0.333333  0.166667      4.000000
  0.166667  0.416667  0.166667      4.000000
  0.250000  0.416667  0.166667      8.000000
  0.333333  0.416667  0.166667      8.000000
  0.416667  0.416667  0.166667      8.000000
  0.500000  0.416667  0.166667      8.000000
 -0.416667  0.416667  0.166667      8.000000
 -0.333333  0.416667  0.166667      8.000000
 -0.250000  0.416667  0.166667      8.000000
 -0.166667  0.416667  0.166667      4.000000
  0.166667  0.500000  0.166667      2.000000
  0.250000  0.500000  0.166667      4.000000
  0.333333  0.500000  0.166667      4.000000
  0.416667  0.500000  0.166667      4.000000
  0.500000  0.500000  0.166667      4.000000
 -0.416667  0.500000  0.166667      4.000000
 -0.333333  0.500000  0.166667      4.000000
 -0.250000  0.500000  0.166667      4.000000
 -0.166667  0.500000  0.166667      2.000000
  0.250000  0.000000  0.250000      2.000000
  0.333333  0.000000  0.250000      4.000000
  0.416667  0.000000  0.250000      4.000000
  0.500000  0.000000  0.250000      4.000000
 -0.416667  0.000000  0.250000      4.000000
 -0.333333  0.000000  0.250000      4.000000
 -0.250000  0.000000  0.250000      2.000000
  0.250000  0.083333  0.250000      4.000000
  0.333333  0.083333  0.250000      8.000000
  0.416667  0.083333  0.250000      8.000000
  0.500000  0.083333  0.250000      8.000000
 -0.416667  0.083333  0.250000      8.000000
 -0.333333  0.083333  0.250000      8.000000
 -0.250000  0.083333  0.250000      4.000000
  0.250000  0.166667  0.250000      4.000000
  0.333333  0.166667  0.250000      8.000000
  0.416667  0.166667  0.250000      8.000000
  0.500000  0.166667  0.250000      8.000000
 -0.416667  0.166667  0.250000      8.000000
 -0.333333  0.166667  0.250000      8.000000
 -0.250000  0.166667  0.250000      4.000000
  0.250000  0.250000  0.250000      4.000000
  0.333333  0.250000  0.250000      8.000000
  0.416667  0.250000  0.250000      8.000000
  0.500000  0.250000  0.250000      8.000000
 -0.416667  0.250000  0.250000      8.000000
 -0.333333  0.250000  0.250000      8.000000
 -0.250000  0.250000  0.250000      4.000000
  0.250000  0.333333  0.250000      4.000000
  0.333333  0.333333  0.250000      8.000000
  0.416667  0.333333  0.250000      8.000000
  0.500000  0.333333  0.250000      8.000000
 -0.416667  0.333333  0.250000      8.000000
 -0.333333  0.333333  0.250000      8.000000
 -0.250000  0.333333  0.250000      4.000000
  0.250000  0.416667  0.250000      4.000000
  0.333333  0.416667  0.250000      8.000000
  0.416667  0.416667  0.250000      8.000000
  0.500000  0.416667  0.250000      8.000000
 -0.416667  0.416667  0.250000      8.000000
 -0.333333  0.416667  0.250000      8.000000
 -0.250000  0.416667  0.250000      4.000000
  0.250000  0.500000  0.250000      2.000000
  0.333333  0.500000  0.250000      4.000000
  0.416667  0.500000  0.250000      4.000000
  0.500000  0.500000  0.250000      4.000000
 -0.416667  0.500000  0.250000      4.000000
 -0.333333  0.500000  0.250000      4.000000
 -0.250000  0.500000  0.250000      2.000000
  0.333333  0.000000  0.333333      2.000000
  0.416667  0.000000  0.333333      4.000000
  0.500000  0.000000  0.333333      4.000000
 -0.416667  0.000000  0.333333      4.000000
 -0.333333  0.000000  0.333333      2.000000
  0.333333  0.083333  0.333333      4.000000
  0.416667  0.083333  0.333333      8.000000
  0.500000  0.083333  0.333333      8.000000
 -0.416667  0.083333  0.333333      8.000000
 -0.333333  0.083333  0.333333      4.000000
  0.333333  0.166667  0.333333      4.000000
  0.416667  0.166667  0.333333      8.000000
  0.500000  0.166667  0.333333      8.000000
 -0.416667  0.166667  0.333333      8.000000
 -0.333333  0.166667  0.333333      4.000000
  0.333333  0.250000  0.333333      4.000000
  0.416667  0.250000  0.333333      8.000000
  0.500000  0.250000  0.333333      8.000000
 -0.416667  0.250000  0.333333      8.000000
 -0.333333  0.250000  0.333333      4.000000
  0.333333  0.333333  0.333333      4.000000
  0.416667  0.333333  0.333333      8.000000
  0.500000  0.333333  0.333333      8.000000
 -0.416667  0.333333  0.333333      8.000000
 -0.333333  0.333333  0.333333      4.000000
  0.333333  0.416667  0.333333      4.000000
  0.416667  0.416667  0.333333      8.000000
  0.500000  0.416667  0.333333      8.000000
 -0.416667  0.416667  0.333333      8.000000
 -0.333333  0.416667  0.333333      4.000000
  0.333333  0.500000  0.333333      2.000000
  0.416667  0.500000  0.333333      4.000000
  0.500000  0.500000  0.333333      4.000000
 -0.416667  0.500000  0.333333      4.000000
 -0.333333  0.500000  0.333333      2.000000
  0.416667  0.000000  0.416667      2.000000
  0.500000  0.000000  0.416667      4.000000
 -0.416667  0.000000  0.416667      2.000000
  0.416667  0.083333  0.416667      4.000000
  0.500000  0.083333  0.416667      8.000000
 -0.416667  0.083333  0.416667      4.000000
  0.416667  0.166667  0.416667      4.000000
  0.500000  0.166667  0.416667      8.000000
 -0.416667  0.166667  0.416667      4.000000
  0.416667  0.250000  0.416667      4.000000
  0.500000  0.250000  0.416667      8.000000
 -0.416667  0.250000  0.416667      4.000000
  0.416667  0.333333  0.416667      4.000000
  0.500000  0.333333  0.416667      8.000000
 -0.416667  0.333333  0.416667      4.000000
  0.416667  0.416667  0.416667      4.000000
  0.500000  0.416667  0.416667      8.000000
 -0.416667  0.416667  0.416667      4.000000
  0.416667  0.500000  0.416667      2.000000
  0.500000  0.500000  0.416667      4.000000
 -0.416667  0.500000  0.416667      2.000000
  0.500000  0.000000  0.500000      1.000000
  0.500000  0.083333  0.500000      2.000000
  0.500000  0.166667  0.500000      2.000000
  0.500000  0.250000  0.500000      2.000000
  0.500000  0.333333  0.500000      2.000000
  0.500000  0.416667  0.500000      2.000000
  0.500000  0.500000  0.500000      1.000000
 
 Following cartesian coordinates:
            Coordinates               Weight
  0.000000  0.000000  0.000000      1.000000
  0.023295  0.000000  0.000116      4.000000
  0.046590  0.000000  0.000233      4.000000
  0.069884  0.000000  0.000349      4.000000
  0.093179  0.000000  0.000466      4.000000
  0.116474  0.000000  0.000582      4.000000
  0.139769  0.000000  0.000699      2.000000
  0.000000  0.023294  0.000000      2.000000
  0.023295  0.023294  0.000116      8.000000
  0.046590  0.023294  0.000233      8.000000
  0.069884  0.023294  0.000349      8.000000
  0.093179  0.023294  0.000466      8.000000
  0.116474  0.023294  0.000582      8.000000
  0.139769  0.023294  0.000699      4.000000
  0.000000  0.046588  0.000000      2.000000
  0.023295  0.046588  0.000116      8.000000
  0.046590  0.046588  0.000233      8.000000
  0.069884  0.046588  0.000349      8.000000
  0.093179  0.046588  0.000466      8.000000
  0.116474  0.046588  0.000582      8.000000
  0.139769  0.046588  0.000699      4.000000
  0.000000  0.069883  0.000000      2.000000
  0.023295  0.069883  0.000116      8.000000
  0.046590  0.069883  0.000233      8.000000
  0.069884  0.069883  0.000349      8.000000
  0.093179  0.069883  0.000466      8.000000
  0.116474  0.069883  0.000582      8.000000
  0.139769  0.069883  0.000699      4.000000
  0.000000  0.093177  0.000000      2.000000
  0.023295  0.093177  0.000116      8.000000
  0.046590  0.093177  0.000233      8.000000
  0.069884  0.093177  0.000349      8.000000
  0.093179  0.093177  0.000466      8.000000
  0.116474  0.093177  0.000582      8.000000
  0.139769  0.093177  0.000699      4.000000
  0.000000  0.116471  0.000000      2.000000
  0.023295  0.116471  0.000116      8.000000
  0.046590  0.116471  0.000233      8.000000
  0.069884  0.116471  0.000349      8.000000
  0.093179  0.116471  0.000466      8.000000
  0.116474  0.116471  0.000582      8.000000
  0.139769  0.116471  0.000699      4.000000
  0.000000  0.139765  0.000000      1.000000
  0.023295  0.139765  0.000116      4.000000
  0.046590  0.139765  0.000233      4.000000
  0.069884  0.139765  0.000349      4.000000
  0.093179  0.139765  0.000466      4.000000
  0.116474  0.139765  0.000582      4.000000
  0.139769  0.139765  0.000699      2.000000
  0.023411  0.000000  0.023411      2.000000
  0.046706  0.000000  0.023528      4.000000
  0.070001  0.000000  0.023644      4.000000
  0.093296  0.000000  0.023761      4.000000
  0.116590  0.000000  0.023877      4.000000
  0.139885  0.000000  0.023994      4.000000
 -0.116357  0.000000  0.022712      4.000000
 -0.093063  0.000000  0.022829      4.000000
 -0.069768  0.000000  0.022945      4.000000
 -0.046473  0.000000  0.023062      4.000000
 -0.023178  0.000000  0.023178      2.000000
  0.023411  0.023294  0.023411      4.000000
  0.046706  0.023294  0.023528      8.000000
  0.070001  0.023294  0.023644      8.000000
  0.093296  0.023294  0.023761      8.000000
  0.116590  0.023294  0.023877      8.000000
  0.139885  0.023294  0.023994      8.000000
 -0.116357  0.023294  0.022712      8.000000
 -0.093063  0.023294  0.022829      8.000000
 -0.069768  0.023294  0.022945      8.000000
 -0.046473  0.023294  0.023062      8.000000
 -0.023178  0.023294  0.023178      4.000000
  0.023411  0.046588  0.023411      4.000000
  0.046706  0.046588  0.023528      8.000000
  0.070001  0.046588  0.023644      8.000000
  0.093296  0.046588  0.023761      8.000000
  0.116590  0.046588  0.023877      8.000000
  0.139885  0.046588  0.023994      8.000000
 -0.116357  0.046588  0.022712      8.000000
 -0.093063  0.046588  0.022829      8.000000
 -0.069768  0.046588  0.022945      8.000000
 -0.046473  0.046588  0.023062      8.000000
 -0.023178  0.046588  0.023178      4.000000
  0.023411  0.069883  0.023411      4.000000
  0.046706  0.069883  0.023528      8.000000
  0.070001  0.069883  0.023644      8.000000
  0.093296  0.069883  0.023761      8.000000
  0.116590  0.069883  0.023877      8.000000
  0.139885  0.069883  0.023994      8.000000
 -0.116357  0.069883  0.022712      8.000000
 -0.093063  0.069883  0.022829      8.000000
 -0.069768  0.069883  0.022945      8.000000
 -0.046473  0.069883  0.023062      8.000000
 -0.023178  0.069883  0.023178      4.000000
  0.023411  0.093177  0.023411      4.000000
  0.046706  0.093177  0.023528      8.000000
  0.070001  0.093177  0.023644      8.000000
  0.093296  0.093177  0.023761      8.000000
  0.116590  0.093177  0.023877      8.000000
  0.139885  0.093177  0.023994      8.000000
 -0.116357  0.093177  0.022712      8.000000
 -0.093063  0.093177  0.022829      8.000000
 -0.069768  0.093177  0.022945      8.000000
 -0.046473  0.093177  0.023062      8.000000
 -0.023178  0.093177  0.023178      4.000000
  0.023411  0.116471  0.023411      4.000000
  0.046706  0.116471  0.023528      8.000000
  0.070001  0.116471  0.023644      8.000000
  0.093296  0.116471  0.023761      8.000000
  0.116590  0.116471  0.023877      8.000000
  0.139885  0.116471  0.023994      8.000000
 -0.116357  0.116471  0.022712      8.000000
 -0.093063  0.116471  0.022829      8.000000
 -0.069768  0.116471  0.022945      8.000000
 -0.046473  0.116471  0.023062      8.000000
 -0.023178  0.116471  0.023178      4.000000
  0.023411  0.139765  0.023411      2.000000
  0.046706  0.139765  0.023528      4.000000
  0.070001  0.139765  0.023644      4.000000
  0.093296  0.139765  0.023761      4.000000
  0.116590  0.139765  0.023877      4.000000
  0.139885  0.139765  0.023994      4.000000
 -0.116357  0.139765  0.022712      4.000000
 -0.093063  0.139765  0.022829      4.000000
 -0.069768  0.139765  0.022945      4.000000
 -0.046473  0.139765  0.023062      4.000000
 -0.023178  0.139765  0.023178      2.000000
  0.046822  0.000000  0.046822      2.000000
  0.070117  0.000000  0.046939      4.000000
  0.093412  0.000000  0.047055      4.000000
  0.116707  0.000000  0.047172      4.000000
  0.140002  0.000000  0.047288      4.000000
 -0.116241  0.000000  0.046007      4.000000
 -0.092946  0.000000  0.046124      4.000000
 -0.069651  0.000000  0.046240      4.000000
 -0.046357  0.000000  0.046357      2.000000
  0.046822  0.023294  0.046822      4.000000
  0.070117  0.023294  0.046939      8.000000
  0.093412  0.023294  0.047055      8.000000
  0.116707  0.023294  0.047172      8.000000
  0.140002  0.023294  0.047288      8.000000
 -0.116241  0.023294  0.046007      8.000000
 -0.092946  0.023294  0.046124      8.000000
 -0.069651  0.023294  0.046240      8.000000
 -0.046357  0.023294  0.046357      4.000000
  0.046822  0.046588  0.046822      4.000000
  0.070117  0.046588  0.046939      8.000000
  0.093412  0.046588  0.047055      8.000000
  0.116707  0.046588  0.047172      8.000000
  0.140002  0.046588  0.047288      8.000000
 -0.116241  0.046588  0.046007      8.000000
 -0.092946  0.046588  0.046124      8.000000
 -0.069651  0.046588  0.046240      8.000000
 -0.046357  0.046588  0.046357      4.000000
  0.046822  0.069883  0.046822      4.000000
  0.070117  0.069883  0.046939      8.000000
  0.093412  0.069883  0.047055      8.000000
  0.116707  0.069883  0.047172      8.000000
  0.140002  0.069883  0.047288      8.000000
 -0.116241  0.069883  0.046007      8.000000
 -0.092946  0.069883  0.046124      8.000000
 -0.069651  0.069883  0.046240      8.000000
 -0.046357  0.069883  0.046357      4.000000
  0.046822  0.093177  0.046822      4.000000
  0.070117  0.093177  0.046939      8.000000
  0.093412  0.093177  0.047055      8.000000
  0.116707  0.093177  0.047172      8.000000
  0.140002  0.093177  0.047288      8.000000
 -0.116241  0.093177  0.046007      8.000000
 -0.092946  0.093177  0.046124      8.000000
 -0.069651  0.093177  0.046240      8.000000
 -0.046357  0.093177  0.046357      4.000000
  0.046822  0.116471  0.046822      4.000000
  0.070117  0.116471  0.046939      8.000000
  0.093412  0.116471  0.047055      8.000000
  0.116707  0.116471  0.047172      8.000000
  0.140002  0.116471  0.047288      8.000000
 -0.116241  0.116471  0.046007      8.000000
 -0.092946  0.116471  0.046124      8.000000
 -0.069651  0.116471  0.046240      8.000000
 -0.046357  0.116471  0.046357      4.000000
  0.046822  0.139765  0.046822      2.000000
  0.070117  0.139765  0.046939      4.000000
  0.093412  0.139765  0.047055      4.000000
  0.116707  0.139765  0.047172      4.000000
  0.140002  0.139765  0.047288      4.000000
 -0.116241  0.139765  0.046007      4.000000
 -0.092946  0.139765  0.046124      4.000000
 -0.069651  0.139765  0.046240      4.000000
 -0.046357  0.139765  0.046357      2.000000
  0.070234  0.000000  0.070234      2.000000
  0.093528  0.000000  0.070350      4.000000
  0.116823  0.000000  0.070467      4.000000
  0.140118  0.000000  0.070583      4.000000
 -0.116124  0.000000  0.069302      4.000000
 -0.092830  0.000000  0.069418      4.000000
 -0.069535  0.000000  0.069535      2.000000
  0.070234  0.023294  0.070234      4.000000
  0.093528  0.023294  0.070350      8.000000
  0.116823  0.023294  0.070467      8.000000
  0.140118  0.023294  0.070583      8.000000
 -0.116124  0.023294  0.069302      8.000000
 -0.092830  0.023294  0.069418      8.000000
 -0.069535  0.023294  0.069535      4.000000
  0.070234  0.046588  0.070234      4.000000
  0.093528  0.046588  0.070350      8.000000
  0.116823  0.046588  0.070467      8.000000
  0.140118  0.046588  0.070583      8.000000
 -0.116124  0.046588  0.069302      8.000000
 -0.092830  0.046588  0.069418      8.000000
 -0.069535  0.046588  0.069535      4.000000
  0.070234  0.069883  0.070234      4.000000
  0.093528  0.069883  0.070350      8.000000
  0.116823  0.069883  0.070467      8.000000
  0.140118  0.069883  0.070583      8.000000
 -0.116124  0.069883  0.069302      8.000000
 -0.092830  0.069883  0.069418      8.000000
 -0.069535  0.069883  0.069535      4.000000
  0.070234  0.093177  0.070234      4.000000
  0.093528  0.093177  0.070350      8.000000
  0.116823  0.093177  0.070467      8.000000
  0.140118  0.093177  0.070583      8.000000
 -0.116124  0.093177  0.069302      8.000000
 -0.092830  0.093177  0.069418      8.000000
 -0.069535  0.093177  0.069535      4.000000
  0.070234  0.116471  0.070234      4.000000
  0.093528  0.116471  0.070350      8.000000
  0.116823  0.116471  0.070467      8.000000
  0.140118  0.116471  0.070583      8.000000
 -0.116124  0.116471  0.069302      8.000000
 -0.092830  0.116471  0.069418      8.000000
 -0.069535  0.116471  0.069535      4.000000
  0.070234  0.139765  0.070234      2.000000
  0.093528  0.139765  0.070350      4.000000
  0.116823  0.139765  0.070467      4.000000
  0.140118  0.139765  0.070583      4.000000
 -0.116124  0.139765  0.069302      4.000000
 -0.092830  0.139765  0.069418      4.000000
 -0.069535  0.139765  0.069535      2.000000
  0.093645  0.000000  0.093645      2.000000
  0.116940  0.000000  0.093761      4.000000
  0.140235  0.000000  0.093878      4.000000
 -0.116008  0.000000  0.092597      4.000000
 -0.092713  0.000000  0.092713      2.000000
  0.093645  0.023294  0.093645      4.000000
  0.116940  0.023294  0.093761      8.000000
  0.140235  0.023294  0.093878      8.000000
 -0.116008  0.023294  0.092597      8.000000
 -0.092713  0.023294  0.092713      4.000000
  0.093645  0.046588  0.093645      4.000000
  0.116940  0.046588  0.093761      8.000000
  0.140235  0.046588  0.093878      8.000000
 -0.116008  0.046588  0.092597      8.000000
 -0.092713  0.046588  0.092713      4.000000
  0.093645  0.069883  0.093645      4.000000
  0.116940  0.069883  0.093761      8.000000
  0.140235  0.069883  0.093878      8.000000
 -0.116008  0.069883  0.092597      8.000000
 -0.092713  0.069883  0.092713      4.000000
  0.093645  0.093177  0.093645      4.000000
  0.116940  0.093177  0.093761      8.000000
  0.140235  0.093177  0.093878      8.000000
 -0.116008  0.093177  0.092597      8.000000
 -0.092713  0.093177  0.092713      4.000000
  0.093645  0.116471  0.093645      4.000000
  0.116940  0.116471  0.093761      8.000000
  0.140235  0.116471  0.093878      8.000000
 -0.116008  0.116471  0.092597      8.000000
 -0.092713  0.116471  0.092713      4.000000
  0.093645  0.139765  0.093645      2.000000
  0.116940  0.139765  0.093761      4.000000
  0.140235  0.139765  0.093878      4.000000
 -0.116008  0.139765  0.092597      4.000000
 -0.092713  0.139765  0.092713      2.000000
  0.117056  0.000000  0.117056      2.000000
  0.140351  0.000000  0.117173      4.000000
 -0.115891  0.000000  0.115891      2.000000
  0.117056  0.023294  0.117056      4.000000
  0.140351  0.023294  0.117173      8.000000
 -0.115891  0.023294  0.115891      4.000000
  0.117056  0.046588  0.117056      4.000000
  0.140351  0.046588  0.117173      8.000000
 -0.115891  0.046588  0.115891      4.000000
  0.117056  0.069883  0.117056      4.000000
  0.140351  0.069883  0.117173      8.000000
 -0.115891  0.069883  0.115891      4.000000
  0.117056  0.093177  0.117056      4.000000
  0.140351  0.093177  0.117173      8.000000
 -0.115891  0.093177  0.115891      4.000000
  0.117056  0.116471  0.117056      4.000000
  0.140351  0.116471  0.117173      8.000000
 -0.115891  0.116471  0.115891      4.000000
  0.117056  0.139765  0.117056      2.000000
  0.140351  0.139765  0.117173      4.000000
 -0.115891  0.139765  0.115891      2.000000
  0.140467  0.000000  0.140467      1.000000
  0.140467  0.023294  0.140467      2.000000
  0.140467  0.046588  0.140467      2.000000
  0.140467  0.069883  0.140467      2.000000
  0.140467  0.093177  0.140467      2.000000
  0.140467  0.116471  0.140467      2.000000
  0.140467  0.139765  0.140467      1.000000
 


--------------------------------------------------------------------------------------------------------




 Dimension of arrays:
   k-points           NKPTS =    301   k-points in BZ     NKDIM =    301   number of bands    NBANDS=     40
   number of dos      NEDOS =    301   number of ions     NIONS =      4
   non local maximal  LDIM  =      6   non local SUM 2l+1 LMDIM =     18
   total plane-waves  NPLWV =  21952
   max r-space proj   IRMAX =      1   max aug-charges    IRDMAX=   9658
   dimension x,y,z NGX =    28 NGY =   28 NGZ =   28
   dimension x,y,z NGXF=    56 NGYF=   56 NGZF=   56
   support grid    NGXF=    56 NGYF=   56 NGZF=   56
   ions per type =               4
   NGX,Y,Z   is equivalent  to a cutoff of  13.01, 13.01, 13.01 a.u.
   NGXF,Y,Z  is equivalent  to a cutoff of  26.02, 26.02, 26.02 a.u.

 SYSTEM =  unknown system                          
 POSCAR =  # Generated by Masgent for elastic const

 Startparameter for this run:
   NWRITE =      2    write-flag & timer
   PREC   = accura    normal or accurate (medium, high low for compatibility)
   ISTART =      0    job   : 0-new  1-cont  2-samecut
   ICHARG =      2    charge: 1-file 2-atom 10-const
   ISPIN  =      1    spin polarized calculation?
   LNONCOLLINEAR =      F non collinear calculations
   LSORBIT =      F    spin-orbit coupling
   INIWAV =      1    electr: 0-lowe 1-rand  2-diag
   LASPH  =      T    aspherical Exc in radial PAW
 Electronic Relaxation 1
   ENCUT  =  520.0 eV  38.22 Ry    6.18 a.u.   6.65  6.65  6.65*2*pi/ulx,y,z
   ENINI  =  520.0     initial cutoff
   ENAUG  =  758.2 eV  augmentation charge cutoff
   NELM   =    100;   NELMIN=  2; NELMDL= -5     # of ELM steps 
   EDIFF  = 0.1E-07   stopping-criterion for ELM
   LREAL  =      F    real-space projection
   NLSPLINE    = F    spline interpolate recip. space projectors
   LCOMPAT=      F    compatible to vasp.4.4
   GGA_COMPAT  = T    GGA compatible to vasp.4.4-vasp.4.6
   LMAXPAW     = -100 max onsite density
   LMAXMIX     =    2 max onsite mixed and CHGCAR
   VOSKOWN=      0    Vosko Wilk Nusair interpolation
   ROPT   =    0.00000
 Ionic relaxation
   EDIFFG = 0.1E-06   stopping-criterion for IOM
   NSW    =      0    number of steps for IOM
   NBLOCK =      1;   KBLOCK =      1    inner block; outer block 
   IBRION =     -1    ionic relax: 0-MD 1-quasi-New 2-CG
   NFREE  =      0    steps in history (QN), initial steepest desc. (CG)
   ISIF   =      2    stress and relaxation
   IWAVPR =     10    prediction:  0-non 1-charg 2-wave 3-comb
   ISYM   =      2    0-nonsym 1-usesym 2-fastsym
   LCORR  =      T    Harris-Foulkes like correction to forces

   POTIM  = 0.5000    time-step for ionic-motion
   TEIN   =    0.0    initial temperature
   TEBEG  =    0.0;   TEEND  =   0.0 temperature during run
   SMASS  =  -3.00    Nose mass-parameter (am)
   estimated Nose-frequenzy (Omega)   =  0.10E-29 period in steps = 0.13E+47 mass=  -0.292E-27a.u.
   SCALEE = 1.0000    scale energy and forces
   NPACO  =    256;   APACO  = 16.0  distance and # of slots for P.C.
   PSTRESS=    0.0 pullay stress

  Mass of Ions in am
   POMASS =  63.55
  Ionic Valenz
   ZVAL   =  17.00
  Atomic Wigner-Seitz radii
   RWIGS  =  -1.00
  virtual crystal weights 
   VCA    =   1.00
   NELECT =      68.0000    total number of electrons
   NUPDOWN=      -1.0000    fix difference up-down

 DOS related values:
   EMIN   =  10.00;   EMAX   =-10.00  energy-range for DOS
   EFERMI =   0.00
   ISMEAR =     1;   SIGMA  =   0.20  broadening in eV -4-tet -1-fermi 0-gaus

 Electronic relaxation 2 (details)
   IALGO  =     68    algorithm
   LDIAG  =      T    sub-space diagonalisation (order eigenvalues)
   LSUBROT=      F    optimize rotation matrix (better conditioning)
   TURBO    =      0    0=normal 1=particle mesh
   IRESTART =      0    0=no restart 2=restart with 2 vectors
   NREBOOT  =      0    no. of reboots
   NMIN     =      0    reboot dimension
   EREF     =   0.00    reference energy to select bands
   IMIX   =      4    mixing-type and parameters
     AMIX     =   0.40;   BMIX     =  1.00
     AMIX_MAG =   1.60;   BMIX_MAG =  1.00
     AMIN     =   0.10
     WC   =   100.;   INIMIX=   1;  MIXPRE=   1;  MAXMIX= -45

 Intra band minimization:
   WEIMIN = 0.0000     energy-eigenvalue tresh-hold
   EBREAK =  0.63E-10  absolut break condition
   DEPER  =   0.30     relativ break condition  

   TIME   =   0.40     timestep for ELM

  volume/ion in A,a.u.               =      11.45        77.24
  Fermi-wavevector in a.u.,A,eV,Ry     =   1.867857  3.529737 47.469206  3.488888
  Thomas-Fermi vector in A             =   2.914242

 Write flags
   LWAVE        =      F    write WAVECAR
   LDOWNSAMPLE  =      F    k-point downsampling of WAVECAR
   LCHARG       =      T    write CHGCAR
   LVTOT        =      F    write LOCPOT, total local potential
   LVHAR        =      F    write LOCPOT, Hartree potential only
   LELF         =      F    write electronic localiz. function (ELF)
   LORBIT       =     11    0 simple, 1 ext, 2 COOP (PROOUT), +10 PAW based schemes


 Dipole corrections
   LMONO  =      F    monopole corrections only (constant potential shift)
   LDIPOL =      F    correct potential (dipole corrections)
   IDIPOL =      0    1-x, 2-y, 3-z, 4-all directions 
   EPSILON=  1.0000000 bulk dielectric constant

 Exchange correlation treatment:
   GGA     =    --    GGA type
   LEXCH   =     8    internal setting for exchange type
   VOSKOWN=      0    Vosko Wilk Nusair interpolation
   LHFCALC =     F    Hartree Fock is set to
   LHFONE  =     F    Hartree Fock one center treatment
   AEXX    =    0.0000 exact exchange contribution

 Linear response parameters
   LEPSILON=     F    determine dielectric tensor
   LRPA    =     F    only Hartree local field effects (RPA)
   LNABLA  =     F    use nabla operator in PAW spheres
   LVEL    =     F    velocity operator in full k-point grid
   LINTERFAST=   F  fast interpolation
   KINTER  =     0    interpolate to denser k-point grid
   CSHIFT  =0.1000    complex shift for real part using Kramers Kronig
   OMEGAMAX=  -1.0    maximum frequency
   DEG_THRESHOLD= 0.2000000E-02 threshold for treating states as degnerate
   RTIME   =   -0.100 relaxation time in fs
  (WPLASMAI=    0.000 imaginary part of plasma frequency in eV, 0.658/RTIME)
   DFIELD  = 0.0000000 0.0000000 0.0000000 field for delta impulse in time

 Orbital magnetization related:
   ORBITALMAG=     F  switch on orbital magnetization
   LCHIMAG   =     F  perturbation theory with respect to B field
   DQ        =  0.001000  dq finite difference perturbation B field
   LLRAUG    =     F  two centre corrections for induced B field



--------------------------------------------------------------------------------------------------------


 Static calculation
 charge density and potential will be updated during run
 non-spin polarized calculation
 RMM-DIIS sequential band-by-band and
  variant of blocked Davidson during initial phase
 perform sub-space diagonalisation
    before iterative eigenvector-optimisation
 modified Broyden-mixing scheme, WC =      100.0
 initial mixing is a Kerker type mixing with AMIX =  0.4000 and BMIX =      1.0000
 Hartree-type preconditioning will be used
 using additional bands            6
 reciprocal scheme for non local part
 use partial core corrections
 calculate Harris-corrections to forces   (improved forces if not selfconsistent)
 use gradient corrections 
 use of overlap-Matrix (Vanderbilt PP)
 Methfessel and Paxton  Order N= 1 SIGMA  =   0.20


--------------------------------------------------------------------------------------------------------


  energy-cutoff  :      520.00
  volume of cell :       45.78
      direct lattice vectors                 reciprocal lattice vectors
     3.577430672  0.000000000 -0.017887153     0.279537213 -0.000000000  0.001397686
     0.000000000  3.577430672  0.000000000    -0.000000000  0.279530225 -0.000000000
    -0.017887153  0.000000000  3.577430672     0.001397686 -0.000000000  0.279537213

  length of vectors
     3.577475389  3.577430672  3.577475389     0.279540707  0.279530225  0.279540707



 k-points in units of 2pi/SCALE and weight: # Generated by Masgent for elastic const
   0.00000000  0.00000000  0.00000000       0.001
   0.02329477  0.00000000  0.00011647       0.002
   0.04658954  0.00000000  0.00023295       0.002
   0.06988430  0.00000000  0.00034942       0.002
   0.09317907  0.00000000  0.00046590       0.002
   0.11647384  0.00000000  0.00058237       0.002
   0.13976861  0.00000000  0.00069884       0.001
   0.00000000  0.02329419  0.00000000       0.001
   0.02329477  0.02329419  0.00011647       0.005
   0.04658954  0.02329419  0.00023295       0.005
   0.06988430  0.02329419  0.00034942       0.005
   0.09317907  0.02329419  0.00046590       0.005
   0.11647384  0.02329419  0.00058237       0.005
   0.13976861  0.02329419  0.00069884       0.002
   0.00000000  0.04658837  0.00000000       0.001
   0.02329477  0.04658837  0.00011647       0.005
   0.04658954  0.04658837  0.00023295       0.005
   0.06988430  0.04658837  0.00034942       0.005
   0.09317907  0.04658837  0.00046590       0.005
   0.11647384  0.04658837  0.00058237       0.005
   0.13976861  0.04658837  0.00069884       0.002
   0.00000000  0.06988256  0.00000000       0.001
   0.02329477  0.06988256  0.00011647       0.005
   0.04658954  0.06988256  0.00023295       0.005
   0.06988430  0.06988256  0.00034942       0.005
   0.09317907  0.06988256  0.00046590       0.005
   0.11647384  0.06988256  0.00058237       0.005
   0.13976861  0.06988256  0.00069884       0.002
   0.00000000  0.09317674  0.00000000       0.001
   0.02329477  0.09317674  0.00011647       0.005
   0.04658954  0.09317674  0.00023295       0.005
   0.06988430  0.09317674  0.00034942       0.005
   0.09317907  0.09317674  0.00046590       0.005
   0.11647384  0.09317674  0.00058237       0.005
   0.13976861  0.09317674  0.00069884       0.002
   0.00000000  0.11647093  0.00000000       0.001
   0.02329477  0.11647093  0.00011647       0.005
   0.04658954  0.11647093  0.00023295       0.005
   0.06988430  0.11647093  0.00034942       0.005
   0.09317907  0.11647093  0.00046590       0.005
   0.11647384  0.11647093  0.00058237       0.005
   0.13976861  0.11647093  0.00069884       0.002
   0.00000000  0.13976511  0.00000000       0.001
   0.02329477  0.13976511  0.00011647       0.002
   0.04658954  0.13976511  0.00023295       0.002
   0.06988430  0.13976511  0.00034942       0.002
   0.09317907  0.13976511  0.00046590       0.002
   0.11647384  0.13976511  0.00058237       0.002
   0.13976861  0.13976511  0.00069884       0.001
   0.02341124  0.00000000  0.02341124       0.001
   0.04670601  0.00000000  0.02352772       0.002
   0.07000078  0.00000000  0.02364419       0.002
   0.09329554  0.00000000  0.02376066       0.002
   0.11659031  0.00000000  0.02387714       0.002
   0.13988508  0.00000000  0.02399361       0.002
  -0.11635737  0.00000000  0.02271240       0.002
  -0.09306260  0.00000000  0.02282887       0.002
  -0.06976783  0.00000000  0.02294535       0.002
  -0.04647306  0.00000000  0.02306182       0.002
  -0.02317829  0.00000000  0.02317829       0.001
   0.02341124  0.02329419  0.02341124       0.002
   0.04670601  0.02329419  0.02352772       0.005
   0.07000078  0.02329419  0.02364419       0.005
   0.09329554  0.02329419  0.02376066       0.005
   0.11659031  0.02329419  0.02387714       0.005
   0.13988508  0.02329419  0.02399361       0.005
  -0.11635737  0.02329419  0.02271240       0.005
  -0.09306260  0.02329419  0.02282887       0.005
  -0.06976783  0.02329419  0.02294535       0.005
  -0.04647306  0.02329419  0.02306182       0.005
  -0.02317829  0.02329419  0.02317829       0.002
   0.02341124  0.04658837  0.02341124       0.002
   0.04670601  0.04658837  0.02352772       0.005
   0.07000078  0.04658837  0.02364419       0.005
   0.09329554  0.04658837  0.02376066       0.005
   0.11659031  0.04658837  0.02387714       0.005
   0.13988508  0.04658837  0.02399361       0.005
  -0.11635737  0.04658837  0.02271240       0.005
  -0.09306260  0.04658837  0.02282887       0.005
  -0.06976783  0.04658837  0.02294535       0.005
  -0.04647306  0.04658837  0.02306182       0.005
  -0.02317829  0.04658837  0.02317829       0.002
   0.02341124  0.06988256  0.02341124       0.002
   0.04670601  0.06988256  0.02352772       0.005
   0.07000078  0.06988256  0.02364419       0.005
   0.09329554  0.06988256  0.02376066       0.005
   0.11659031  0.06988256  0.02387714       0.005
   0.13988508  0.06988256  0.02399361       0.005
  -0.11635737  0.06988256  0.02271240       0.005
  -0.09306260  0.06988256  0.02282887       0.005
  -0.06976783  0.06988256  0.02294535       0.005
  -0.04647306  0.06988256  0.02306182       0.005
  -0.02317829  0.06988256  0.02317829       0.002
   0.02341124  0.09317674  0.02341124       0.002
   0.04670601  0.09317674  0.02352772       0.005
   0.07000078  0.09317674  0.02364419       0.005
   0.09329554  0.09317674  0.02376066       0.005
   0.11659031  0.09317674  0.02387714       0.005
   0.13988508  0.09317674  0.02399361       0.005
  -0.11635737  0.09317674  0.02271240       0.005
  -0.09306260  0.09317674  0.02282887       0.005
  -0.06976783  0.09317674  0.02294535       0.005
  -0.04647306  0.09317674  0.02306182       0.005
  -0.02317829  0.09317674  0.02317829       0.002
   0.02341124  0.11647093  0.02341124       0.002
   0.04670601  0.11647093  0.02352772       0.005
   0.07000078  0.11647093  0.02364419       0.005
   0.09329554  0.11647093  0.02376066       0.005
   0.11659031  0.11647093  0.02387714       0.005
   0.13988508  0.11647093  0.02399361       0.005
  -0.11635737  0.11647093  0.02271240       0.005
  -0.09306260  0.11647093  0.02282887       0.005
  -0.06976783  0.11647093  0.02294535       0.005
  -0.04647306  0.11647093  0.02306182       0.005
  -0.02317829  0.11647093  0.02317829       0.002
   0.02341124  0.13976511  0.02341124       0.001
   0.04670601  0.13976511  0.02352772       0.002
   0.07000078  0.13976511  0.02364419       0.002
   0.09329554  0.13976511  0.02376066       0.002
   0.11659031  0.13976511  0.02387714       0.002
   0.13988508  0.13976511  0.02399361       0.002
  -0.11635737  0.13976511  0.02271240       0.002
  -0.09306260  0.13976511  0.02282887       0.002
  -0.06976783  0.13976511  0.02294535       0.002
  -0.04647306  0.13976511  0.02306182       0.002
  -0.02317829  0.13976511  0.02317829       0.001
   0.04682248  0.00000000  0.04682248       0.001
   0.07011725  0.00000000  0.04693896       0.002
   0.09341202  0.00000000  0.04705543       0.002
   0.11670679  0.00000000  0.04717190       0.002
   0.14000155  0.00000000  0.04728838       0.002
  -0.11624089  0.00000000  0.04600717       0.002
  -0.09294612  0.00000000  0.04612364       0.002
  -0.06965136  0.00000000  0.04624011       0.002
  -0.04635659  0.00000000  0.04635659       0.001
   0.04682248  0.02329419  0.04682248       0.002
   0.07011725  0.02329419  0.04693896       0.005
   0.09341202  0.02329419  0.04705543       0.005
   0.11670679  0.02329419  0.04717190       0.005
   0.14000155  0.02329419  0.04728838       0.005
  -0.11624089  0.02329419  0.04600717       0.005
  -0.09294612  0.02329419  0.04612364       0.005
  -0.06965136  0.02329419  0.04624011       0.005
  -0.04635659  0.02329419  0.04635659       0.002
   0.04682248  0.04658837  0.04682248       0.002
   0.07011725  0.04658837  0.04693896       0.005
   0.09341202  0.04658837  0.04705543       0.005
   0.11670679  0.04658837  0.04717190       0.005
   0.14000155  0.04658837  0.04728838       0.005
  -0.11624089  0.04658837  0.04600717       0.005
  -0.09294612  0.04658837  0.04612364       0.005
  -0.06965136  0.04658837  0.04624011       0.005
  -0.04635659  0.04658837  0.04635659       0.002
   0.04682248  0.06988256  0.04682248       0.002
   0.07011725  0.06988256  0.04693896       0.005
   0.09341202  0.06988256  0.04705543       0.005
   0.11670679  0.06988256  0.04717190       0.005
   0.14000155  0.06988256  0.04728838       0.005
  -0.11624089  0.06988256  0.04600717       0.005
  -0.09294612  0.06988256  0.04612364       0.005
  -0.06965136  0.06988256  0.04624011       0.005
  -0.04635659  0.06988256  0.04635659       0.002
   0.04682248  0.09317674  0.04682248       0.002
   0.07011725  0.09317674  0.04693896       0.005
   0.09341202  0.09317674  0.04705543       0.005
   0.11670679  0.09317674  0.04717190       0.005
   0.14000155  0.09317674  0.04728838       0.005
  -0.11624089  0.09317674  0.04600717       0.005
  -0.09294612  0.09317674  0.04612364       0.005
  -0.06965136  0.09317674  0.04624011       0.005
  -0.04635659  0.09317674  0.04635659       0.002
   0.04682248  0.11647093  0.04682248       0.002
   0.07011725  0.11647093  0.04693896       0.005
   0.09341202  0.11647093  0.04705543       0.005
   0.11670679  0.11647093  0.04717190       0.005
   0.14000155  0.11647093  0.04728838       0.005
  -0.11624089  0.11647093  0.04600717       0.005
  -0.09294612  0.11647093  0.04612364       0.005
  -0.06965136  0.11647093  0.04624011       0.005
  -0.04635659  0.11647093  0.04635659       0.002
   0.04682248  0.13976511  0.04682248       0.001
   0.07011725  0.13976511  0.04693896       0.002
   0.09341202  0.13976511  0.04705543       0.002
   0.11670679  0.13976511  0.04717190       0.002
   0.14000155  0.13976511  0.04728838       0.002
  -0.11624089  0.13976511  0.04600717       0.002
  -0.09294612  0.13976511  0.04612364       0.002
  -0.06965136  0.13976511  0.04624011       0.002
  -0.04635659  0.13976511  0.04635659       0.001
   0.07023372  0.00000000  0.07023372       0.001
   0.09352849  0.00000000  0.07035020       0.002
   0.11682326  0.00000000  0.07046667       0.002
   0.14011803  0.00000000  0.07058315       0.002
  -0.11612442  0.00000000  0.06930193       0.002
  -0.09282965  0.00000000  0.06941841       0.002
  -0.06953488  0.00000000  0.06953488       0.001
   0.07023372  0.02329419  0.07023372       0.002
   0.09352849  0.02329419  0.07035020       0.005
   0.11682326  0.02329419  0.07046667       0.005
   0.14011803  0.02329419  0.07058315       0.005
  -0.11612442  0.02329419  0.06930193       0.005
  -0.09282965  0.02329419  0.06941841       0.005
  -0.06953488  0.02329419  0.06953488       0.002
   0.07023372  0.04658837  0.07023372       0.002
   0.09352849  0.04658837  0.07035020       0.005
   0.11682326  0.04658837  0.07046667       0.005
   0.14011803  0.04658837  0.07058315       0.005
  -0.11612442  0.04658837  0.06930193       0.005
  -0.09282965  0.04658837  0.06941841       0.005
  -0.06953488  0.04658837  0.06953488       0.002
   0.07023372  0.06988256  0.07023372       0.002
   0.09352849  0.06988256  0.07035020       0.005
   0.11682326  0.06988256  0.07046667       0.005
   0.14011803  0.06988256  0.07058315       0.005
  -0.11612442  0.06988256  0.06930193       0.005
  -0.09282965  0.06988256  0.06941841       0.005
  -0.06953488  0.06988256  0.06953488       0.002
   0.07023372  0.09317674  0.07023372       0.002
   0.09352849  0.09317674  0.07035020       0.005
   0.11682326  0.09317674  0.07046667       0.005
   0.14011803  0.09317674  0.07058315       0.005
  -0.11612442  0.09317674  0.06930193       0.005
  -0.09282965  0.09317674  0.06941841       0.005
  -0.06953488  0.09317674  0.06953488       0.002
   0.07023372  0.11647093  0.07023372       0.002
   0.09352849  0.11647093  0.07035020       0.005
   0.11682326  0.11647093  0.07046667       0.005
   0.14011803  0.11647093  0.07058315       0.005
  -0.11612442  0.11647093  0.06930193       0.005
  -0.09282965  0.11647093  0.06941841       0.005
  -0.06953488  0.11647093  0.06953488       0.002
   0.07023372  0.13976511  0.07023372       0.001
   0.09352849  0.13976511  0.07035020       0.002
   0.11682326  0.13976511  0.07046667       0.002
   0.14011803  0.13976511  0.07058315       0.002
  -0.11612442  0.13976511  0.06930193       0.002
  -0.09282965  0.13976511  0.06941841       0.002
  -0.06953488  0.13976511  0.06953488       0.001
   0.09364497  0.00000000  0.09364497       0.001
   0.11693973  0.00000000  0.09376144       0.002
   0.14023450  0.00000000  0.09387791       0.002
  -0.11600794  0.00000000  0.09259670       0.002
  -0.09271318  0.00000000  0.09271318       0.001
   0.09364497  0.02329419  0.09364497       0.002
   0.11693973  0.02329419  0.09376144       0.005
   0.14023450  0.02329419  0.09387791       0.005
  -0.11600794  0.02329419  0.09259670       0.005
  -0.09271318  0.02329419  0.09271318       0.002
   0.09364497  0.04658837  0.09364497       0.002
   0.11693973  0.04658837  0.09376144       0.005
   0.14023450  0.04658837  0.09387791       0.005
  -0.11600794  0.04658837  0.09259670       0.005
  -0.09271318  0.04658837  0.09271318       0.002
   0.09364497  0.06988256  0.09364497       0.002
   0.11693973  0.06988256  0.09376144       0.005
   0.14023450  0.06988256  0.09387791       0.005
  -0.11600794  0.06988256  0.09259670       0.005
  -0.09271318  0.06988256  0.09271318       0.002
   0.09364497  0.09317674  0.09364497       0.002
   0.11693973  0.09317674  0.09376144       0.005
   0.14023450  0.09317674  0.09387791       0.005
  -0.11600794  0.09317674  0.09259670       0.005
  -0.09271318  0.09317674  0.09271318       0.002
   0.09364497  0.11647093  0.09364497       0.002
   0.11693973  0.11647093  0.09376144       0.005
   0.14023450  0.11647093  0.09387791       0.005
  -0.11600794  0.11647093  0.09259670       0.005
  -0.09271318  0.11647093  0.09271318       0.002
   0.09364497  0.13976511  0.09364497       0.001
   0.11693973  0.13976511  0.09376144       0.002
   0.14023450  0.13976511  0.09387791       0.002
  -0.11600794  0.13976511  0.09259670       0.002
  -0.09271318  0.13976511  0.09271318       0.001
   0.11705621  0.00000000  0.11705621       0.001
   0.14035098  0.00000000  0.11717268       0.002
  -0.11589147  0.00000000  0.11589147       0.001
   0.11705621  0.02329419  0.11705621       0.002
   0.14035098  0.02329419  0.11717268       0.005
  -0.11589147  0.02329419  0.11589147       0.002
   0.11705621  0.04658837  0.11705621       0.002
   0.14035098  0.04658837  0.11717268       0.005
  -0.11589147  0.04658837  0.11589147       0.002
   0.11705621  0.06988256  0.11705621       0.002
   0.14035098  0.06988256  0.11717268       0.005
  -0.11589147  0.06988256  0.11589147       0.002
   0.11705621  0.09317674  0.11705621       0.002
   0.14035098  0.09317674  0.11717268       0.005
  -0.11589147  0.09317674  0.11589147       0.002
   0.11705621  0.11647093  0.11705621       0.002
   0.14035098  0.11647093  0.11717268       0.005
  -0.11589147  0.11647093  0.11589147       0.002
   0.11705621  0.13976511  0.11705621       0.001
   0.14035098  0.13976511  0.11717268       0.002
  -0.11589147  0.13976511  0.11589147       0.001
   0.14046745  0.00000000  0.14046745       0.001
   0.14046745  0.02329419  0.14046745       0.001
   0.14046745  0.04658837  0.14046745       0.001
   0.14046745  0.06988256  0.14046745       0.001
   0.14046745  0.09317674  0.14046745       0.001
   0.14046745  0.11647093  0.14046745       0.001
   0.14046745  0.13976511  0.14046745       0.001

 k-points in reciprocal lattice and weights: # Generated by Masgent for elastic const
   0.00000000  0.00000000  0.00000000       0.001
   0.08333333  0.00000000  0.00000000       0.002
   0.16666667  0.00000000  0.00000000       0.002
   0.25000000  0.00000000  0.00000000       0.002
   0.33333333  0.00000000  0.00000000       0.002
   0.41666667  0.00000000  0.00000000       0.002
   0.50000000  0.00000000  0.00000000       0.001
   0.00000000  0.08333333  0.00000000       0.001
   0.08333333  0.08333333  0.00000000       0.005
   0.16666667  0.08333333  0.00000000       0.005
   0.25000000  0.08333333  0.00000000       0.005
   0.33333333  0.08333333  0.00000000       0.005
   0.41666667  0.08333333  0.00000000       0.005
   0.50000000  0.08333333  0.00000000       0.002
   0.00000000  0.16666667  0.00000000       0.001
   0.08333333  0.16666667  0.00000000       0.005
   0.16666667  0.16666667  0.00000000       0.005
   0.25000000  0.16666667  0.00000000       0.005
   0.33333333  0.16666667  0.00000000       0.005
   0.41666667  0.16666667  0.00000000       0.005
   0.50000000  0.16666667  0.00000000       0.002
   0.00000000  0.25000000  0.00000000       0.001
   0.08333333  0.25000000  0.00000000       0.005
   0.16666667  0.25000000  0.00000000       0.005
   0.25000000  0.25000000  0.00000000       0.005
   0.33333333  0.25000000  0.00000000       0.005
   0.41666667  0.25000000  0.00000000       0.005
   0.50000000  0.25000000  0.00000000       0.002
   0.00000000  0.33333333  0.00000000       0.001
   0.08333333  0.33333333  0.00000000       0.005
   0.16666667  0.33333333  0.00000000       0.005
   0.25000000  0.33333333  0.00000000       0.005
   0.33333333  0.33333333  0.00000000       0.005
   0.41666667  0.33333333  0.00000000       0.005
   0.50000000  0.33333333  0.00000000       0.002
   0.00000000  0.41666667  0.00000000       0.001
   0.08333333  0.41666667  0.00000000       0.005
   0.16666667  0.41666667  0.00000000       0.005
   0.25000000  0.41666667  0.00000000       0.005
   0.33333333  0.41666667  0.00000000       0.005
   0.41666667  0.41666667  0.00000000       0.005
   0.50000000  0.41666667  0.00000000       0.002
   0.00000000  0.50000000  0.00000000       0.001
   0.08333333  0.50000000  0.00000000       0.002
   0.16666667  0.50000000  0.00000000       0.002
   0.25000000  0.50000000  0.00000000       0.002
   0.33333333  0.50000000  0.00000000       0.002
   0.41666667  0.50000000  0.00000000       0.002
   0.50000000  0.50000000  0.00000000       0.001
   0.08333333  0.00000000  0.08333333       0.001
   0.16666667  0.00000000  0.08333333       0.002
   0.25000000  0.00000000  0.08333333       0.002
   0.33333333  0.00000000  0.08333333       0.002
   0.41666667  0.00000000  0.08333333       0.002
   0.50000000  0.00000000  0.08333333       0.002
  -0.41666667  0.00000000  0.08333333       0.002
  -0.33333333  0.00000000  0.08333333       0.002
  -0.25000000  0.00000000  0.08333333       0.002
  -0.16666667  0.00000000  0.08333333       0.002
  -0.08333333  0.00000000  0.08333333       0.001
   0.08333333  0.08333333  0.08333333       0.002
   0.16666667  0.08333333  0.08333333       0.005
   0.25000000  0.08333333  0.08333333       0.005
   0.33333333  0.08333333  0.08333333       0.005
   0.41666667  0.08333333  0.08333333       0.005
   0.50000000  0.08333333  0.08333333       0.005
  -0.41666667  0.08333333  0.08333333       0.005
  -0.33333333  0.08333333  0.08333333       0.005
  -0.25000000  0.08333333  0.08333333       0.005
  -0.16666667  0.08333333  0.08333333       0.005
  -0.08333333  0.08333333  0.08333333       0.002
   0.08333333  0.16666667  0.08333333       0.002
   0.16666667  0.16666667  0.08333333       0.005
   0.25000000  0.16666667  0.08333333       0.005
   0.33333333  0.16666667  0.08333333       0.005
   0.41666667  0.16666667  0.08333333       0.005
   0.50000000  0.16666667  0.08333333       0.005
  -0.41666667  0.16666667  0.08333333       0.005
  -0.33333333  0.16666667  0.08333333       0.005
  -0.25000000  0.16666667  0.08333333       0.005
  -0.16666667  0.16666667  0.08333333       0.005
  -0.08333333  0.16666667  0.08333333       0.002
   0.08333333  0.25000000  0.08333333       0.002
   0.16666667  0.25000000  0.08333333       0.005
   0.25000000  0.25000000  0.08333333       0.005
   0.33333333  0.25000000  0.08333333       0.005
   0.41666667  0.25000000  0.08333333       0.005
   0.50000000  0.25000000  0.08333333       0.005
  -0.41666667  0.25000000  0.08333333       0.005
  -0.33333333  0.25000000  0.08333333       0.005
  -0.25000000  0.25000000  0.08333333       0.005
  -0.16666667  0.25000000  0.08333333       0.005
  -0.08333333  0.25000000  0.08333333       0.002
   0.08333333  0.33333333  0.08333333       0.002
   0.16666667  0.33333333  0.08333333       0.005
   0.25000000  0.33333333  0.08333333       0.005
   0.33333333  0.33333333  0.08333333       0.005
   0.41666667  0.33333333  0.08333333       0.005
   0.50000000  0.33333333  0.08333333       0.005
  -0.41666667  0.33333333  0.08333333       0.005
  -0.33333333  0.33333333  0.08333333       0.005
  -0.25000000  0.33333333  0.08333333       0.005
  -0.16666667  0.33333333  0.08333333       0.005
  -0.08333333  0.33333333  0.08333333       0.002
   0.08333333  0.41666667  0.08333333       0.002
   0.16666667  0.41666667  0.08333333       0.005
   0.25000000  0.41666667  0.08333333       0.005
   0.33333333  0.41666667  0.08333333       0.005
   0.41666667  0.41666667  0.08333333       0.005
   0.50000000  0.41666667  0.08333333       0.005
  -0.41666667  0.41666667  0.08333333       0.005
  -0.33333333  0.41666667  0.08333333       0.005
  -0.25000000  0.41666667  0.08333333       0.005
  -0.16666667  0.41666667  0.08333333       0.005
  -0.08333333  0.41666667  0.08333333       0.002
   0.08333333  0.50000000  0.08333333       0.001
   0.16666667  0.50000000  0.08333333       0.002
   0.25000000  0.50000000  0.08333333       0.002
   0.33333333  0.50000000  0.08333333       0.002
   0.41666667  0.50000000  0.08333333       0.002
   0.50000000  0.50000000  0.08333333       0.002
  -0.41666667  0.50000000  0.08333333       0.002
  -0.33333333  0.50000000  0.08333333       0.002
  -0.25000000  0.50000000  0.08333333       0.002
  -0.16666667  0.50000000  0.08333333       0.002
  -0.08333333  0.50000000  0.08333333       0.001
   0.16666667  0.00000000  0.16666667       0.001
   0.25000000  0.00000000  0.16666667       0.002
   0.33333333  0.00000000  0.16666667       0.002
   0.41666667  0.00000000  0.16666667       0.002
   0.50000000  0.00000000  0.16666667       0.002
  -0.41666667  0.00000000  0.16666667       0.002
  -0.33333333  0.00000000  0.16666667       0.002
  -0.25000000  0.00000000  0.16666667       0.002
  -0.16666667  0.00000000  0.16666667       0.001
   0.16666667  0.08333333  0.16666667       0.002
   0.25000000  0.08333333  0.16666667       0.005
   0.33333333  0.08333333  0.16666667       0.005
   0.41666667  0.08333333  0.16666667       0.005
   0.50000000  0.08333333  0.16666667       0.005
  -0.41666667  0.08333333  0.16666667       0.005
  -0.33333333  0.08333333  0.16666667       0.005
  -0.25000000  0.08333333  0.16666667       0.005
  -0.16666667  0.08333333  0.16666667       0.002
   0.16666667  0.16666667  0.16666667       0.002
   0.25000000  0.16666667  0.16666667       0.005
   0.33333333  0.16666667  0.16666667       0.005
   0.41666667  0.16666667  0.16666667       0.005
   0.50000000  0.16666667  0.16666667       0.005
  -0.41666667  0.16666667  0.16666667       0.005
  -0.33333333  0.16666667  0.16666667       0.005
  -0.25000000  0.16666667  0.16666667       0.005
  -0.16666667  0.16666667  0.16666667       0.002
   0.16666667  0.25000000  0.16666667       0.002
   0.25000000  0.25000000  0.16666667       0.005
   0.33333333  0.25000000  0.16666667       0.005
   0.41666667  0.25000000  0.16666667       0.005
   0.50000000  0.25000000  0.16666667       0.005
  -0.41666667  0.25000000  0.16666667       0.005
  -0.33333333  0.25000000  0.16666667       0.005
  -0.25000000  0.25000000  0.16666667       0.005
  -0.16666667  0.25000000  0.16666667       0.002
   0.16666667  0.33333333  0.16666667       0.002
   0.25000000  0.33333333  0.16666667       0.005
   0.33333333  0.33333333  0.16666667       0.005
   0.41666667  0.33333333  0.16666667       0.005
   0.50000000  0.33333333  0.16666667       0.005
  -0.41666667  0.33333333  0.16666667       0.005
  -0.33333333  0.33333333  0.16666667       0.005
  -0.25000000  0.33333333  0.16666667       0.005
  -0.16666667  0.33333333  0.16666667       0.002
   0.16666667  0.41666667  0.16666667       0.002
   0.25000000  0.41666667  0.16666667       0.005
   0.33333333  0.41666667  0.16666667       0.005
   0.41666667  0.41666667  0.16666667       0.005
   0.50000000  0.41666667  0.16666667       0.005
  -0.41666667  0.41666667  0.16666667       0.005
  -0.33333333  0.41666667  0.16666667       0.005
  -0.25000000  0.41666667  0.16666667       0.005
  -0.16666667  0.41666667  0.16666667       0.002
   0.16666667  0.50000000  0.16666667       0.001
   0.25000000  0.50000000  0.16666667       0.002
   0.33333333  0.50000000  0.16666667       0.002
   0.41666667  0.50000000  0.16666667       0.002
   0.50000000  0.50000000  0.16666667       0.002
  -0.41666667  0.50000000  0.16666667       0.002
  -0.33333333  0.50000000  0.16666667       0.002
  -0.25000000  0.50000000  0.16666667       0.002
  -0.16666667  0.50000000  0.16666667       0.001
   0.25000000  0.00000000  0.25000000       0.001
   0.33333333  0.00000000  0.25000000       0.002
   0.41666667  0.00000000  0.25000000       0.002
   0.50000000  0.00000000  0.25000000       0.002
  -0.41666667  0.00000000  0.25000000       0.002
  -0.33333333  0.00000000  0.25000000       0.002
  -0.25000000  0.00000000  0.25000000       0.001
   0.25000000  0.08333333  0.25000000       0.002
   0.33333333  0.08333333  0.25000000       0.005
   0.41666667  0.08333333  0.25000000       0.005
   0.50000000  0.08333333  0.25000000       0.005
  -0.41666667  0.08333333  0.25000000       0.005
  -0.33333333  0.08333333  0.25000000       0.005
  -0.25000000  0.08333333  0.25000000       0.002
   0.25000000  0.16666667  0.25000000       0.002
   0.33333333  0.16666667  0.25000000       0.005
   0.41666667  0.16666667  0.25000000       0.005
   0.50000000  0.16666667  0.25000000       0.005
  -0.41666667  0.16666667  0.25000000       0.005
  -0.33333333  0.16666667  0.25000000       0.005
  -0.25000000  0.16666667  0.25000000       0.002
   0.25000000  0.25000000  0.25000000       0.002
   0.33333333  0.25000000  0.25000000       0.005
   0.41666667  0.25000000  0.25000000       0.005
   0.50000000  0.25000000  0.25000000       0.005
  -0.41666667  0.25000000  0.25000000       0.005
  -0.33333333  0.25000000  0.25000000       0.005
  -0.25000000  0.25000000  0.25000000       0.002
   0.25000000  0.33333333  0.25000000       0.002
   0.33333333  0.33333333  0.25000000       0.005
   0.41666667  0.33333333  0.25000000       0.005
   0.50000000  0.33333333  0.25000000       0.005
  -0.41666667  0.33333333  0.25000000       0.005
  -0.33333333  0.33333333  0.25000000       0.005
  -0.25000000  0.33333333  0.25000000       0.002
   0.25000000  0.41666667  0.25000000       0.002
   0.33333333  0.41666667  0.25000000       0.005
   0.41666667  0.41666667  0.25000000       0.005
   0.50000000  0.41666667  0.25000000       0.005
  -0.41666667  0.41666667  0.25000000       0.005
  -0.33333333  0.41666667  0.25000000       0.005
  -0.25000000  0.41666667  0.25000000       0.002
   0.25000000  0.50000000  0.25000000       0.001
   0.33333333  0.50000000  0.25000000       0.002
   0.41666667  0.50000000  0.25000000       0.002
   0.50000000  0.50000000  0.25000000       0.002
  -0.41666667  0.50000000  0.25000000       0.002
  -0.33333333  0.50000000  0.25000000       0.002
  -0.25000000  0.50000000  0.25000000       0.001
   0.33333333  0.00000000  0.33333333       0.001
   0.41666667  0.00000000  0.33333333       0.002
   0.50000000  0.00000000  0.33333333       0.002
  -0.41666667  0.00000000  0.33333333       0.002
  -0.33333333  0.00000000  0.33333333       0.001
   0.33333333  0.08333333  0.33333333       0.002
   0.41666667  0.08333333  0.33333333       0.005
   0.50000000  0.08333333  0.33333333       0.005
  -0.41666667  0.08333333  0.33333333       0.005
  -0.33333333  0.08333333  0.33333333       0.002
   0.33333333  0.16666667  0.33333333       0.002
   0.41666667  0.16666667  0.33333333       0.005
   0.50000000  0.16666667  0.33333333       0.005
  -0.41666667  0.16666667  0.33333333       0.005
  -0.33333333  0.16666667  0.33333333       0.002
   0.33333333  0.25000000  0.33333333       0.002
   0.41666667  0.25000000  0.33333333       0.005
   0.50000000  0.25000000  0.33333333       0.005
  -0.41666667  0.25000000  0.33333333       0.005
  -0.33333333  0.25000000  0.33333333       0.002
   0.33333333  0.33333333  0.33333333       0.002
   0.41666667  0.33333333  0.33333333       0.005
   0.50000000  0.33333333  0.33333333       0.005
  -0.41666667  0.33333333  0.33333333       0.005
  -0.33333333  0.33333333  0.33333333       0.002
   0.33333333  0.41666667  0.33333333       0.002
   0.41666667  0.41666667  0.33333333       0.005
   0.50000000  0.41666667  0.33333333       0.005
  -0.41666667  0.41666667  0.33333333       0.005
  -0.33333333  0.41666667  0.33333333       0.002
   0.33333333  0.50000000  0.33333333       0.001
   0.41666667  0.50000000  0.33333333       0.002
   0.50000000  0.50000000  0.33333333       0.002
  -0.41666667  0.50000000  0.33333333       0.002
  -0.33333333  0.50000000  0.33333333       0.001
   0.41666667  0.00000000  0.41666667       0.001
   0.50000000  0.00000000  0.41666667       0.002
  -0.41666667  0.00000000  0.41666667       0.001
   0.41666667  0.08333333  0.41666667       0.002
   0.50000000  0.08333333  0.41666667       0.005
  -0.41666667  0.08333333  0.41666667       0.002
   0.41666667  0.16666667  0.41666667       0.002
   0.50000000  0.16666667  0.41666667       0.005
  -0.41666667  0.16666667  0.41666667       0.002
   0.41666667  0.25000000  0.41666667       0.002
   0.50000000  0.25000000  0.41666667       0.005
  -0.41666667  0.25000000  0.41666667       0.002
   0.41666667  0.33333333  0.41666667       0.002
   0.50000000  0.33333333  0.41666667       0.005
  -0.41666667  0.33333333  0.41666667       0.002
   0.41666667  0.41666667  0.41666667       0.002
   0.50000000  0.41666667  0.41666667       0.005
  -0.41666667  0.41666667  0.41666667       0.002
   0.41666667  0.50000000  0.41666667       0.001
   0.50000000  0.50000000  0.41666667       0.002
  -0.41666667  0.50000000  0.41666667       0.001
   0.50000000  0.00000000  0.50000000       0.001
   0.50000000  0.08333333  0.50000000       0.001
   0.50000000  0.16666667  0.50000000       0.001
   0.50000000  0.25000000  0.50000000       0.001
   0.50000000  0.33333333  0.50000000       0.001
   0.50000000  0.41666667  0.50000000       0.001
   0.50000000  0.50000000  0.50000000       0.001

 position of ions in fractional coordinates (direct lattice) 
   0.00000000  0.00000000  0.00000000
   0.00000000  0.50000000  0.50000000
   0.50000000  0.00000000  0.50000000
   0.50000000  0.50000000  0.00000000

 position of ions in cartesian coordinates  (Angst):
   0.00000000  0.00000000  0.00000000
  -0.00894358  1.78871534  1.78871534
   1.77977176  0.00000000  1.77977176
   1.78871534  1.78871534 -0.00894358



--------------------------------------------------------------------------------------------------------


 k-point   1 :   0.0000 0.0000 0.0000  plane waves:    1237
 k-point   2 :   0.0833 0.0000 0.0000  plane waves:    1239
 k-point   3 :   0.1667 0.0000 0.0000  plane waves:    1252
 k-point   4 :   0.2500 0.0000 0.0000  plane waves:    1247
 k-point   5 :   0.3333 0.0000 0.0000  plane waves:    1231
 k-point   6 :   0.4167 0.0000 0.0000  plane waves:    1228
 k-point   7 :   0.5000 0.0000 0.0000  plane waves:    1230
 k-point   8 :   0.0000 0.0833 0.0000  plane waves:    1241
 k-point   9 :   0.0833 0.0833 0.0000  plane waves:    1240
 k-point  10 :   0.1667 0.0833 0.0000  plane waves:    1248
 k-point  11 :   0.2500 0.0833 0.0000  plane waves:    1246
 k-point  12 :   0.3333 0.0833 0.0000  plane waves:    1228
 k-point  13 :   0.4167 0.0833 0.0000  plane waves:    1228
 k-point  14 :   0.5000 0.0833 0.0000  plane waves:    1230
 k-point  15 :   0.0000 0.1667 0.0000  plane waves:    1253
 k-point  16 :   0.0833 0.1667 0.0000  plane waves:    1251
 k-point  17 :   0.1667 0.1667 0.0000  plane waves:    1251
 k-point  18 :   0.2500 0.1667 0.0000  plane waves:    1244
 k-point  19 :   0.3333 0.1667 0.0000  plane waves:    1229
 k-point  20 :   0.4167 0.1667 0.0000  plane waves:    1227
 k-point  21 :   0.5000 0.1667 0.0000  plane waves:    1226
 k-point  22 :   0.0000 0.2500 0.0000  plane waves:    1241
 k-point  23 :   0.0833 0.2500 0.0000  plane waves:    1244
 k-point  24 :   0.1667 0.2500 0.0000  plane waves:    1241
 k-point  25 :   0.2500 0.2500 0.0000  plane waves:    1235
 k-point  26 :   0.3333 0.2500 0.0000  plane waves:    1235
 k-point  27 :   0.4167 0.2500 0.0000  plane waves:    1234
 k-point  28 :   0.5000 0.2500 0.0000  plane waves:    1238
 k-point  29 :   0.0000 0.3333 0.0000  plane waves:    1233
 k-point  30 :   0.0833 0.3333 0.0000  plane waves:    1231
 k-point  31 :   0.1667 0.3333 0.0000  plane waves:    1228
 k-point  32 :   0.2500 0.3333 0.0000  plane waves:    1233
 k-point  33 :   0.3333 0.3333 0.0000  plane waves:    1233
 k-point  34 :   0.4167 0.3333 0.0000  plane waves:    1235
 k-point  35 :   0.5000 0.3333 0.0000  plane waves:    1232
 k-point  36 :   0.0000 0.4167 0.0000  plane waves:    1222
 k-point  37 :   0.0833 0.4167 0.0000  plane waves:    1224
 k-point  38 :   0.1667 0.4167 0.0000  plane waves:    1225
 k-point  39 :   0.2500 0.4167 0.0000  plane waves:    1232
 k-point  40 :   0.3333 0.4167 0.0000  plane waves:    1234
 k-point  41 :   0.4167 0.4167 0.0000  plane waves:    1231
 k-point  42 :   0.5000 0.4167 0.0000  plane waves:    1226
 k-point  43 :   0.0000 0.5000 0.0000  plane waves:    1230
 k-point  44 :   0.0833 0.5000 0.0000  plane waves:    1226
 k-point  45 :   0.1667 0.5000 0.0000  plane waves:    1230
 k-point  46 :   0.2500 0.5000 0.0000  plane waves:    1238
 k-point  47 :   0.3333 0.5000 0.0000  plane waves:    1232
 k-point  48 :   0.4167 0.5000 0.0000  plane waves:    1228
 k-point  49 :   0.5000 0.5000 0.0000  plane waves:    1232
 k-point  50 :   0.0833 0.0000 0.0833  plane waves:    1243
 k-point  51 :   0.1667 0.0000 0.0833  plane waves:    1254
 k-point  52 :   0.2500 0.0000 0.0833  plane waves:    1243
 k-point  53 :   0.3333 0.0000 0.0833  plane waves:    1230
 k-point  54 :   0.4167 0.0000 0.0833  plane waves:    1225
 k-point  55 :   0.5000 0.0000 0.0833  plane waves:    1231
 k-point  56 :  -0.4167 0.0000 0.0833  plane waves:    1224
 k-point  57 :  -0.3333 0.0000 0.0833  plane waves:    1227
 k-point  58 :  -0.2500 0.0000 0.0833  plane waves:    1240
 k-point  59 :  -0.1667 0.0000 0.0833  plane waves:    1248
 k-point  60 :  -0.0833 0.0000 0.0833  plane waves:    1249
 k-point  61 :   0.0833 0.0833 0.0833  plane waves:    1246
[...]
     25       4.6519      2.00000
     26       4.6519      2.00000
     27       4.7064      2.00000
     28       4.7064      2.00000
     29       5.0144      2.00000
     30       5.0144      2.00000
     31       5.0341      2.00000
     32       5.0341      2.00000
     33       6.9402      2.03316
     34       6.9402      2.03316
     35       7.0376      2.07057
     36       7.0376      2.07057
     37      17.1264      0.00000
     38      17.1264      0.00000
     39      17.2533      0.00000
     40      17.2533      0.00000

 k-point   296 :       0.5000    0.0833    0.5000
  band No.  band energies     occupation 
      1     -62.7034      2.00000
      2     -62.7034      2.00000
      3     -62.6969      2.00000
      4     -62.6969      2.00000
      5     -62.6569      2.00000
      6     -62.6569      2.00000
      7     -62.6567      2.00000
      8     -62.6567      2.00000
      9     -62.6270      2.00000
     10     -62.6270      2.00000
     11     -62.6263      2.00000
     12     -62.6263      2.00000
     13       2.3298      2.00000
     14       2.3298      2.00000
     15       2.3960      2.00000
     16       2.3960      2.00000
     17       3.7059      2.00000
     18       3.7059      2.00000
     19       3.7092      2.00000
     20       3.7092      2.00000
     21       3.8351      2.00000
     22       3.8351      2.00000
     23       3.8781      2.00000
     24       3.8781      2.00000
     25       4.5703      2.00000
     26       4.5703      2.00000
     27       4.6227      2.00000
     28       4.6227      2.00000
     29       5.0987      2.00000
     30       5.0987      2.00000
     31       5.1206      2.00000
     32       5.1206      2.00000
     33       6.9269      2.02792
     34       6.9269      2.02792
     35       7.0235      2.06798
     36       7.0235      2.06798
     37      15.9055      0.00000
     38      15.9055      0.00000
     39      16.0274      0.00000
     40      16.0274      0.00000

 k-point   297 :       0.5000    0.1667    0.5000
  band No.  band energies     occupation 
      1     -62.7110      2.00000
      2     -62.7110      2.00000
      3     -62.7058      2.00000
      4     -62.7058      2.00000
      5     -62.6489      2.00000
      6     -62.6489      2.00000
      7     -62.6478      2.00000
      8     -62.6478      2.00000
      9     -62.6271      2.00000
     10     -62.6271      2.00000
     11     -62.6262      2.00000
     12     -62.6262      2.00000
     13       2.2463      2.00000
     14       2.2463      2.00000
     15       2.2970      2.00000
     16       2.2970      2.00000
     17       3.8778      2.00000
     18       3.8778      2.00000
     19       3.9180      2.00000
     20       3.9180      2.00000
     21       3.9691      2.00000
     22       3.9691      2.00000
     23       3.9851      2.00000
     24       3.9851      2.00000
     25       4.4253      2.00000
     26       4.4253      2.00000
     27       4.4779      2.00000
     28       4.4779      2.00000
     29       5.2520      2.00000
     30       5.2520      2.00000
     31       5.2727      2.00000
     32       5.2727      2.00000
     33       6.8816      2.01406
     34       6.8816      2.01406
     35       6.9760      2.04919
     36       6.9760      2.04919
     37      14.3941      0.00000
     38      14.3941      0.00000
     39      14.5180      0.00000
     40      14.5180      0.00000

 k-point   298 :       0.5000    0.2500    0.5000
  band No.  band energies     occupation 
      1     -62.7191      2.00000
      2     -62.7191      2.00000
      3     -62.7144      2.00000
      4     -62.7144      2.00000
      5     -62.6409      2.00000
      6     -62.6409      2.00000
      7     -62.6390      2.00000
      8     -62.6390      2.00000
      9     -62.6271      2.00000
     10     -62.6271      2.00000
     11     -62.6264      2.00000
     12     -62.6264      2.00000
     13       2.1502      2.00000
     14       2.1502      2.00000
     15       2.1874      2.00000
     16       2.1874      2.00000
     17       3.9592      2.00000
     18       3.9592      2.00000
     19       4.0022      2.00000
     20       4.0022      2.00000
     21       4.2881      2.00000
     22       4.2881      2.00000
     23       4.3321      2.00000
     24       4.3321      2.00000
     25       4.3426      2.00000
     26       4.3426      2.00000
     27       4.3597      2.00000
     28       4.3597      2.00000
     29       5.4001      2.00000
     30       5.4001      2.00000
     31       5.4182      2.00000
     32       5.4182      2.00000
     33       6.7869      2.00219
     34       6.7869      2.00219
     35       6.8775      2.01313
     36       6.8775      2.01313
     37      13.0763      0.00000
     38      13.0763      0.00000
     39      13.2043      0.00000
     40      13.2043      0.00000

 k-point   299 :       0.5000    0.3333    0.5000
  band No.  band energies     occupation 
      1     -62.7261      2.00000
      2     -62.7261      2.00000
      3     -62.7218      2.00000
      4     -62.7218      2.00000
      5     -62.6340      2.00000
      6     -62.6340      2.00000
      7     -62.6318      2.00000
      8     -62.6318      2.00000
      9     -62.6274      2.00000
     10     -62.6274      2.00000
     11     -62.6265      2.00000
     12     -62.6265      2.00000
     13       2.0671      2.00000
     14       2.0671      2.00000
     15       2.0951      2.00000
     16       2.0951      2.00000
     17       4.0303      2.00000
     18       4.0303      2.00000
     19       4.0730      2.00000
     20       4.0730      2.00000
     21       4.1808      2.00000
     22       4.1808      2.00000
     23       4.2368      2.00000
     24       4.2368      2.00000
     25       4.7912      2.00000
     26       4.7912      2.00000
     27       4.8289      2.00000
     28       4.8289      2.00000
     29       5.5182      2.00000
     30       5.5182      2.00000
     31       5.5338      2.00000
     32       5.5338      2.00000
     33       6.6144      2.00002
     34       6.6144      2.00002
     35       6.7004      2.00025
     36       6.7004      2.00025
     37      12.0382     -0.00000
     38      12.0382     -0.00000
     39      12.1716     -0.00000
     40      12.1716     -0.00000

 k-point   300 :       0.5000    0.4167    0.5000
  band No.  band energies     occupation 
      1     -62.7305      2.00000
      2     -62.7305      2.00000
      3     -62.7267      2.00000
      4     -62.7267      2.00000
      5     -62.6298      2.00000
      6     -62.6298      2.00000
      7     -62.6275      2.00000
      8     -62.6275      2.00000
      9     -62.6272      2.00000
     10     -62.6272      2.00000
     11     -62.6265      2.00000
     12     -62.6265      2.00000
     13       2.0122      2.00000
     14       2.0122      2.00000
     15       2.0350      2.00000
     16       2.0350      2.00000
     17       4.0795      2.00000
     18       4.0795      2.00000
     19       4.1129      2.00000
     20       4.1129      2.00000
     21       4.1222      2.00000
     22       4.1222      2.00000
     23       4.1704      2.00000
     24       4.1704      2.00000
     25       5.2855      2.00000
     26       5.2855      2.00000
     27       5.3261      2.00000
     28       5.3261      2.00000
     29       5.5941      2.00000
     30       5.5941      2.00000
     31       5.6077      2.00000
     32       5.6077      2.00000
     33       6.3414      2.00000
     34       6.3414      2.00000
     35       6.4257      2.00000
     36       6.4257      2.00000
     37      11.3645     -0.00000
     38      11.3645     -0.00000
     39      11.5030     -0.00000
     40      11.5030     -0.00000

 k-point   301 :       0.5000    0.5000    0.5000
  band No.  band energies     occupation 
      1     -62.7318      2.00000
      2     -62.7318      2.00000
      3     -62.7275      2.00000
      4     -62.7275      2.00000
      5     -62.6279      2.00000
      6     -62.6279      2.00000
      7     -62.6271      2.00000
      8     -62.6271      2.00000
      9     -62.6263      2.00000
     10     -62.6263      2.00000
     11     -62.6254      2.00000
     12     -62.6254      2.00000
     13       1.9934      2.00000
     14       1.9934      2.00000
     15       2.0144      2.00000
     16       2.0144      2.00000
     17       4.0899      2.00000
     18       4.0899      2.00000
     19       4.0973      2.00000
     20       4.0973      2.00000
     21       4.1400      2.00000
     22       4.1400      2.00000
     23       4.1477      2.00000
     24       4.1477      2.00000
     25       5.6115      2.00000
     26       5.6115      2.00000
     27       5.6204      2.00000
     28       5.6204      2.00000
     29       5.6334      2.00000
     30       5.6334      2.00000
     31       5.6421      2.00000
     32       5.6421      2.00000
     33       6.0995      2.00000
     34       6.0995      2.00000
     35       6.1933      2.00000
     36       6.1933      2.00000
     37      11.1300     -0.00000
     38      11.1300     -0.00000
     39      11.2707     -0.00000
     40      11.2707     -0.00000


--------------------------------------------------------------------------------------------------------


 soft charge-density along one line, spin component           1
         0         1         2         3         4         5         6         7         8         9
 total charge-density along one line

 pseudopotential strength for first ion, spin component:           1
-67.124   0.000   0.000  31.504  -0.000  -0.000  -0.000  -0.000
  0.000 -67.124  -0.001  -0.000  31.504   0.001  -0.000  -0.000
  0.000  -0.001 -67.124  -0.000   0.001  31.504  -0.000  -0.000
 31.504  -0.000  -0.000  -8.875   0.000   0.000   0.000   0.000
 -0.000  31.504   0.001   0.000  -8.875  -0.001   0.000   0.000
 -0.000   0.001  31.504   0.000  -0.001  -8.875   0.000   0.000
 -0.000  -0.000  -0.000   0.000   0.000   0.000  -6.396  -0.001
 -0.000  -0.000  -0.000   0.000   0.000   0.000  -0.001  -6.396
  0.000  -0.000   0.000  -0.000   0.000  -0.000  -0.000   0.000
 -0.000  -0.000  -0.000   0.000   0.000   0.000   0.000   0.000
  0.000  -0.000  -0.000  -0.000   0.000   0.000  -0.000  -0.000
  0.000   0.000   0.000  -0.000  -0.000  -0.000  -0.770   0.000
  0.000   0.000   0.000  -0.000  -0.000  -0.000   0.000  -0.770
 -0.000   0.000  -0.000   0.000  -0.000   0.000   0.000  -0.000
  0.000   0.000   0.000  -0.000  -0.000  -0.000  -0.000  -0.000
 -0.000   0.000   0.000   0.000  -0.000  -0.000   0.000   0.000
  0.000   0.000   0.000  -0.000  -0.000  -0.000  -0.000  -0.000
 -0.000  -0.000  -0.000   0.000   0.000   0.000   0.000   0.000
 total augmentation occupancy for first ion, spin component:           1
  2.000   0.000   0.000   0.030   0.000   0.000   0.000   0.000   0.000   0.000  -0.000   0.000   0.000  -0.000   0.000  -0.000
  0.000   2.000   0.000   0.000   0.030   0.000  -0.000  -0.000  -0.000  -0.000   0.000  -0.000   0.000   0.000  -0.000  -0.000
  0.000   0.000   2.000   0.000   0.000   0.030  -0.000   0.000  -0.000   0.000  -0.000  -0.000  -0.000   0.000  -0.000  -0.000
  0.030   0.000   0.000   0.141   0.000   0.000  -0.000   0.000   0.000   0.000   0.000  -0.000   0.000  -0.000  -0.000  -0.000
  0.000   0.030   0.000   0.000   0.141   0.001   0.000   0.000   0.000   0.000   0.000  -0.000   0.000  -0.000   0.000   0.000
  0.000   0.000   0.030   0.000   0.001   0.141   0.000  -0.000   0.000  -0.000  -0.000   0.000  -0.000   0.000   0.000  -0.000
  0.000  -0.000  -0.000  -0.000   0.000   0.000   1.898   0.000  -0.000   0.000  -0.000  -0.054  -0.001   0.000  -0.000   0.000
  0.000  -0.000   0.000   0.000   0.000  -0.000   0.000   1.898   0.000   0.000  -0.000  -0.001  -0.054  -0.000  -0.000   0.000
 -0.000   0.000  -0.000   0.000  -0.000   0.000  -0.000   0.000   1.921  -0.000  -0.000   0.000  -0.000  -0.100   0.001   0.000
  0.000  -0.000   0.000   0.000   0.000  -0.000   0.000   0.000  -0.000   1.898  -0.000  -0.000  -0.000   0.001  -0.054   0.002
  0.000   0.000  -0.000   0.000  -0.000   0.000  -0.000  -0.000  -0.000  -0.000   1.921   0.000   0.000   0.000   0.002  -0.100
  0.000  -0.000  -0.000  -0.000  -0.000   0.000  -0.054  -0.001   0.000  -0.000   0.000   0.096   0.001  -0.000   0.000   0.000
  0.000   0.000  -0.000   0.000   0.000  -0.000  -0.001  -0.054  -0.000  -0.000   0.000   0.001   0.096   0.000   0.000  -0.000
 -0.000   0.000   0.000  -0.000   0.000   0.000   0.000  -0.000  -0.100   0.001   0.000  -0.000   0.000   0.092   0.000  -0.000
  0.000  -0.000  -0.000  -0.000   0.000   0.000  -0.000  -0.000   0.001  -0.054   0.002   0.000   0.000   0.000   0.096   0.001
 -0.000   0.000  -0.000   0.000   0.000  -0.000   0.000   0.000   0.000   0.002  -0.100   0.000  -0.000  -0.000   0.001   0.092
 -0.000  -0.000  -0.000  -0.000  -0.000   0.000  -0.000  -0.000   0.000   0.002   0.000  -0.000   0.000   0.000   0.003   0.000
 -0.000   0.000  -0.000   0.000   0.000   0.000   0.000  -0.000   0.000   0.002   0.000  -0.000  -0.000  -0.000  -0.000  -0.000


------------------------ aborting loop because EDIFF is reached ----------------------------------------





 total charge

# of ion       s       p       d       tot
------------------------------------------
    1        0.300   6.201   8.877  15.377
    2        0.300   6.201   8.877  15.377
    3        0.300   6.201   8.877  15.377
    4        0.300   6.201   8.877  15.377
--------------------------------------------------
tot          1.199  24.803  35.506  61.508

    CHARGE:  cpu time    1.3550: real time    1.3550
    FORLOC:  cpu time    0.0013: real time    0.0013
    FORNL :  cpu time    2.9875: real time    2.9876
    STRESS:  cpu time    3.9008: real time    3.9009
    FORCOR:  cpu time    0.0227: real time    0.0227
    FORHAR:  cpu time    0.0063: real time    0.0063
    MIXING:  cpu time    0.0010: real time    0.0010
    OFIELD:  cpu time    0.0000: real time    0.0000

  FORCE on cell =-STRESS in cart. coord.  units (eV):
  Direction    XX          YY          ZZ          XY          YZ          ZX
  --------------------------------------------------------------------------------------
  Alpha Z   632.25916   632.25916   632.25916
  Ewald   -3555.48381 -3555.93388 -3555.48381     0.00000     0.00000    22.06586
  Hartree  1650.27805  1650.01272  1650.27805    -0.00000    -0.00000    14.09419
  E(xc)    -535.29923  -535.29946  -535.29923     0.00000     0.00000     0.01410
  Local     567.28542   567.98589   567.28542    -0.00000     0.00000   -35.86421
  n-local  -349.71665  -352.48527  -355.25150     0.05263     1.56165     0.10644
  augment   751.77487   751.78039   751.77487    -0.00000    -0.00000    -0.09589
  Kinetic   848.41110   843.11042   837.80154    -0.25130    -0.19044    -0.01781
  Fock        0.00000     0.00000     0.00000     0.00000     0.00000     0.00000
  -------------------------------------------------------------------------------------
  Total       1.43671     1.42996     1.43671     0.00000     0.00000     0.30261
  in kB      50.27792    50.04157    50.27792     0.00000     0.00000    10.58972
  external pressure =       50.20 kB  Pullay stress =        0.00 kB


 VOLUME and BASIS-vectors are now :
 -----------------------------------------------------------------------------
  energy-cutoff  :      520.00
  volume of cell :       45.78
      direct lattice vectors                 reciprocal lattice vectors
     3.577430672  0.000000000 -0.017887153     0.279537213 -0.000000000  0.001397686
     0.000000000  3.577430672  0.000000000    -0.000000000  0.279530225 -0.000000000
    -0.017887153  0.000000000  3.577430672     0.001397686 -0.000000000  0.279537213

  length of vectors
     3.577475389  3.577430672  3.577475389     0.279540707  0.279530225  0.279540707


 FORCES acting on ions
    electron-ion (+dipol)            ewald-force                    non-local-force                 convergence-correction
 -----------------------------------------------------------------------------------------------
   -.925E-13 -.140E-12 -.220E-12   0.722E-14 -.117E-13 -.134E-13   0.217E-23 -.993E-23 0.662E-23   -.250E-12 -.324E-12 0.234E-13
   -.123E-12 0.220E-11 0.208E-11   0.304E-14 -.115E-13 -.444E-14   -.123E-22 -.331E-23 -.993E-23   -.262E-12 -.233E-12 0.502E-13
   0.200E-11 -.114E-12 0.308E-10   -.194E-13 0.101E-13 0.306E-13   0.145E-22 -.662E-23 0.000E+00   -.192E-12 -.361E-12 -.929E-14
   0.215E-11 0.150E-10 0.891E-11   -.238E-13 0.103E-13 -.154E-13   -.537E-23 -.207E-24 0.000E+00   -.245E-12 -.264E-12 0.544E-13
 -----------------------------------------------------------------------------------------------
   0.393E-11 0.169E-10 0.416E-10   -.329E-13 -.282E-14 -.259E-14   -.924E-24 -.201E-22 -.331E-23   -.949E-12 -.118E-11 0.119E-12


 POSITION                                       TOTAL-FORCE (eV/Angst)
 -----------------------------------------------------------------------------------
      0.00000      0.00000      0.00000        -0.000000      0.000000      0.000000
     -0.00894      1.78872      1.78872        -0.000000      0.000000     -0.000000
      1.77977      0.00000      1.77977         0.000000      0.000000     -0.000000
      1.78872      1.78872     -0.00894         0.000000     -0.000000      0.000000
 -----------------------------------------------------------------------------------
    total drift:                                0.000000      0.000000      0.000000


--------------------------------------------------------------------------------------------------------



  FREE ENERGIE OF THE ION-ELECTRON SYSTEM (eV)
  ---------------------------------------------------
  free  energy   TOTEN  =       -16.34669713 eV

  energy  without entropy=      -16.34978142  energy(sigma->0) =      -16.34772523



--------------------------------------------------------------------------------------------------------


    POTLOK:  cpu time    0.1187: real time    0.1187


--------------------------------------------------------------------------------------------------------


 stress matrix after NEB project (eV)
      1.43671      0.00000      0.30261
      0.00000      1.42996      0.00000
      0.30261      0.00000      1.43671
  FORCES: max atom, RMS     0.000000    0.000000
  FORCE total and by dimension    0.000000    0.000000
  Stress total and by dimension    2.521150    1.436711
     LOOP+:  cpu time  285.5023: real time  285.7301
    4ORBIT:  cpu time    0.0000: real time    0.0000



 total charge

# of ion       s       p       d       tot
------------------------------------------
    1        0.300   6.201   8.877  15.377
    2        0.300   6.201   8.877  15.377
    3        0.300   6.201   8.877  15.377
    4        0.300   6.201   8.877  15.377
--------------------------------------------------
tot          1.199  24.803  35.506  61.508


 total amount of memory used by VASP MPI-rank0   153205. kBytes
=======================================================================

   base      :      30000. kBytes
   nonl-proj :      54520. kBytes
   fftplans  :       1619. kBytes
   grid      :       3048. kBytes
   one-center:         62. kBytes
   wavefun   :      63956. kBytes

  
  
 General timing and accounting informations for this job:
 ========================================================
  
                  Total CPU time used (sec):      288.602
                            User time (sec):      287.474
                          System time (sec):        1.128
                         Elapsed time (sec):      288.698
  
                   Maximum memory used (kb):      163224.
                   Average memory used (kb):          N/A
  
                          Minor page faults:       268456
                          Major page faults:          363
                 Voluntary context switches:          570
