   1   1   1   0
  0.1658294E+02  0.2862368E-09  0.2862368E-09  0.2862368E-09  0.5000000E-15
   1.0000000000000000E-004
  CAR 
 unknown system                          
    116.92742359     -8.87112841  301      8.00246158      1.00000000
     -8.871  0.0000E+00  0.0000E+00  0.0000E+00  0.0000E+00
     -8.452  0.0000E+00  0.0000E+00  0.0000E+00  0.0000E+00
     -8.032  0.0000E+00  0.0000E+00  0.0000E+00  0.0000E+00
     -7.613  0.0000E+00  0.0000E+00  0.0000E+00  0.0000E+00
     -7.194  0.0000E+00  0.0000E+00  0.0000E+00  0.0000E+00
     -6.774  0.0000E+00  0.0000E+00  0.0000E+00  0.0000E+00
     -6.355  0.0000E+00  0.0000E+00  0.0000E+00  0.0000E+00
     -5.936  0.0000E+00  0.0000E+00  0.0000E+00  0.0000E+00
     -5.517  0.0000E+00  0.0000E+00  0.0000E+00  0.0000E+00
     -5.097  0.0000E+00  0.0000E+00  0.0000E+00  0.0000E+00
     -4.678  0.0000E+00  0.0000E+00  0.0000E+00  0.0000E+00
     -4.259  0.0000E+00  0.0000E+00  0.0000E+00  0.0000E+00
     -3.839  0.0000E+00  0.0000E+00  0.0000E+00  0.0000E+00
     -3.420  0.0000E+00  0.0000E+00  0.0000E+00  0.0000E+00
     -3.001  0.1369E-01  0.1402E-01  0.6872E-03  0.7127E-03
     -2.581  0.4140E-01  0.4151E-01  0.1336E-01  0.1343E-01
     -2.162  0.5472E-01  0.5478E-01  0.3393E-01  0.3404E-01
     -1.743  0.6951E-01  0.6958E-01  0.5993E-01  0.6006E-01
     -1.323  0.7714E-01  0.7718E-01  0.9053E-01  0.9067E-01
     -0.904  0.8732E-01  0.8737E-01  0.1249E+00  0.1251E+00
     -0.485  0.9531E-01  0.9534E-01  0.1635E+00  0.1637E+00
     -0.065  0.1027E+00  0.1027E+00  0.2050E+00  0.2052E+00
      0.354  0.1108E+00  0.1108E+00  0.2497E+00  0.2499E+00
      0.773  0.1181E+00  0.1181E+00  0.2978E+00  0.2981E+00
      1.193  0.1239E+00  0.1240E+00  0.3486E+00  0.3488E+00
      1.612  0.1307E+00  0.1308E+00  0.4020E+00  0.4022E+00
      2.031  0.1382E+00  0.1383E+00  0.4583E+00  0.4585E+00
      2.451  0.1500E+00  0.1501E+00  0.5184E+00  0.5187E+00
      2.870  0.1634E+00  0.1634E+00  0.5843E+00  0.5846E+00
      3.289  0.1711E+00  0.1710E+00  0.6601E+00  0.6604E+00
      3.709  0.1472E+00  0.1472E+00  0.7248E+00  0.7251E+00
      4.128  0.1573E+00  0.1573E+00  0.7883E+00  0.7886E+00
      4.547  0.1896E+00  0.1895E+00  0.8589E+00  0.8592E+00
      4.967  0.1880E+00  0.1881E+00  0.9360E+00  0.9363E+00
      5.386  0.1817E+00  0.1817E+00  0.1017E+01  0.1017E+01
      5.805  0.1506E+00  0.1505E+00  0.1089E+01  0.1089E+01
      6.225  0.1432E+00  0.1433E+00  0.1148E+01  0.1148E+01
      6.644  0.2124E+00  0.2126E+00  0.1232E+01  0.1232E+01
      7.063  0.2099E+00  0.2099E+00  0.1323E+01  0.1324E+01
      7.483  0.1922E+00  0.1921E+00  0.1406E+01  0.1406E+01
      7.902  0.1708E+00  0.1707E+00  0.1483E+01  0.1483E+01
      8.321  0.1999E+00  0.2001E+00  0.1556E+01  0.1556E+01
      8.741  0.2498E+00  0.2499E+00  0.1654E+01  0.1654E+01
      9.160  0.2050E+00  0.2049E+00  0.1746E+01  0.1746E+01
      9.579  0.2117E+00  0.2118E+00  0.1833E+01  0.1833E+01
      9.999  0.2008E+00  0.2008E+00  0.1920E+01  0.1920E+01
     10.418  0.2338E+00  0.2338E+00  0.2016E+01  0.2017E+01
     10.837  0.2427E+00  0.2428E+00  0.2113E+01  0.2113E+01
     11.257  0.2396E+00  0.2396E+00  0.2217E+01  0.2217E+01
     11.676  0.2338E+00  0.2338E+00  0.2316E+01  0.2316E+01
     12.095  0.2410E+00  0.2411E+00  0.2416E+01  0.2416E+01
     12.515  0.2635E+00  0.2635E+00  0.2524E+01  0.2525E+01
     12.934  0.2795E+00  0.2796E+00  0.2637E+01  0.2638E+01
     13.353  0.2920E+00  0.2922E+00  0.2757E+01  0.2757E+01
     13.773  0.3035E+00  0.3037E+00  0.2883E+01  0.2884E+01
     14.192  0.2820E+00  0.2820E+00  0.3006E+01  0.3007E+01
     14.611  0.2747E+00  0.2746E+00  0.3123E+01  0.3123E+01
     15.031  0.2669E+00  0.2668E+00  0.3236E+01  0.3237E+01
     15.450  0.2608E+00  0.2607E+00  0.3347E+01  0.3347E+01
     15.869  0.2669E+00  0.2670E+00  0.3457E+01  0.3457E+01
     16.289  0.2635E+00  0.2634E+00  0.3569E+01  0.3569E+01
     16.708  0.2579E+00  0.2579E+00  0.3678E+01  0.3678E+01
     17.127  0.2565E+00  0.2565E+00  0.3785E+01  0.3786E+01
     17.547  0.2666E+00  0.2667E+00  0.3895E+01  0.3895E+01
     17.966  0.2778E+00  0.2779E+00  0.4009E+01  0.4010E+01
     18.385  0.2911E+00  0.2913E+00  0.4128E+01  0.4129E+01
     18.805  0.3106E+00  0.3106E+00  0.4256E+01  0.4256E+01
     19.224  0.3337E+00  0.3341E+00  0.4388E+01  0.4389E+01
     19.643  0.3890E+00  0.3889E+00  0.4541E+01  0.4543E+01
     20.063  0.3919E+00  0.3919E+00  0.4705E+01  0.4706E+01
     20.482  0.3422E+00  0.3412E+00  0.4870E+01  0.4871E+01
     20.901  0.2633E+00  0.2634E+00  0.4991E+01  0.4991E+01
     21.321  0.3084E+00  0.3128E+00  0.5099E+01  0.5100E+01
     21.740  0.2681E+00  0.2682E+00  0.5217E+01  0.5218E+01
     22.159  0.2540E+00  0.2543E+00  0.5325E+01  0.5325E+01
     22.579  0.3797E+00  0.3800E+00  0.5460E+01  0.5461E+01
     22.998  0.4316E+00  0.4318E+00  0.5631E+01  0.5632E+01
     23.417  0.3270E+00  0.3256E+00  0.5792E+01  0.5794E+01
     23.836  0.2891E+00  0.2900E+00  0.5913E+01  0.5914E+01
     24.256  0.3056E+00  0.3055E+00  0.6043E+01  0.6044E+01
     24.675  0.3007E+00  0.2987E+00  0.6168E+01  0.6170E+01
     25.094  0.3673E+00  0.3663E+00  0.6305E+01  0.6306E+01
     25.514  0.4554E+00  0.4555E+00  0.6479E+01  0.6481E+01
     25.933  0.4228E+00  0.4223E+00  0.6665E+01  0.6667E+01
     26.352  0.3997E+00  0.4000E+00  0.6834E+01  0.6836E+01
     26.772  0.3355E+00  0.3351E+00  0.6994E+01  0.6995E+01
     27.191  0.3204E+00  0.3201E+00  0.7133E+01  0.7134E+01
     27.610  0.2922E+00  0.2918E+00  0.7263E+01  0.7264E+01
     28.030  0.2908E+00  0.2912E+00  0.7383E+01  0.7384E+01
     28.449  0.4312E+00  0.4357E+00  0.7529E+01  0.7530E+01
     28.868  0.4169E+00  0.4132E+00  0.7732E+01  0.7734E+01
     29.288  0.5104E+00  0.5093E+00  0.7913E+01  0.7915E+01
     29.707  0.4235E+00  0.4234E+00  0.8100E+01  0.8102E+01
     30.126  0.4078E+00  0.4076E+00  0.8276E+01  0.8277E+01
     30.546  0.3510E+00  0.3507E+00  0.8434E+01  0.8436E+01
     30.965  0.3504E+00  0.3508E+00  0.8578E+01  0.8580E+01
     31.384  0.3989E+00  0.3990E+00  0.8735E+01  0.8737E+01
     31.804  0.4148E+00  0.4156E+00  0.8903E+01  0.8905E+01
     32.223  0.5476E+00  0.5460E+00  0.9130E+01  0.9132E+01
     32.642  0.4017E+00  0.4012E+00  0.9313E+01  0.9315E+01
     33.062  0.3615E+00  0.3593E+00  0.9478E+01  0.9480E+01
     33.481  0.3132E+00  0.3126E+00  0.9618E+01  0.9619E+01
     33.900  0.2557E+00  0.2553E+00  0.9735E+01  0.9736E+01
     34.320  0.2924E+00  0.2919E+00  0.9846E+01  0.9847E+01
     34.739  0.1857E+00  0.1855E+00  0.9942E+01  0.9943E+01
     35.158  0.1679E+00  0.1678E+00  0.1001E+02  0.1002E+02
     35.578  0.1712E+00  0.1713E+00  0.1009E+02  0.1009E+02
     35.997  0.1923E+00  0.1925E+00  0.1016E+02  0.1016E+02
     36.416  0.2432E+00  0.2435E+00  0.1025E+02  0.1025E+02
     36.836  0.2451E+00  0.2451E+00  0.1035E+02  0.1035E+02
     37.255  0.2635E+00  0.2635E+00  0.1046E+02  0.1046E+02
     37.674  0.2894E+00  0.2895E+00  0.1057E+02  0.1057E+02
     38.094  0.3996E+00  0.3997E+00  0.1072E+02  0.1072E+02
     38.513  0.3950E+00  0.3949E+00  0.1087E+02  0.1087E+02
     38.932  0.3142E+00  0.3139E+00  0.1102E+02  0.1102E+02
     39.352  0.3763E+00  0.3767E+00  0.1115E+02  0.1115E+02
     39.771  0.5304E+00  0.5314E+00  0.1134E+02  0.1134E+02
     40.190  0.4972E+00  0.4971E+00  0.1156E+02  0.1156E+02
     40.610  0.4284E+00  0.4284E+00  0.1175E+02  0.1175E+02
     41.029  0.4520E+00  0.4524E+00  0.1193E+02  0.1193E+02
     41.448  0.6310E+00  0.6381E+00  0.1215E+02  0.1215E+02
     41.868  0.5087E+00  0.5087E+00  0.1237E+02  0.1237E+02
     42.287  0.5196E+00  0.5191E+00  0.1259E+02  0.1259E+02
     42.706  0.4551E+00  0.4582E+00  0.1277E+02  0.1277E+02
     43.126  0.4428E+00  0.4420E+00  0.1299E+02  0.1299E+02
     43.545  0.4290E+00  0.4300E+00  0.1316E+02  0.1316E+02
     43.964  0.5052E+00  0.5054E+00  0.1336E+02  0.1337E+02
     44.384  0.4362E+00  0.4359E+00  0.1356E+02  0.1356E+02
     44.803  0.3932E+00  0.3928E+00  0.1374E+02  0.1374E+02
     45.222  0.3864E+00  0.3868E+00  0.1390E+02  0.1390E+02
     45.642  0.5000E+00  0.5004E+00  0.1408E+02  0.1408E+02
     46.061  0.5751E+00  0.5750E+00  0.1431E+02  0.1431E+02
     46.480  0.5459E+00  0.5457E+00  0.1454E+02  0.1454E+02
     46.900  0.4389E+00  0.4385E+00  0.1475E+02  0.1475E+02
     47.319  0.4222E+00  0.4228E+00  0.1493E+02  0.1493E+02
     47.738  0.4573E+00  0.4568E+00  0.1512E+02  0.1512E+02
     48.158  0.4622E+00  0.4624E+00  0.1531E+02  0.1531E+02
     48.577  0.5490E+00  0.5495E+00  0.1552E+02  0.1552E+02
     48.996  0.4612E+00  0.4608E+00  0.1574E+02  0.1574E+02
     49.416  0.4015E+00  0.4034E+00  0.1591E+02  0.1591E+02
     49.835  0.6604E+00  0.6671E+00  0.1612E+02  0.1612E+02
     50.254  0.3156E+00  0.3157E+00  0.1627E+02  0.1627E+02
     50.674  0.3849E+00  0.3855E+00  0.1641E+02  0.1641E+02
     51.093  0.5431E+00  0.5441E+00  0.1660E+02  0.1660E+02
     51.512  0.6506E+00  0.6507E+00  0.1685E+02  0.1686E+02
     51.932  0.4575E+00  0.4580E+00  0.1709E+02  0.1709E+02
     52.351  0.3966E+00  0.3969E+00  0.1725E+02  0.1725E+02
     52.770  0.4804E+00  0.4808E+00  0.1744E+02  0.1744E+02
     53.189  0.7270E+00  0.7269E+00  0.1771E+02  0.1771E+02
     53.609  0.9812E+00  0.9815E+00  0.1805E+02  0.1805E+02
     54.028  0.9193E+00  0.9180E+00  0.1849E+02  0.1849E+02
     54.447  0.9041E+00  0.9032E+00  0.1883E+02  0.1883E+02
     54.867  0.1068E+01  0.1068E+01  0.1922E+02  0.1922E+02
     55.286  0.9349E+00  0.9347E+00  0.1966E+02  0.1966E+02
     55.705  0.1007E+01  0.1009E+01  0.2006E+02  0.2006E+02
     56.125  0.1733E+01  0.1734E+01  0.2061E+02  0.2061E+02
     56.544  0.1075E+01  0.1076E+01  0.2121E+02  0.2121E+02
     56.963  0.1227E+01  0.1223E+01  0.2168E+02  0.2169E+02
     57.383  0.9252E+00  0.9287E+00  0.2204E+02  0.2204E+02
     57.802  0.7294E+00  0.7281E+00  0.2242E+02  0.2242E+02
     58.221  0.6427E+00  0.6426E+00  0.2267E+02  0.2268E+02
     58.641  0.6785E+00  0.6795E+00  0.2293E+02  0.2293E+02
     59.060  0.9247E+00  0.9257E+00  0.2327E+02  0.2327E+02
     59.479  0.8601E+00  0.8586E+00  0.2364E+02  0.2364E+02
     59.899  0.6638E+00  0.6763E+00  0.2393E+02  0.2393E+02
     60.318  0.4744E+00  0.4746E+00  0.2414E+02  0.2414E+02
     60.737  0.5372E+00  0.5376E+00  0.2435E+02  0.2435E+02
     61.157  0.6227E+00  0.6226E+00  0.2460E+02  0.2460E+02
     61.576  0.7042E+00  0.7046E+00  0.2487E+02  0.2488E+02
     61.995  0.5712E+00  0.5704E+00  0.2516E+02  0.2516E+02
     62.415  0.4769E+00  0.4767E+00  0.2537E+02  0.2537E+02
     62.834  0.5501E+00  0.5499E+00  0.2558E+02  0.2558E+02
     63.253  0.5536E+00  0.5531E+00  0.2581E+02  0.2581E+02
     63.673  0.5252E+00  0.5248E+00  0.2605E+02  0.2605E+02
     64.092  0.4870E+00  0.4871E+00  0.2625E+02  0.2625E+02
     64.511  0.5493E+00  0.5500E+00  0.2647E+02  0.2647E+02
     64.931  0.5748E+00  0.5743E+00  0.2672E+02  0.2672E+02
     65.350  0.4442E+00  0.4440E+00  0.2693E+02  0.2693E+02
     65.769  0.4686E+00  0.4687E+00  0.2712E+02  0.2712E+02
     66.189  0.5039E+00  0.5038E+00  0.2732E+02  0.2732E+02
     66.608  0.4759E+00  0.4757E+00  0.2753E+02  0.2753E+02
     67.027  0.3828E+00  0.3827E+00  0.2770E+02  0.2770E+02
     67.447  0.3896E+00  0.3897E+00  0.2786E+02  0.2787E+02
     67.866  0.3907E+00  0.3908E+00  0.2803E+02  0.2803E+02
     68.285  0.4316E+00  0.4318E+00  0.2820E+02  0.2820E+02
     68.705  0.5805E+00  0.5803E+00  0.2841E+02  0.2841E+02
     69.124  0.5305E+00  0.5301E+00  0.2864E+02  0.2864E+02
     69.543  0.4926E+00  0.4923E+00  0.2885E+02  0.2885E+02
     69.963  0.4738E+00  0.4738E+00  0.2905E+02  0.2905E+02
     70.382  0.5362E+00  0.5360E+00  0.2926E+02  0.2926E+02
     70.801  0.5000E+00  0.5001E+00  0.2947E+02  0.2947E+02
     71.221  0.5233E+00  0.5236E+00  0.2968E+02  0.2968E+02
     71.640  0.5300E+00  0.5301E+00  0.2991E+02  0.2991E+02
     72.059  0.5176E+00  0.5174E+00  0.3012E+02  0.3013E+02
     72.479  0.4675E+00  0.4670E+00  0.3033E+02  0.3033E+02
     72.898  0.4174E+00  0.4172E+00  0.3052E+02  0.3052E+02
     73.317  0.3655E+00  0.3653E+00  0.3069E+02  0.3069E+02
     73.737  0.4267E+00  0.4264E+00  0.3086E+02  0.3087E+02
     74.156  0.3929E+00  0.3930E+00  0.3103E+02  0.3103E+02
     74.575  0.3982E+00  0.3985E+00  0.3119E+02  0.3119E+02
     74.995  0.5229E+00  0.5223E+00  0.3141E+02  0.3141E+02
     75.414  0.4635E+00  0.4637E+00  0.3160E+02  0.3160E+02
     75.833  0.4783E+00  0.4786E+00  0.3180E+02  0.3180E+02
     76.253  0.7280E+00  0.7271E+00  0.3204E+02  0.3204E+02
     76.672  0.5529E+00  0.5534E+00  0.3229E+02  0.3229E+02
     77.091  0.4621E+00  0.4613E+00  0.3251E+02  0.3251E+02
     77.511  0.4359E+00  0.4361E+00  0.3269E+02  0.3269E+02
     77.930  0.6497E+00  0.6512E+00  0.3291E+02  0.3291E+02
     78.349  0.6718E+00  0.6710E+00  0.3319E+02  0.3319E+02
     78.769  0.5544E+00  0.5537E+00  0.3343E+02  0.3343E+02
     79.188  0.5057E+00  0.5036E+00  0.3367E+02  0.3367E+02
     79.607  0.4541E+00  0.4547E+00  0.3386E+02  0.3386E+02
     80.027  0.4876E+00  0.4867E+00  0.3407E+02  0.3407E+02
     80.446  0.5027E+00  0.5032E+00  0.3426E+02  0.3426E+02
     80.865  0.5723E+00  0.5724E+00  0.3448E+02  0.3448E+02
     81.285  0.6206E+00  0.6209E+00  0.3473E+02  0.3473E+02
     81.704  0.6632E+00  0.6623E+00  0.3501E+02  0.3501E+02
     82.123  0.6275E+00  0.6264E+00  0.3529E+02  0.3529E+02
     82.542  0.5464E+00  0.5463E+00  0.3553E+02  0.3553E+02
     82.962  0.5029E+00  0.5030E+00  0.3575E+02  0.3575E+02
     83.381  0.6667E+00  0.6672E+00  0.3598E+02  0.3598E+02
     83.800  0.6537E+00  0.6536E+00  0.3624E+02  0.3625E+02
     84.220  0.5964E+00  0.5961E+00  0.3652E+02  0.3652E+02
     84.639  0.4949E+00  0.4945E+00  0.3675E+02  0.3675E+02
     85.058  0.3781E+00  0.3778E+00  0.3693E+02  0.3693E+02
     85.478  0.3922E+00  0.3924E+00  0.3709E+02  0.3709E+02
     85.897  0.4663E+00  0.4666E+00  0.3727E+02  0.3727E+02
     86.316  0.4786E+00  0.4789E+00  0.3747E+02  0.3747E+02
     86.736  0.4710E+00  0.4712E+00  0.3766E+02  0.3766E+02
     87.155  0.5660E+00  0.5665E+00  0.3787E+02  0.3787E+02
     87.574  0.5721E+00  0.5716E+00  0.3812E+02  0.3812E+02
     87.994  0.5927E+00  0.5923E+00  0.3836E+02  0.3836E+02
     88.413  0.7319E+00  0.7418E+00  0.3863E+02  0.3863E+02
     88.832  0.7382E+00  0.7366E+00  0.3896E+02  0.3896E+02
     89.252  0.5137E+00  0.5138E+00  0.3920E+02  0.3920E+02
     89.671  0.5855E+00  0.5857E+00  0.3944E+02  0.3944E+02
     90.090  0.6726E+00  0.6660E+00  0.3970E+02  0.3970E+02
     90.510  0.5012E+00  0.5006E+00  0.3995E+02  0.3995E+02
     90.929  0.5168E+00  0.5162E+00  0.4015E+02  0.4015E+02
     91.348  0.4572E+00  0.4573E+00  0.4035E+02  0.4035E+02
     91.768  0.5112E+00  0.5114E+00  0.4055E+02  0.4055E+02
     92.187  0.5283E+00  0.5289E+00  0.4076E+02  0.4076E+02
     92.606  0.6216E+00  0.6216E+00  0.4101E+02  0.4101E+02
     93.026  0.5352E+00  0.5346E+00  0.4126E+02  0.4126E+02
     93.445  0.4019E+00  0.4016E+00  0.4145E+02  0.4145E+02
     93.864  0.4244E+00  0.4247E+00  0.4161E+02  0.4161E+02
     94.284  0.6549E+00  0.6564E+00  0.4183E+02  0.4183E+02
     94.703  0.6715E+00  0.6712E+00  0.4212E+02  0.4212E+02
     95.122  0.6006E+00  0.6004E+00  0.4239E+02  0.4239E+02
     95.542  0.6192E+00  0.6193E+00  0.4264E+02  0.4264E+02
     95.961  0.7309E+00  0.7304E+00  0.4292E+02  0.4292E+02
     96.380  0.7190E+00  0.7193E+00  0.4322E+02  0.4322E+02
     96.800  0.6171E+00  0.6170E+00  0.4350E+02  0.4350E+02
     97.219  0.6016E+00  0.6024E+00  0.4375E+02  0.4375E+02
     97.638  0.5908E+00  0.5906E+00  0.4401E+02  0.4401E+02
     98.058  0.4355E+00  0.4353E+00  0.4422E+02  0.4423E+02
     98.477  0.4294E+00  0.4293E+00  0.4441E+02  0.4441E+02
     98.896  0.4219E+00  0.4459E+00  0.4458E+02  0.4458E+02
     99.316  0.5732E+00  0.5320E+00  0.4480E+02  0.4480E+02
     99.735  0.6351E+00  0.6356E+00  0.4504E+02  0.4504E+02
    100.154  0.6527E+00  0.6526E+00  0.4531E+02  0.4532E+02
    100.574  0.6597E+00  0.6596E+00  0.4559E+02  0.4559E+02
    100.993  0.5665E+00  0.5655E+00  0.4586E+02  0.4586E+02
    101.412  0.5114E+00  0.5114E+00  0.4608E+02  0.4608E+02
    101.832  0.5103E+00  0.5104E+00  0.4629E+02  0.4629E+02
    102.251  0.4788E+00  0.4786E+00  0.4650E+02  0.4651E+02
    102.670  0.5357E+00  0.5359E+00  0.4672E+02  0.4672E+02
    103.090  0.4920E+00  0.4926E+00  0.4693E+02  0.4693E+02
    103.509  0.4503E+00  0.4498E+00  0.4714E+02  0.4714E+02
    103.928  0.3720E+00  0.3720E+00  0.4730E+02  0.4730E+02
    104.348  0.4237E+00  0.4241E+00  0.4747E+02  0.4747E+02
    104.767  0.3804E+00  0.3802E+00  0.4764E+02  0.4764E+02
    105.186  0.3035E+00  0.3084E+00  0.4779E+02  0.4779E+02
    105.606  0.2055E+00  0.2050E+00  0.4789E+02  0.4789E+02
    106.025  0.6785E-01  0.6722E-01  0.4795E+02  0.4795E+02
    106.444  0.3589E-01  0.3583E-01  0.4797E+02  0.4797E+02
    106.864  0.1443E-01  0.1441E-01  0.4798E+02  0.4798E+02
    107.283  0.1130E-01  0.1129E-01  0.4798E+02  0.4798E+02
    107.702  0.8716E-02  0.8702E-02  0.4799E+02  0.4799E+02
    108.122  0.6677E-02  0.6665E-02  0.4799E+02  0.4799E+02
    108.541  0.5182E-02  0.5173E-02  0.4799E+02  0.4799E+02
    108.960  0.4164E-02  0.4158E-02  0.4800E+02  0.4800E+02
    109.380  0.3260E-02  0.3253E-02  0.4800E+02  0.4800E+02
    109.799  0.2415E-02  0.2408E-02  0.4800E+02  0.4800E+02
    110.218  0.1628E-02  0.1621E-02  0.4800E+02  0.4800E+02
    110.637  0.8991E-03  0.8924E-03  0.4800E+02  0.4800E+02
    111.057  0.2291E-03  0.2229E-03  0.4800E+02  0.4800E+02
    111.476  0.0000E+00  0.0000E+00  0.4800E+02  0.4800E+02
    111.895  0.0000E+00  0.0000E+00  0.4800E+02  0.4800E+02
    112.315  0.0000E+00  0.0000E+00  0.4800E+02  0.4800E+02
    112.734  0.0000E+00  0.0000E+00  0.4800E+02  0.4800E+02
    113.153  0.0000E+00  0.0000E+00  0.4800E+02  0.4800E+02
    113.573  0.0000E+00  0.0000E+00  0.4800E+02  0.4800E+02
    113.992  0.0000E+00  0.0000E+00  0.4800E+02  0.4800E+02
    114.411  0.0000E+00  0.0000E+00  0.4800E+02  0.4800E+02
    114.831  0.0000E+00  0.0000E+00  0.4800E+02  0.4800E+02
    115.250  0.0000E+00  0.0000E+00  0.4800E+02  0.4800E+02
    115.669  0.0000E+00  0.0000E+00  0.4800E+02  0.4800E+02
    116.089  0.0000E+00  0.0000E+00  0.4800E+02  0.4800E+02
    116.508  0.0000E+00  0.0000E+00  0.4800E+02  0.4800E+02
    116.927  0.0000E+00  0.0000E+00  0.4800E+02  0.4800E+02
    116.92742359     -8.87112841  301      8.00246158      1.00000000
     -8.871  0.0000E+00  0.0000E+00  0.0000E+00  0.0000E+00  0.0000E+00  0.0000E+00  0.0000E+00  0.0000E+00  0.0000E+00  0.0000E+00  0.0000E+00  0.0000E+00  0.0000E+00  0.0000E+00  0.0000E+00  0.0000E+00  0.0000E+00  0.0000E+00
     -8.452  0.0000E+00  0.0000E+00  0.0000E+00  0.0000E+00  0.0000E+00  0.0000E+00  0.0000E+00  0.0000E+00  0.0000E+00  0.0000E+00  0.0000E+00  0.0000E+00  0.0000E+00  0.0000E+00  0.0000E+00  0.0000E+00  0.0000E+00  0.0000E+00
     -8.032  0.0000E+00  0.0000E+00  0.0000E+00  0.0000E+00  0.0000E+00  0.0000E+00  0.0000E+00  0.0000E+00  0.0000E+00  0.0000E+00  0.0000E+00  0.0000E+00  0.0000E+00  0.0000E+00  0.0000E+00  0.0000E+00  0.0000E+00  0.0000E+00
     -7.613  0.0000E+00  0.0000E+00  0.0000E+00  0.0000E+00  0.0000E+00  0.0000E+00  0.0000E+00  0.0000E+00  0.0000E+00  0.0000E+00  0.0000E+00  0.0000E+00  0.0000E+00  0.0000E+00  0.0000E+00  0.0000E+00  0.0000E+00  0.0000E+00
     -7.194  0.0000E+00  0.0000E+00  0.0000E+00  0.0000E+00  0.0000E+00  0.0000E+00  0.0000E+00  0.0000E+00  0.0000E+00  0.0000E+00  0.0000E+00  0.0000E+00  0.0000E+00  0.0000E+00  0.0000E+00  0.0000E+00  0.0000E+00  0.0000E+00
     -6.774  0.0000E+00  0.0000E+00  0.0000E+00  0.0000E+00  0.0000E+00  0.0000E+00  0.0000E+00  0.0000E+00  0.0000E+00  0.0000E+00  0.0000E+00  0.0000E+00  0.0000E+00  0.0000E+00  0.0000E+00  0.0000E+00  0.0000E+00  0.0000E+00
     -6.355  0.0000E+00  0.0000E+00  0.0000E+00  0.0000E+00  0.0000E+00  0.0000E+00  0.0000E+00  0.0000E+00  0.0000E+00  0.0000E+00  0.0000E+00  0.0000E+00  0.0000E+00  0.0000E+00  0.0000E+00  0.0000E+00  0.0000E+00  0.0000E+00
     -5.936  0.0000E+00  0.0000E+00  0.0000E+00  0.0000E+00  0.0000E+00  0.0000E+00  0.0000E+00  0.0000E+00  0.0000E+00  0.0000E+00  0.0000E+00  0.0000E+00  0.0000E+00  0.0000E+00  0.0000E+00  0.0000E+00  0.0000E+00  0.0000E+00
     -5.517  0.0000E+00  0.0000E+00  0.0000E+00  0.0000E+00  0.0000E+00  0.0000E+00  0.0000E+00  0.0000E+00  0.0000E+00  0.0000E+00  0.0000E+00  0.0000E+00  0.0000E+00  0.0000E+00  0.0000E+00  0.0000E+00  0.0000E+00  0.0000E+00
     -5.097  0.0000E+00  0.0000E+00  0.0000E+00  0.0000E+00  0.0000E+00  0.0000E+00  0.0000E+00  0.0000E+00  0.0000E+00  0.0000E+00  0.0000E+00  0.0000E+00  0.0000E+00  0.0000E+00  0.0000E+00  0.0000E+00  0.0000E+00  0.0000E+00
     -4.678  0.0000E+00  0.0000E+00  0.0000E+00  0.0000E+00  0.0000E+00  0.0000E+00  0.0000E+00  0.0000E+00  0.0000E+00  0.0000E+00  0.0000E+00  0.0000E+00  0.0000E+00  0.0000E+00  0.0000E+00  0.0000E+00  0.0000E+00  0.0000E+00
     -4.259  0.0000E+00  0.0000E+00  0.0000E+00  0.0000E+00  0.0000E+00  0.0000E+00  0.0000E+00  0.0000E+00  0.0000E+00  0.0000E+00  0.0000E+00  0.0000E+00  0.0000E+00  0.0000E+00  0.0000E+00  0.0000E+00  0.0000E+00  0.0000E+00
     -3.839  0.0000E+00  0.0000E+00  0.0000E+00  0.0000E+00  0.0000E+00  0.0000E+00  0.0000E+00  0.0000E+00  0.0000E+00  0.0000E+00  0.0000E+00  0.0000E+00  0.0000E+00  0.0000E+00  0.0000E+00  0.0000E+00  0.0000E+00  0.0000E+00
     -3.420  0.0000E+00  0.0000E+00  0.0000E+00  0.0000E+00  0.0000E+00  0.0000E+00  0.0000E+00  0.0000E+00  0.0000E+00  0.0000E+00  0.0000E+00  0.0000E+00  0.0000E+00  0.0000E+00  0.0000E+00  0.0000E+00  0.0000E+00  0.0000E+00
     -3.001  0.3634E-02  0.3725E-02  0.1722E-04  0.1765E-04  0.1722E-04  0.1765E-04  0.1722E-04  0.1765E-04  0.0000E+00  0.0000E+00  0.0000E+00  0.0000E+00  0.0000E+00  0.0000E+00  0.0000E+00  0.0000E+00  0.0000E+00  0.0000E+00
     -2.581  0.1067E-01  0.1070E-01  0.1618E-03  0.1626E-03  0.1618E-03  0.1626E-03  0.1618E-03  0.1626E-03  0.0000E+00  0.0000E+00  0.0000E+00  0.0000E+00  0.0000E+00  0.0000E+00  0.0000E+00  0.0000E+00  0.0000E+00  0.0000E+00
     -2.162  0.1358E-01  0.1361E-01  0.3842E-03  0.3854E-03  0.3842E-03  0.3854E-03  0.3842E-03  0.3854E-03  0.0000E+00  0.0000E+00  0.0000E+00  0.0000E+00  0.0000E+00  0.0000E+00  0.0000E+00  0.0000E+00  0.0000E+00  0.0000E+00
     -1.743  0.1684E-01  0.1686E-01  0.6259E-03  0.6272E-03  0.6259E-03  0.6272E-03  0.6259E-03  0.6272E-03  0.0000E+00  0.0000E+00  0.0000E+00  0.0000E+00  0.0000E+00  0.0000E+00  0.0000E+00  0.0000E+00  0.0000E+00  0.0000E+00
     -1.323  0.1790E-01  0.1791E-01  0.9501E-03  0.9519E-03  0.9501E-03  0.9519E-03  0.9501E-03  0.9519E-03  0.0000E+00  0.0000E+00  0.0000E+00  0.0000E+00  0.0000E+00  0.0000E+00  0.0000E+00  0.0000E+00  0.0000E+00  0.0000E+00
     -0.904  0.1965E-01  0.1967E-01  0.1269E-02  0.1271E-02  0.1269E-02  0.1271E-02  0.1269E-02  0.1271E-02  0.0000E+00  0.0000E+00  0.0000E+00  0.0000E+00  0.0000E+00  0.0000E+00  0.0000E+00  0.0000E+00  0.0000E+00  0.0000E+00
     -0.485  0.2062E-01  0.2063E-01  0.1646E-02  0.1648E-02  0.1646E-02  0.1648E-02  0.1646E-02  0.1648E-02  0.0000E+00  0.0000E+00  0.0000E+00  0.0000E+00  0.0000E+00  0.0000E+00  0.0000E+00  0.0000E+00  0.0000E+00  0.0000E+00
     -0.065  0.2133E-01  0.2135E-01  0.2044E-02  0.2046E-02  0.2044E-02  0.2046E-02  0.2044E-02  0.2046E-02  0.0000E+00  0.0000E+00  0.0000E+00  0.0000E+00  0.0000E+00  0.0000E+00  0.0000E+00  0.0000E+00  0.0000E+00  0.0000E+00
      0.354  0.2222E-01  0.2224E-01  0.2447E-02  0.2449E-02  0.2447E-02  0.2449E-02  0.2447E-02  0.2449E-02  0.0000E+00  0.0000E+00  0.0000E+00  0.0000E+00  0.0000E+00  0.0000E+00  0.0000E+00  0.0000E+00  0.0000E+00  0.0000E+00
      0.773  0.2273E-01  0.2275E-01  0.2889E-02  0.2893E-02  0.2889E-02  0.2893E-02  0.2889E-02  0.2893E-02  0.0000E+00  0.0000E+00  0.0000E+00  0.0000E+00  0.0000E+00  0.0000E+00  0.0000E+00  0.0000E+00  0.0000E+00  0.0000E+00
      1.193  0.2267E-01  0.2269E-01  0.3382E-02  0.3385E-02  0.3382E-02  0.3385E-02  0.3382E-02  0.3385E-02  0.0000E+00  0.0000E+00  0.0000E+00  0.0000E+00  0.0000E+00  0.0000E+00  0.0000E+00  0.0000E+00  0.0000E+00  0.0000E+00
      1.612  0.2280E-01  0.2282E-01  0.3880E-02  0.3884E-02  0.3880E-02  0.3884E-02  0.3880E-02  0.3884E-02  0.0000E+00  0.0000E+00  0.0000E+00  0.0000E+00  0.0000E+00  0.0000E+00  0.0000E+00  0.0000E+00  0.0000E+00  0.0000E+00
      2.031  0.2294E-01  0.2297E-01  0.4424E-02  0.4427E-02  0.4424E-02  0.4427E-02  0.4424E-02  0.4427E-02  0.0000E+00  0.0000E+00  0.0000E+00  0.0000E+00  0.0000E+00  0.0000E+00  0.0000E+00  0.0000E+00  0.0000E+00  0.0000E+00
      2.451  0.2325E-01  0.2327E-01  0.5236E-02  0.5241E-02  0.5236E-02  0.5241E-02  0.5236E-02  0.5241E-02  0.0000E+00  0.0000E+00  0.0000E+00  0.0000E+00  0.0000E+00  0.0000E+00  0.0000E+00  0.0000E+00  0.0000E+00  0.0000E+00
      2.870  0.2342E-01  0.2344E-01  0.6194E-02  0.6198E-02  0.6194E-02  0.6198E-02  0.6194E-02  0.6198E-02  0.0000E+00  0.0000E+00  0.0000E+00  0.0000E+00  0.0000E+00  0.0000E+00  0.0000E+00  0.0000E+00  0.0000E+00  0.0000E+00
      3.289  0.2264E-01  0.2265E-01  0.6964E-02  0.6962E-02  0.6964E-02  0.6962E-02  0.6964E-02  0.6962E-02  0.0000E+00  0.0000E+00  0.0000E+00  0.0000E+00  0.0000E+00  0.0000E+00  0.0000E+00  0.0000E+00  0.0000E+00  0.0000E+00
      3.709  0.1811E-01  0.1812E-01  0.6362E-02  0.6363E-02  0.6362E-02  0.6363E-02  0.6362E-02  0.6363E-02  0.0000E+00  0.0000E+00  0.0000E+00  0.0000E+00  0.0000E+00  0.0000E+00  0.0000E+00  0.0000E+00  0.0000E+00  0.0000E+00
      4.128  0.1757E-01  0.1759E-01  0.7266E-02  0.7268E-02  0.7266E-02  0.7268E-02  0.7266E-02  0.7268E-02  0.0000E+00  0.0000E+00  0.0000E+00  0.0000E+00  0.0000E+00  0.0000E+00  0.0000E+00  0.0000E+00  0.0000E+00  0.0000E+00
      4.547  0.1984E-01  0.1984E-01  0.9181E-02  0.9178E-02  0.9181E-02  0.9178E-02  0.9181E-02  0.9178E-02  0.0000E+00  0.0000E+00  0.0000E+00  0.0000E+00  0.0000E+00  0.0000E+00  0.0000E+00  0.0000E+00  0.0000E+00  0.0000E+00
      4.967  0.1933E-01  0.1935E-01  0.9263E-02  0.9268E-02  0.9263E-02  0.9268E-02  0.9263E-02  0.9268E-02  0.0000E+00  0.0000E+00  0.0000E+00  0.0000E+00  0.0000E+00  0.0000E+00  0.0000E+00  0.0000E+00  0.0000E+00  0.0000E+00
      5.386  0.1875E-01  0.1876E-01  0.8894E-02  0.8899E-02  0.8894E-02  0.8899E-02  0.8894E-02  0.8899E-02  0.0000E+00  0.0000E+00  0.0000E+00  0.0000E+00  0.0000E+00  0.0000E+00  0.0000E+00  0.0000E+00  0.0000E+00  0.0000E+00
      5.805  0.1573E-01  0.1573E-01  0.7294E-02  0.7290E-02  0.7294E-02  0.7290E-02  0.7294E-02  0.7290E-02  0.0000E+00  0.0000E+00  0.0000E+00  0.0000E+00  0.0000E+00  0.0000E+00  0.0000E+00  0.0000E+00  0.0000E+00  0.0000E+00
      6.225  0.1563E-01  0.1564E-01  0.6773E-02  0.6781E-02  0.6773E-02  0.6781E-02  0.6773E-02  0.6781E-02  0.0000E+00  0.0000E+00  0.0000E+00  0.0000E+00  0.0000E+00  0.0000E+00  0.0000E+00  0.0000E+00  0.0000E+00  0.0000E+00
      6.644  0.1941E-01  0.1944E-01  0.1080E-01  0.1082E-01  0.1080E-01  0.1082E-01  0.1080E-01  0.1082E-01  0.0000E+00  0.0000E+00  0.0000E+00  0.0000E+00  0.0000E+00  0.0000E+00  0.0000E+00  0.0000E+00  0.0000E+00  0.0000E+00
      7.063  0.1796E-01  0.1799E-01  0.1066E-01  0.1066E-01  0.1066E-01  0.1066E-01  0.1066E-01  0.1066E-01  0.0000E+00  0.0000E+00  0.0000E+00  0.0000E+00  0.0000E+00  0.0000E+00  0.0000E+00  0.0000E+00  0.0000E+00  0.0000E+00
      7.483  0.1743E-01  0.1743E-01  0.9263E-02  0.9267E-02  0.9263E-02  0.9267E-02  0.9263E-02  0.9267E-02  0.0000E+00  0.0000E+00  0.0000E+00  0.0000E+00  0.0000E+00  0.0000E+00  0.0000E+00  0.0000E+00  0.0000E+00  0.0000E+00
      7.902  0.1390E-01  0.1391E-01  0.8624E-02  0.8624E-02  0.8624E-02  0.8624E-02  0.8624E-02  0.8624E-02  0.0000E+00  0.0000E+00  0.0000E+00  0.0000E+00  0.0000E+00  0.0000E+00  0.0000E+00  0.0000E+00  0.0000E+00  0.0000E+00
      8.321  0.2003E-01  0.2008E-01  0.9179E-02  0.9196E-02  0.9179E-02  0.9196E-02  0.9179E-02  0.9196E-02  0.0000E+00  0.0000E+00  0.0000E+00  0.0000E+00  0.0000E+00  0.0000E+00  0.0000E+00  0.0000E+00  0.0000E+00  0.0000E+00
      8.741  0.2574E-01  0.2578E-01  0.1144E-01  0.1145E-01  0.1144E-01  0.1145E-01  0.1144E-01  0.1145E-01  0.0000E+00  0.0000E+00  0.0000E+00  0.0000E+00  0.0000E+00  0.0000E+00  0.0000E+00  0.0000E+00  0.0000E+00  0.0000E+00
      9.160  0.1906E-01  0.1907E-01  0.9760E-02  0.9767E-02  0.9760E-02  0.9767E-02  0.9760E-02  0.9767E-02  0.0000E+00  0.0000E+00  0.0000E+00  0.0000E+00  0.0000E+00  0.0000E+00  0.0000E+00  0.0000E+00  0.0000E+00  0.0000E+00
      9.579  0.1904E-01  0.1906E-01  0.1020E-01  0.1021E-01  0.1020E-01  0.1021E-01  0.1020E-01  0.1021E-01  0.0000E+00  0.0000E+00  0.0000E+00  0.0000E+00  0.0000E+00  0.0000E+00  0.0000E+00  0.0000E+00  0.0000E+00  0.0000E+00
      9.999  0.1762E-01  0.1763E-01  0.9735E-02  0.9743E-02  0.9735E-02  0.9743E-02  0.9735E-02  0.9743E-02  0.0000E+00  0.0000E+00  0.0000E+00  0.0000E+00  0.0000E+00  0.0000E+00  0.0000E+00  0.0000E+00  0.0000E+00  0.0000E+00
     10.418  0.2553E-01  0.2555E-01  0.1119E-01  0.1120E-01  0.1119E-01  0.1120E-01  0.1119E-01  0.1120E-01  0.0000E+00  0.0000E+00  0.0000E+00  0.0000E+00  0.0000E+00  0.0000E+00  0.0000E+00  0.0000E+00  0.0000E+00  0.0000E+00
     10.837  0.2316E-01  0.2318E-01  0.1213E-01  0.1214E-01  0.1213E-01  0.1214E-01  0.1213E-01  0.1214E-01  0.0000E+00  0.0000E+00  0.0000E+00  0.0000E+00  0.0000E+00  0.0000E+00  0.0000E+00  0.0000E+00  0.0000E+00  0.0000E+00
     11.257  0.2284E-01  0.2285E-01  0.1200E-01  0.1201E-01  0.1200E-01  0.1201E-01  0.1200E-01  0.1201E-01  0.0000E+00  0.0000E+00  0.0000E+00  0.0000E+00  0.0000E+00  0.0000E+00  0.0000E+00  0.0000E+00  0.0000E+00  0.0000E+00
     11.676  0.2215E-01  0.2216E-01  0.1201E-01  0.1202E-01  0.1201E-01  0.1202E-01  0.1201E-01  0.1202E-01  0.0000E+00  0.0000E+00  0.0000E+00  0.0000E+00  0.0000E+00  0.0000E+00  0.0000E+00  0.0000E+00  0.0000E+00  0.0000E+00
     12.095  0.2230E-01  0.2231E-01  0.1305E-01  0.1307E-01  0.1305E-01  0.1307E-01  0.1305E-01  0.1307E-01  0.0000E+00  0.0000E+00  0.0000E+00  0.0000E+00  0.0000E+00  0.0000E+00  0.0000E+00  0.0000E+00  0.0000E+00  0.0000E+00