  57  57   0   0
  0.1345814E+02  0.7794895E-09  0.7794895E-09  0.1262523E-08  0.0000000E+00
   1.0000000000000000E-004
  CAR 
 Al                                      
     13.15602249    -26.07224087  301      8.65822119      1.00000000
    -26.072  0.0000E+00  0.0000E+00  0.0000E+00  0.0000E+00
    -25.941  0.0000E+00  0.0000E+00  0.0000E+00  0.0000E+00
    -25.811  0.0000E+00  0.0000E+00  0.0000E+00  0.0000E+00
    -25.680  0.0000E+00  0.0000E+00  0.0000E+00  0.0000E+00
    -25.549  0.0000E+00  0.0000E+00  0.0000E+00  0.0000E+00
    -25.418  0.0000E+00  0.0000E+00  0.0000E+00  0.0000E+00
    -25.288  0.0000E+00  0.0000E+00  0.0000E+00  0.0000E+00
    -25.157  0.1306E-15  0.1192E-15  0.1708E-16  0.1558E-16
    -25.026  0.1357E-12  0.1246E-12  0.1777E-13  0.1631E-13
    -24.895  0.6174E-10  0.5731E-10  0.8091E-11  0.7510E-11
    -24.765  0.1246E-07  0.1170E-07  0.1638E-08  0.1537E-08
    -24.634  0.1127E-05  0.1069E-05  0.1491E-06  0.1414E-06
    -24.503  0.4622E-04  0.4429E-04  0.6193E-05  0.5933E-05
    -24.372  0.8728E-03  0.8445E-03  0.1203E-03  0.1164E-03
    -24.242  0.7779E-02  0.7595E-02  0.1137E-02  0.1110E-02
    -24.111  0.3416E-01  0.3364E-01  0.5605E-02  0.5508E-02
    -23.980  0.8046E-01  0.7982E-01  0.1613E-01  0.1594E-01
    -23.849  0.1180E+00  0.1177E+00  0.3155E-01  0.3134E-01
    -23.719  0.1266E+00  0.1267E+00  0.4810E-01  0.4790E-01
    -23.588  0.1070E+00  0.1072E+00  0.6209E-01  0.6192E-01
    -23.457  0.7509E-01  0.7537E-01  0.7191E-01  0.7177E-01
    -23.326  0.4262E-01  0.4311E-01  0.7748E-01  0.7741E-01
    -23.196  0.1581E-01  0.1621E-01  0.7955E-01  0.7953E-01
    -23.065  0.3128E-02  0.3259E-02  0.7996E-01  0.7996E-01
    -22.934  0.2971E-03  0.3152E-03  0.8000E-01  0.8000E-01
    -22.803  0.1291E-04  0.1395E-04  0.8000E-01  0.8000E-01
    -22.672  0.2503E-06  0.2758E-06  0.8000E-01  0.8000E-01
    -22.542  0.2135E-08  0.2401E-08  0.8000E-01  0.8000E-01
    -22.411  0.7948E-11  0.9123E-11  0.8000E-01  0.8000E-01
    -22.280  0.1283E-13  0.1504E-13  0.8000E-01  0.8000E-01
    -22.149  0.8667E-17  0.1247E-16  0.8000E-01  0.8000E-01
    -22.019  0.0000E+00  0.0000E+00  0.8000E-01  0.8000E-01
    -21.888  0.0000E+00  0.0000E+00  0.8000E-01  0.8000E-01
    -21.757  0.0000E+00  0.0000E+00  0.8000E-01  0.8000E-01
    -21.626  0.0000E+00  0.0000E+00  0.8000E-01  0.8000E-01
    -21.496  0.0000E+00  0.0000E+00  0.8000E-01  0.8000E-01
    -21.365  0.0000E+00  0.0000E+00  0.8000E-01  0.8000E-01
    -21.234  0.0000E+00  0.0000E+00  0.8000E-01  0.8000E-01
    -21.103  0.0000E+00  0.0000E+00  0.8000E-01  0.8000E-01
    -20.973  0.0000E+00  0.0000E+00  0.8000E-01  0.8000E-01
    -20.842  0.0000E+00  0.0000E+00  0.8000E-01  0.8000E-01
    -20.711  0.0000E+00  0.0000E+00  0.8000E-01  0.8000E-01
    -20.580  0.0000E+00  0.0000E+00  0.8000E-01  0.8000E-01
    -20.450  0.0000E+00  0.0000E+00  0.8000E-01  0.8000E-01
    -20.319  0.0000E+00  0.0000E+00  0.8000E-01  0.8000E-01
    -20.188  0.0000E+00  0.0000E+00  0.8000E-01  0.8000E-01
    -20.057  0.0000E+00  0.0000E+00  0.8000E-01  0.8000E-01
    -19.926  0.0000E+00  0.0000E+00  0.8000E-01  0.8000E-01
    -19.796  0.0000E+00  0.0000E+00  0.8000E-01  0.8000E-01
    -19.665  0.0000E+00  0.0000E+00  0.8000E-01  0.8000E-01
    -19.534  0.0000E+00  0.0000E+00  0.8000E-01  0.8000E-01
    -19.403  0.0000E+00  0.0000E+00  0.8000E-01  0.8000E-01
    -19.273  0.0000E+00  0.0000E+00  0.8000E-01  0.8000E-01
    -19.142  0.0000E+00  0.0000E+00  0.8000E-01  0.8000E-01
    -19.011  0.0000E+00  0.0000E+00  0.8000E-01  0.8000E-01
    -18.880  0.0000E+00  0.0000E+00  0.8000E-01  0.8000E-01
    -18.750  0.0000E+00  0.0000E+00  0.8000E-01  0.8000E-01
    -18.619  0.0000E+00  0.0000E+00  0.8000E-01  0.8000E-01
    -18.488  0.0000E+00  0.0000E+00  0.8000E-01  0.8000E-01
    -18.357  0.0000E+00  0.0000E+00  0.8000E-01  0.8000E-01
    -18.227  0.0000E+00  0.0000E+00  0.8000E-01  0.8000E-01
    -18.096  0.0000E+00  0.0000E+00  0.8000E-01  0.8000E-01
    -17.965  0.0000E+00  0.0000E+00  0.8000E-01  0.8000E-01
    -17.834  0.0000E+00  0.0000E+00  0.8000E-01  0.8000E-01
    -17.704  0.0000E+00  0.0000E+00  0.8000E-01  0.8000E-01
    -17.573  0.0000E+00  0.0000E+00  0.8000E-01  0.8000E-01
    -17.442  0.0000E+00  0.0000E+00  0.8000E-01  0.8000E-01
    -17.311  0.0000E+00  0.0000E+00  0.8000E-01  0.8000E-01
    -17.181  0.0000E+00  0.0000E+00  0.8000E-01  0.8000E-01
    -17.050  0.0000E+00  0.0000E+00  0.8000E-01  0.8000E-01
    -16.919  0.0000E+00  0.0000E+00  0.8000E-01  0.8000E-01
    -16.788  0.6422E-15  0.2335E-16  0.8000E-01  0.8000E-01
    -16.657  0.5264E-12  0.2817E-13  0.8000E-01  0.8000E-01
    -16.527  0.1865E-09  0.1458E-10  0.8000E-01  0.8000E-01
    -16.396  0.2870E-07  0.3268E-08  0.8000E-01  0.8000E-01
    -16.265  0.1926E-05  0.3188E-06  0.8000E-01  0.8000E-01
    -16.134  0.5675E-04  0.1362E-04  0.8001E-01  0.8000E-01
    -16.004  0.7396E-03  0.2563E-03  0.8010E-01  0.8004E-01
    -15.873  0.4295E-02  0.2143E-02  0.8067E-01  0.8032E-01
    -15.742  0.1119E-01  0.8015E-02  0.8213E-01  0.8136E-01
    -15.611  0.1315E-01  0.1349E-01  0.8385E-01  0.8313E-01
    -15.481  0.6963E-02  0.1024E-01  0.8476E-01  0.8447E-01
    -15.350  0.1658E-02  0.3503E-02  0.8498E-01  0.8492E-01
    -15.219  0.1765E-03  0.5370E-03  0.8500E-01  0.8500E-01
    -15.088  0.8338E-05  0.3666E-04  0.8500E-01  0.8500E-01
    -14.958  0.1734E-06  0.1105E-05  0.8500E-01  0.8500E-01
    -14.827  0.1577E-08  0.1462E-07  0.8500E-01  0.8500E-01
    -14.696  0.6237E-11  0.8428E-10  0.8500E-01  0.8500E-01
    -14.565  0.1068E-13  0.2108E-12  0.8500E-01  0.8500E-01
    -14.435  0.8490E-17  0.2286E-15  0.8500E-01  0.8500E-01
    -14.304  0.0000E+00  0.0000E+00  0.8500E-01  0.8500E-01
    -14.173  0.0000E+00  0.0000E+00  0.8500E-01  0.8500E-01
    -14.042  0.0000E+00  0.0000E+00  0.8500E-01  0.8500E-01
    -13.911  0.0000E+00  0.0000E+00  0.8500E-01  0.8500E-01
    -13.781  0.0000E+00  0.0000E+00  0.8500E-01  0.8500E-01
    -13.650  0.0000E+00  0.0000E+00  0.8500E-01  0.8500E-01
    -13.519  0.0000E+00  0.0000E+00  0.8500E-01  0.8500E-01
    -13.388  0.0000E+00  0.0000E+00  0.8500E-01  0.8500E-01
    -13.258  0.0000E+00  0.0000E+00  0.8500E-01  0.8500E-01
    -13.127  0.0000E+00  0.0000E+00  0.8500E-01  0.8500E-01
    -12.996  0.8844E-19  0.0000E+00  0.8500E-01  0.8500E-01
    -12.865  0.3291E-15  0.8844E-19  0.8500E-01  0.8500E-01
    -12.735  0.2561E-12  0.4542E-15  0.8500E-01  0.8500E-01
    -12.604  0.8843E-10  0.3515E-12  0.8500E-01  0.8500E-01
    -12.473  0.1363E-07  0.1201E-09  0.8500E-01  0.8500E-01
    -12.342  0.9455E-06  0.1820E-07  0.8500E-01  0.8500E-01
    -12.212  0.2982E-04  0.1234E-05  0.8500E-01  0.8500E-01
    -12.081  0.4338E-03  0.3769E-04  0.8506E-01  0.8501E-01
    -11.950  0.2987E-02  0.5251E-03  0.8545E-01  0.8507E-01
    -11.819  0.1043E-01  0.3406E-02  0.8682E-01  0.8552E-01
    -11.689  0.2217E-01  0.1095E-01  0.8971E-01  0.8695E-01
    -11.558  0.3733E-01  0.2123E-01  0.9460E-01  0.8973E-01
    -11.427  0.5228E-01  0.3493E-01  0.1014E+00  0.9429E-01
    -11.296  0.5675E-01  0.5118E-01  0.1089E+00  0.1010E+00
    -11.166  0.5363E-01  0.5795E-01  0.1159E+00  0.1086E+00
    -11.035  0.5444E-01  0.5590E-01  0.1230E+00  0.1159E+00
    -10.904  0.6271E-01  0.5651E-01  0.1312E+00  0.1233E+00
    -10.773  0.7082E-01  0.6289E-01  0.1404E+00  0.1315E+00
    -10.642  0.7057E-01  0.6810E-01  0.1497E+00  0.1404E+00
    -10.512  0.6369E-01  0.6735E-01  0.1580E+00  0.1492E+00
    -10.381  0.6654E-01  0.6510E-01  0.1667E+00  0.1577E+00
    -10.250  0.8912E-01  0.7387E-01  0.1784E+00  0.1674E+00
    -10.119  0.1127E+00  0.9231E-01  0.1931E+00  0.1794E+00
     -9.989  0.1167E+00  0.1033E+00  0.2084E+00  0.1929E+00
     -9.858  0.1015E+00  0.1048E+00  0.2216E+00  0.2067E+00
     -9.727  0.7385E-01  0.9876E-01  0.2313E+00  0.2196E+00
     -9.596  0.4686E-01  0.7927E-01  0.2374E+00  0.2299E+00
     -9.466  0.3015E-01  0.5401E-01  0.2413E+00  0.2370E+00
     -9.335  0.1834E-01  0.3412E-01  0.2437E+00  0.2415E+00
     -9.204  0.7643E-02  0.1867E-01  0.2447E+00  0.2439E+00
     -9.073  0.1737E-02  0.6889E-02  0.2450E+00  0.2448E+00
     -8.943  0.1955E-03  0.1404E-02  0.2450E+00  0.2450E+00
     -8.812  0.1049E-04  0.1435E-03  0.2450E+00  0.2450E+00
     -8.681  0.6489E-06  0.7376E-05  0.2450E+00  0.2450E+00
     -8.550  0.1376E-04  0.1244E-04  0.2450E+00  0.2450E+00
     -8.420  0.2396E-03  0.2182E-03  0.2450E+00  0.2450E+00
     -8.289  0.2122E-02  0.1969E-02  0.2453E+00  0.2453E+00
     -8.158  0.1035E-01  0.9733E-02  0.2467E+00  0.2466E+00
     -8.027  0.3195E-01  0.3026E-01  0.2508E+00  0.2505E+00
     -7.896  0.7175E-01  0.6840E-01  0.2602E+00  0.2595E+00
     -7.766  0.1226E+00  0.1180E+00  0.2762E+00  0.2749E+00
     -7.635  0.1616E+00  0.1568E+00  0.2974E+00  0.2954E+00
     -7.504  0.1792E+00  0.1741E+00  0.3208E+00  0.3182E+00
     -7.373  0.1810E+00  0.1760E+00  0.3445E+00  0.3412E+00
     -7.243  0.1645E+00  0.1606E+00  0.3660E+00  0.3622E+00
     -7.112  0.1315E+00  0.1301E+00  0.3832E+00  0.3792E+00
     -6.981  0.9739E-01  0.9951E-01  0.3959E+00  0.3922E+00
     -6.850  0.8067E-01  0.8151E-01  0.4065E+00  0.4029E+00
     -6.720  0.9386E-01  0.8731E-01  0.4187E+00  0.4143E+00
     -6.589  0.1238E+00  0.1147E+00  0.4349E+00  0.4293E+00
     -6.458  0.1353E+00  0.1340E+00  0.4526E+00  0.4468E+00
     -6.327  0.1105E+00  0.1200E+00  0.4671E+00  0.4625E+00
     -6.197  0.6552E-01  0.8065E-01  0.4756E+00  0.4730E+00
     -6.066  0.2720E-01  0.3935E-01  0.4792E+00  0.4782E+00
     -5.935  0.1069E-01  0.1348E-01  0.4806E+00  0.4799E+00
     -5.804  0.1166E-01  0.8368E-02  0.4821E+00  0.4810E+00
     -5.674  0.1289E-01  0.1291E-01  0.4838E+00  0.4827E+00
     -5.543  0.7161E-02  0.1165E-01  0.4847E+00  0.4842E+00
     -5.412  0.1862E-02  0.4859E-02  0.4850E+00  0.4849E+00
     -5.281  0.2228E-03  0.9205E-03  0.4850E+00  0.4850E+00
     -5.151  0.1208E-04  0.7861E-04  0.4850E+00  0.4850E+00
     -5.020  0.2926E-06  0.3001E-05  0.4850E+00  0.4850E+00
     -4.889  0.3134E-08  0.5075E-07  0.4850E+00  0.4850E+00
     -4.758  0.1470E-10  0.3776E-09  0.4850E+00  0.4850E+00
     -4.627  0.3003E-13  0.1228E-11  0.4850E+00  0.4850E+00
     -4.497  0.2618E-16  0.1738E-14  0.4850E+00  0.4850E+00
     -4.366  0.0000E+00  0.1769E-18  0.4850E+00  0.4850E+00
     -4.235  0.0000E+00  0.0000E+00  0.4850E+00  0.4850E+00
     -4.104  0.0000E+00  0.0000E+00  0.4850E+00  0.4850E+00
     -3.974  0.0000E+00  0.0000E+00  0.4850E+00  0.4850E+00
     -3.843  0.0000E+00  0.0000E+00  0.4850E+00  0.4850E+00
     -3.712  0.0000E+00  0.0000E+00  0.4850E+00  0.4850E+00
     -3.581  0.0000E+00  0.0000E+00  0.4850E+00  0.4850E+00
     -3.451  0.0000E+00  0.0000E+00  0.4850E+00  0.4850E+00
     -3.320  0.0000E+00  0.0000E+00  0.4850E+00  0.4850E+00
     -3.189  0.0000E+00  0.0000E+00  0.4850E+00  0.4850E+00
     -3.058  0.0000E+00  0.0000E+00  0.4850E+00  0.4850E+00
     -2.928  0.0000E+00  0.0000E+00  0.4850E+00  0.4850E+00
     -2.797  0.0000E+00  0.0000E+00  0.4850E+00  0.4850E+00
     -2.666  0.0000E+00  0.0000E+00  0.4850E+00  0.4850E+00
     -2.535  0.0000E+00  0.0000E+00  0.4850E+00  0.4850E+00
     -2.405  0.0000E+00  0.0000E+00  0.4850E+00  0.4850E+00
     -2.274  0.0000E+00  0.0000E+00  0.4850E+00  0.4850E+00
     -2.143  0.0000E+00  0.0000E+00  0.4850E+00  0.4850E+00
     -2.012  0.0000E+00  0.0000E+00  0.4850E+00  0.4850E+00
     -1.881  0.0000E+00  0.0000E+00  0.4850E+00  0.4850E+00
     -1.751  0.0000E+00  0.0000E+00  0.4850E+00  0.4850E+00
     -1.620  0.0000E+00  0.0000E+00  0.4850E+00  0.4850E+00
     -1.489  0.0000E+00  0.0000E+00  0.4850E+00  0.4850E+00
     -1.358  0.2356E-15  0.0000E+00  0.4850E+00  0.4850E+00
     -1.228  0.2077E-12  0.0000E+00  0.4850E+00  0.4850E+00
     -1.097  0.7904E-10  0.0000E+00  0.4850E+00  0.4850E+00
     -0.966  0.1307E-07  0.1082E-15  0.4850E+00  0.4850E+00
     -0.835  0.9459E-06  0.1030E-12  0.4850E+00  0.4850E+00
     -0.705  0.3025E-04  0.4281E-10  0.4850E+00  0.4850E+00
     -0.574  0.4342E-03  0.7796E-08  0.4851E+00  0.4850E+00
     -0.443  0.2879E-02  0.6260E-06  0.4854E+00  0.4850E+00
     -0.312  0.9401E-02  0.2235E-04  0.4867E+00  0.4850E+00
     -0.182  0.1772E-01  0.3580E-03  0.4890E+00  0.4850E+00
     -0.051  0.2602E-01  0.2603E-02  0.4924E+00  0.4854E+00
      0.080  0.3790E-01  0.8670E-02  0.4973E+00  0.4865E+00
      0.211  0.5259E-01  0.1335E-01  0.5042E+00  0.4883E+00
      0.341  0.5713E-01  0.9543E-02  0.5117E+00  0.4895E+00
      0.472  0.4148E-01  0.3172E-02  0.5171E+00  0.4899E+00
      0.603  0.2057E-01  0.5148E-03  0.5198E+00  0.4900E+00
      0.734  0.1694E-01  0.2814E-03  0.5220E+00  0.4900E+00
      0.864  0.3290E-01  0.1350E-02  0.5263E+00  0.4902E+00
      0.995  0.4874E-01  0.5417E-02  0.5327E+00  0.4909E+00
      1.126  0.4872E-01  0.1613E-01  0.5391E+00  0.4930E+00
      1.257  0.3896E-01  0.3077E-01  0.5442E+00  0.4971E+00
      1.388  0.2851E-01  0.3504E-01  0.5479E+00  0.5016E+00
      1.518  0.3089E-01  0.2758E-01  0.5519E+00  0.5052E+00
      1.649  0.5787E-01  0.2128E-01  0.5595E+00  0.5080E+00
      1.780  0.8960E-01  0.1843E-01  0.5712E+00  0.5104E+00
      1.911  0.1017E+00  0.1831E-01  0.5845E+00  0.5128E+00
      2.041  0.1075E+00  0.2269E-01  0.5986E+00  0.5158E+00
      2.172  0.1272E+00  0.3261E-01  0.6152E+00  0.5201E+00
      2.303  0.1531E+00  0.5162E-01  0.6352E+00  0.5268E+00
      2.434  0.1601E+00  0.7564E-01  0.6562E+00  0.5367E+00
      2.564  0.1494E+00  0.9366E-01  0.6757E+00  0.5489E+00
      2.695  0.1414E+00  0.1079E+00  0.6942E+00  0.5631E+00
      2.826  0.1272E+00  0.1227E+00  0.7108E+00  0.5791E+00
      2.957  0.9227E-01  0.1259E+00  0.7229E+00  0.5956E+00
      3.087  0.5500E-01  0.1139E+00  0.7301E+00  0.6104E+00
      3.218  0.3766E-01  0.1003E+00  0.7350E+00  0.6236E+00
      3.349  0.3583E-01  0.9546E-01  0.7397E+00  0.6360E+00
      3.480  0.3570E-01  0.1025E+00  0.7443E+00  0.6494E+00
      3.610  0.4076E-01  0.1135E+00  0.7497E+00  0.6643E+00
      3.741  0.5530E-01  0.1201E+00  0.7569E+00  0.6800E+00
      3.872  0.7074E-01  0.1191E+00  0.7662E+00  0.6956E+00
      4.003  0.8060E-01  0.1145E+00  0.7767E+00  0.7105E+00
      4.134  0.8716E-01  0.1153E+00  0.7881E+00  0.7256E+00
      4.264  0.1040E+00  0.1255E+00  0.8017E+00  0.7420E+00
      4.395  0.1378E+00  0.1419E+00  0.8197E+00  0.7606E+00
      4.526  0.1731E+00  0.1563E+00  0.8424E+00  0.7810E+00
      4.657  0.1932E+00  0.1633E+00  0.8676E+00  0.8024E+00
      4.787  0.1947E+00  0.1679E+00  0.8931E+00  0.8243E+00
      4.918  0.1850E+00  0.1705E+00  0.9173E+00  0.8466E+00
      5.049  0.1758E+00  0.1682E+00  0.9403E+00  0.8686E+00
      5.180  0.1754E+00  0.1664E+00  0.9632E+00  0.8904E+00
      5.310  0.1841E+00  0.1675E+00  0.9873E+00  0.9123E+00
      5.441  0.1955E+00  0.1715E+00  0.1013E+01  0.9347E+00
      5.572  0.1990E+00  0.1771E+00  0.1039E+01  0.9579E+00
      5.703  0.1835E+00  0.1756E+00  0.1063E+01  0.9808E+00
      5.833  0.1504E+00  0.1656E+00  0.1083E+01  0.1002E+01
      5.964  0.1167E+00  0.1575E+00  0.1098E+01  0.1023E+01
      6.095  0.9255E-01  0.1556E+00  0.1110E+01  0.1043E+01
      6.226  0.7689E-01  0.1432E+00  0.1120E+01  0.1062E+01
      6.356  0.6909E-01  0.1097E+00  0.1129E+01  0.1077E+01
      6.487  0.6632E-01  0.7315E-01  0.1138E+01  0.1086E+01
      6.618  0.5975E-01  0.4379E-01  0.1145E+01  0.1092E+01
      6.749  0.4913E-01  0.1901E-01  0.1152E+01  0.1094E+01
      6.880  0.3865E-01  0.4790E-02  0.1157E+01  0.1095E+01
      7.010  0.2693E-01  0.6283E-03  0.1160E+01  0.1095E+01
      7.141  0.1862E-01  0.4070E-04  0.1163E+01  0.1095E+01
      7.272  0.1813E-01  0.1259E-05  0.1165E+01  0.1095E+01
      7.403  0.1717E-01  0.1814E-07  0.1168E+01  0.1095E+01
      7.533  0.1075E-01  0.1192E-09  0.1169E+01  0.1095E+01
      7.664  0.5960E-02  0.3518E-12  0.1170E+01  0.1095E+01
      7.795  0.7017E-02  0.4601E-15  0.1171E+01  0.1095E+01
      7.926  0.9569E-02  0.3287E-15  0.1172E+01  0.1095E+01
      8.056  0.9760E-02  0.1843E-12  0.1173E+01  0.1095E+01
      8.187  0.7233E-02  0.4504E-10  0.1174E+01  0.1095E+01
      8.318  0.4047E-02  0.4845E-08  0.1175E+01  0.1095E+01
      8.449  0.2002E-02  0.2330E-06  0.1175E+01  0.1095E+01
      8.579  0.7581E-03  0.5134E-05  0.1175E+01  0.1095E+01
      8.710  0.2067E-03  0.5386E-04  0.1175E+01  0.1095E+01
      8.841  0.2835E-03  0.2886E-03  0.1175E+01  0.1095E+01
      8.972  0.8651E-03  0.9134E-03  0.1175E+01  0.1095E+01
      9.102  0.2042E-02  0.2144E-02  0.1175E+01  0.1095E+01
      9.233  0.3998E-02  0.4285E-02  0.1176E+01  0.1096E+01
      9.364  0.6307E-02  0.7927E-02  0.1177E+01  0.1097E+01
      9.495  0.8370E-02  0.1569E-01  0.1178E+01  0.1099E+01
      9.625  0.9917E-02  0.2932E-01  0.1179E+01  0.1103E+01
      9.756  0.1202E-01  0.4777E-01  0.1181E+01  0.1109E+01
      9.887  0.1707E-01  0.7409E-01  0.1183E+01  0.1119E+01
     10.018  0.2684E-01  0.1036E+00  0.1186E+01  0.1132E+01
     10.149  0.4766E-01  0.1244E+00  0.1193E+01  0.1149E+01
     10.279  0.9041E-01  0.1497E+00  0.1205E+01  0.1168E+01
     10.410  0.1546E+00  0.1996E+00  0.1225E+01  0.1194E+01
     10.541  0.2438E+00  0.2742E+00  0.1257E+01  0.1230E+01
     10.672  0.3764E+00  0.3883E+00  0.1306E+01  0.1281E+01
     10.802  0.5167E+00  0.5251E+00  0.1373E+01  0.1350E+01
     10.933  0.5634E+00  0.5886E+00  0.1447E+01  0.1427E+01
     11.064  0.4542E+00  0.5057E+00  0.1506E+01  0.1493E+01
     11.195  0.2435E+00  0.3034E+00  0.1538E+01  0.1532E+01
     11.325  0.7598E-01  0.1106E+00  0.1548E+01  0.1547E+01
     11.456  0.1240E-01  0.2170E-01  0.1550E+01  0.1550E+01
     11.587  0.9915E-03  0.2129E-02  0.1550E+01  0.1550E+01
     11.718  0.3728E-04  0.1000E-03  0.1550E+01  0.1550E+01
     11.848  0.6430E-06  0.2188E-05  0.1550E+01  0.1550E+01
     11.979  0.5000E-08  0.2186E-07  0.1550E+01  0.1550E+01
     12.110  0.1732E-10  0.9838E-10  0.1550E+01  0.1550E+01
     12.241  0.2648E-13  0.1974E-12  0.1550E+01  0.1550E+01
     12.371  0.1167E-16  0.1692E-15  0.1550E+01  0.1550E+01
     12.502  0.0000E+00  0.0000E+00  0.1550E+01  0.1550E+01
     12.633  0.0000E+00  0.0000E+00  0.1550E+01  0.1550E+01
     12.764  0.0000E+00  0.0000E+00  0.1550E+01  0.1550E+01
     12.895  0.0000E+00  0.0000E+00  0.1550E+01  0.1550E+01
     13.025  0.0000E+00  0.0000E+00  0.1550E+01  0.1550E+01
     13.156  0.0000E+00  0.0000E+00  0.1550E+01  0.1550E+01
