   1   1   1   0
  0.1658294E+02  0.2862368E-09  0.2862368E-09  0.2862368E-09  0.5000000E-15
   1.0000000000000000E-004
  CAR 
 unknown system                          
    115.53552745     -8.80480540  301      7.97761275      1.00000000
     -8.805  0.0000E+00  0.0000E+00  0.0000E+00  0.0000E+00
     -8.390  0.0000E+00  0.0000E+00  0.0000E+00  0.0000E+00
     -7.976  0.0000E+00  0.0000E+00  0.0000E+00  0.0000E+00
     -7.561  0.0000E+00  0.0000E+00  0.0000E+00  0.0000E+00
     -7.147  0.0000E+00  0.0000E+00  0.0000E+00  0.0000E+00
     -6.732  0.0000E+00  0.0000E+00  0.0000E+00  0.0000E+00
     -6.318  0.0000E+00  0.0000E+00  0.0000E+00  0.0000E+00
     -5.904  0.0000E+00  0.0000E+00  0.0000E+00  0.0000E+00
     -5.489  0.0000E+00  0.0000E+00  0.0000E+00  0.0000E+00
     -5.075  0.0000E+00  0.0000E+00  0.0000E+00  0.0000E+00
     -4.660  0.0000E+00  0.0000E+00  0.0000E+00  0.0000E+00
     -4.246  0.0000E+00  0.0000E+00  0.0000E+00  0.0000E+00
     -3.831  0.0000E+00  0.0000E+00  0.0000E+00  0.0000E+00
     -3.417  0.0000E+00  0.0000E+00  0.0000E+00  0.0000E+00
     -3.002  0.1738E-01  0.1778E-01  0.8637E-03  0.8930E-03
     -2.588  0.4855E-01  0.4862E-01  0.1372E-01  0.1379E-01
     -2.173  0.5554E-01  0.5560E-01  0.3386E-01  0.3395E-01
     -1.759  0.6746E-01  0.6749E-01  0.5971E-01  0.5983E-01
     -1.344  0.7748E-01  0.7753E-01  0.8962E-01  0.8975E-01
     -0.930  0.8669E-01  0.8672E-01  0.1240E+00  0.1241E+00
     -0.515  0.9451E-01  0.9454E-01  0.1615E+00  0.1616E+00
     -0.101  0.1033E+00  0.1033E+00  0.2024E+00  0.2026E+00
      0.313  0.1100E+00  0.1100E+00  0.2468E+00  0.2470E+00
      0.728  0.1167E+00  0.1168E+00  0.2937E+00  0.2939E+00
      1.142  0.1239E+00  0.1240E+00  0.3436E+00  0.3438E+00
      1.557  0.1305E+00  0.1305E+00  0.3964E+00  0.3966E+00
      1.971  0.1363E+00  0.1364E+00  0.4517E+00  0.4519E+00
      2.386  0.1440E+00  0.1441E+00  0.5096E+00  0.5099E+00
      2.800  0.1630E+00  0.1631E+00  0.5727E+00  0.5730E+00
      3.215  0.1638E+00  0.1638E+00  0.6426E+00  0.6429E+00
      3.629  0.1691E+00  0.1691E+00  0.7115E+00  0.7118E+00
      4.044  0.1370E+00  0.1370E+00  0.7745E+00  0.7747E+00
      4.458  0.1825E+00  0.1825E+00  0.8393E+00  0.8396E+00
      4.873  0.2000E+00  0.1999E+00  0.9186E+00  0.9189E+00
      5.287  0.1980E+00  0.1978E+00  0.1002E+01  0.1002E+01
      5.702  0.1689E+00  0.1689E+00  0.1079E+01  0.1080E+01
      6.116  0.1312E+00  0.1311E+00  0.1143E+01  0.1144E+01
      6.531  0.1721E+00  0.1723E+00  0.1204E+01  0.1205E+01
      6.945  0.2190E+00  0.2191E+00  0.1289E+01  0.1290E+01
      7.359  0.2276E+00  0.2275E+00  0.1391E+01  0.1391E+01
      7.774  0.1673E+00  0.1671E+00  0.1467E+01  0.1468E+01
      8.188  0.1695E+00  0.1697E+00  0.1534E+01  0.1534E+01
      8.603  0.2228E+00  0.2231E+00  0.1615E+01  0.1616E+01
      9.017  0.2306E+00  0.2306E+00  0.1713E+01  0.1713E+01
      9.432  0.2164E+00  0.2161E+00  0.1807E+01  0.1807E+01
      9.846  0.2094E+00  0.2095E+00  0.1893E+01  0.1893E+01
     10.261  0.2238E+00  0.2239E+00  0.1982E+01  0.1983E+01
     10.675  0.2382E+00  0.2382E+00  0.2079E+01  0.2080E+01
     11.090  0.2359E+00  0.2359E+00  0.2175E+01  0.2176E+01
     11.504  0.2429E+00  0.2430E+00  0.2273E+01  0.2274E+01
     11.919  0.2478E+00  0.2478E+00  0.2377E+01  0.2377E+01
     12.333  0.2512E+00  0.2512E+00  0.2481E+01  0.2481E+01
     12.748  0.2647E+00  0.2648E+00  0.2587E+01  0.2587E+01
     13.162  0.2846E+00  0.2846E+00  0.2701E+01  0.2701E+01
     13.576  0.3105E+00  0.3109E+00  0.2823E+01  0.2824E+01
     13.991  0.2949E+00  0.2949E+00  0.2949E+01  0.2950E+01
     14.405  0.2785E+00  0.2785E+00  0.3068E+01  0.3069E+01
     14.820  0.2695E+00  0.2694E+00  0.3182E+01  0.3182E+01
     15.234  0.2622E+00  0.2622E+00  0.3292E+01  0.3292E+01
     15.649  0.2599E+00  0.2599E+00  0.3400E+01  0.3401E+01
     16.063  0.2620E+00  0.2621E+00  0.3508E+01  0.3508E+01
     16.478  0.2643E+00  0.2643E+00  0.3618E+01  0.3618E+01
     16.892  0.2591E+00  0.2591E+00  0.3726E+01  0.3727E+01
     17.307  0.2595E+00  0.2596E+00  0.3833E+01  0.3834E+01
     17.721  0.2686E+00  0.2687E+00  0.3942E+01  0.3943E+01
     18.136  0.2882E+00  0.2884E+00  0.4058E+01  0.4058E+01
     18.550  0.2977E+00  0.2978E+00  0.4179E+01  0.4180E+01
     18.965  0.3058E+00  0.3059E+00  0.4305E+01  0.4306E+01
     19.379  0.3527E+00  0.3529E+00  0.4438E+01  0.4439E+01
     19.793  0.3951E+00  0.3953E+00  0.4593E+01  0.4594E+01
     20.208  0.3995E+00  0.3992E+00  0.4761E+01  0.4762E+01
     20.622  0.3126E+00  0.3124E+00  0.4905E+01  0.4906E+01
     21.037  0.2817E+00  0.2820E+00  0.5024E+01  0.5025E+01
     21.451  0.2652E+00  0.2648E+00  0.5142E+01  0.5143E+01
     21.866  0.2395E+00  0.2393E+00  0.5248E+01  0.5248E+01
     22.280  0.2942E+00  0.2946E+00  0.5354E+01  0.5355E+01
     22.695  0.4640E+00  0.4643E+00  0.5507E+01  0.5508E+01
     23.109  0.3806E+00  0.3804E+00  0.5676E+01  0.5677E+01
     23.524  0.2911E+00  0.2905E+00  0.5817E+01  0.5818E+01
     23.938  0.4336E+00  0.4374E+00  0.5948E+01  0.5950E+01
     24.353  0.2773E+00  0.2768E+00  0.6074E+01  0.6075E+01
     24.767  0.3289E+00  0.3296E+00  0.6194E+01  0.6195E+01
     25.182  0.4675E+00  0.4703E+00  0.6356E+01  0.6358E+01
     25.596  0.3755E+00  0.3754E+00  0.6530E+01  0.6531E+01
     26.010  0.4050E+00  0.4045E+00  0.6692E+01  0.6693E+01
     26.425  0.3707E+00  0.3709E+00  0.6852E+01  0.6853E+01
     26.839  0.3622E+00  0.3619E+00  0.7009E+01  0.7010E+01
     27.254  0.3085E+00  0.3077E+00  0.7151E+01  0.7152E+01
     27.668  0.2822E+00  0.2827E+00  0.7268E+01  0.7269E+01
     28.083  0.3865E+00  0.3870E+00  0.7407E+01  0.7409E+01
     28.497  0.4514E+00  0.4520E+00  0.7585E+01  0.7586E+01
     28.912  0.4095E+00  0.4079E+00  0.7781E+01  0.7782E+01
     29.326  0.3717E+00  0.3720E+00  0.7931E+01  0.7933E+01
     29.741  0.3914E+00  0.3916E+00  0.8089E+01  0.8090E+01
     30.155  0.4014E+00  0.4011E+00  0.8255E+01  0.8256E+01
     30.570  0.3918E+00  0.3917E+00  0.8417E+01  0.8418E+01
     30.984  0.4167E+00  0.4166E+00  0.8584E+01  0.8585E+01
     31.399  0.4458E+00  0.4469E+00  0.8761E+01  0.8763E+01
     31.813  0.4467E+00  0.4467E+00  0.8952E+01  0.8954E+01
     32.228  0.4482E+00  0.4482E+00  0.9137E+01  0.9138E+01
     32.642  0.4078E+00  0.4071E+00  0.9316E+01  0.9318E+01
     33.056  0.3234E+00  0.3227E+00  0.9465E+01  0.9466E+01
     33.471  0.2950E+00  0.2951E+00  0.9592E+01  0.9593E+01
     33.885  0.3457E+00  0.3475E+00  0.9720E+01  0.9721E+01
     34.300  0.2716E+00  0.2707E+00  0.9847E+01  0.9848E+01
     34.714  0.1842E+00  0.1835E+00  0.9938E+01  0.9938E+01
     35.129  0.1652E+00  0.1652E+00  0.1001E+02  0.1001E+02
     35.543  0.1790E+00  0.1791E+00  0.1008E+02  0.1008E+02
     35.958  0.1880E+00  0.1881E+00  0.1015E+02  0.1016E+02
     36.372  0.2130E+00  0.2131E+00  0.1024E+02  0.1024E+02
     36.787  0.2662E+00  0.2661E+00  0.1034E+02  0.1034E+02
     37.201  0.2825E+00  0.2825E+00  0.1045E+02  0.1045E+02
     37.616  0.3014E+00  0.3015E+00  0.1057E+02  0.1057E+02
     38.030  0.3209E+00  0.3209E+00  0.1070E+02  0.1070E+02
     38.445  0.3312E+00  0.3312E+00  0.1084E+02  0.1084E+02
     38.859  0.3152E+00  0.3151E+00  0.1097E+02  0.1097E+02
     39.273  0.3406E+00  0.3407E+00  0.1110E+02  0.1111E+02
     39.688  0.4242E+00  0.4248E+00  0.1126E+02  0.1126E+02
     40.102  0.7102E+00  0.7087E+00  0.1149E+02  0.1149E+02
     40.517  0.5665E+00  0.5661E+00  0.1173E+02  0.1173E+02
     40.931  0.5318E+00  0.5315E+00  0.1195E+02  0.1195E+02
     41.346  0.5038E+00  0.5053E+00  0.1216E+02  0.1216E+02
     41.760  0.3893E+00  0.3903E+00  0.1234E+02  0.1234E+02
     42.175  0.4591E+00  0.4591E+00  0.1251E+02  0.1251E+02
     42.589  0.4315E+00  0.4318E+00  0.1270E+02  0.1270E+02
     43.004  0.5588E+00  0.5831E+00  0.1289E+02  0.1289E+02
     43.418  0.5297E+00  0.5296E+00  0.1312E+02  0.1312E+02
     43.833  0.4181E+00  0.4197E+00  0.1332E+02  0.1332E+02
     44.247  0.3960E+00  0.3959E+00  0.1349E+02  0.1349E+02
     44.662  0.4169E+00  0.4158E+00  0.1365E+02  0.1365E+02
     45.076  0.4933E+00  0.4944E+00  0.1384E+02  0.1384E+02
     45.490  0.4881E+00  0.4883E+00  0.1405E+02  0.1405E+02
     45.905  0.4897E+00  0.4898E+00  0.1425E+02  0.1425E+02
     46.319  0.5331E+00  0.5321E+00  0.1447E+02  0.1447E+02
     46.734  0.4522E+00  0.4517E+00  0.1467E+02  0.1467E+02
     47.148  0.3999E+00  0.3996E+00  0.1485E+02  0.1485E+02
     47.563  0.3954E+00  0.3955E+00  0.1501E+02  0.1501E+02
     47.977  0.4473E+00  0.4478E+00  0.1518E+02  0.1519E+02
     48.392  0.5746E+00  0.5741E+00  0.1541E+02  0.1541E+02
     48.806  0.5550E+00  0.5540E+00  0.1564E+02  0.1564E+02
     49.221  0.4754E+00  0.4752E+00  0.1584E+02  0.1584E+02
     49.635  0.4634E+00  0.4636E+00  0.1602E+02  0.1602E+02
     50.050  0.3998E+00  0.3989E+00  0.1620E+02  0.1620E+02
     50.464  0.3467E+00  0.3472E+00  0.1635E+02  0.1635E+02
     50.879  0.4617E+00  0.4625E+00  0.1651E+02  0.1651E+02
     51.293  0.6475E+00  0.6470E+00  0.1675E+02  0.1676E+02
     51.707  0.4643E+00  0.4632E+00  0.1698E+02  0.1698E+02
     52.122  0.3536E+00  0.3537E+00  0.1714E+02  0.1714E+02
     52.536  0.4431E+00  0.4436E+00  0.1730E+02  0.1730E+02
     52.951  0.9055E+00  0.9051E+00  0.1756E+02  0.1756E+02
     53.365  0.6970E+00  0.6969E+00  0.1789E+02  0.1789E+02
     53.780  0.7067E+00  0.7072E+00  0.1816E+02  0.1816E+02
     54.194  0.8976E+00  0.8970E+00  0.1850E+02  0.1850E+02
     54.609  0.1072E+01  0.1072E+01  0.1891E+02  0.1891E+02
     55.023  0.1264E+01  0.1264E+01  0.1939E+02  0.1939E+02
     55.438  0.1092E+01  0.1093E+01  0.1986E+02  0.1986E+02
     55.852  0.1404E+01  0.1404E+01  0.2036E+02  0.2036E+02
     56.267  0.1190E+01  0.1189E+01  0.2091E+02  0.2091E+02
     56.681  0.9628E+00  0.9644E+00  0.2130E+02  0.2131E+02
     57.096  0.1020E+01  0.1021E+01  0.2177E+02  0.2177E+02
     57.510  0.7869E+00  0.7874E+00  0.2213E+02  0.2213E+02
     57.925  0.5501E+00  0.5483E+00  0.2248E+02  0.2248E+02
     58.339  0.5853E+00  0.5855E+00  0.2270E+02  0.2270E+02
     58.753  0.6833E+00  0.6847E+00  0.2295E+02  0.2295E+02
     59.168  0.1186E+01  0.1191E+01  0.2333E+02  0.2333E+02
     59.582  0.7768E+00  0.7756E+00  0.2374E+02  0.2374E+02
     59.997  0.5089E+00  0.5085E+00  0.2400E+02  0.2400E+02
     60.411  0.5470E+00  0.5478E+00  0.2420E+02  0.2420E+02
     60.826  0.5274E+00  0.5277E+00  0.2442E+02  0.2442E+02
     61.240  0.6306E+00  0.6314E+00  0.2465E+02  0.2465E+02
     61.655  0.7740E+00  0.7746E+00  0.2494E+02  0.2494E+02
     62.069  0.5848E+00  0.5844E+00  0.2521E+02  0.2521E+02
     62.484  0.4954E+00  0.4949E+00  0.2543E+02  0.2543E+02
     62.898  0.4728E+00  0.4726E+00  0.2563E+02  0.2563E+02
     63.313  0.5417E+00  0.5409E+00  0.2583E+02  0.2583E+02
     63.727  0.5346E+00  0.5341E+00  0.2606E+02  0.2606E+02
     64.142  0.4674E+00  0.4673E+00  0.2626E+02  0.2626E+02
     64.556  0.5495E+00  0.5504E+00  0.2647E+02  0.2647E+02
     64.970  0.5449E+00  0.5450E+00  0.2670E+02  0.2670E+02
     65.385  0.5193E+00  0.5194E+00  0.2692E+02  0.2692E+02
     65.799  0.5166E+00  0.5172E+00  0.2713E+02  0.2713E+02
     66.214  0.5080E+00  0.5077E+00  0.2735E+02  0.2735E+02
     66.628  0.4293E+00  0.4289E+00  0.2755E+02  0.2755E+02
     67.043  0.3947E+00  0.3946E+00  0.2771E+02  0.2772E+02
     67.457  0.3885E+00  0.3885E+00  0.2788E+02  0.2788E+02
     67.872  0.4760E+00  0.4759E+00  0.2806E+02  0.2806E+02
     68.286  0.4418E+00  0.4419E+00  0.2825E+02  0.2825E+02
     68.701  0.4643E+00  0.4645E+00  0.2844E+02  0.2844E+02
     69.115  0.4797E+00  0.4796E+00  0.2864E+02  0.2864E+02
     69.530  0.4511E+00  0.4507E+00  0.2883E+02  0.2884E+02
     69.944  0.4249E+00  0.4246E+00  0.2902E+02  0.2902E+02
     70.359  0.4266E+00  0.4266E+00  0.2919E+02  0.2919E+02
     70.773  0.6028E+00  0.6037E+00  0.2939E+02  0.2939E+02
     71.187  0.5499E+00  0.5502E+00  0.2963E+02  0.2963E+02
     71.602  0.6253E+00  0.6260E+00  0.2987E+02  0.2987E+02
     72.016  0.5364E+00  0.5361E+00  0.3012E+02  0.3012E+02
     72.431  0.4752E+00  0.4753E+00  0.3032E+02  0.3032E+02
     72.845  0.4280E+00  0.4279E+00  0.3052E+02  0.3052E+02
     73.260  0.3739E+00  0.3734E+00  0.3069E+02  0.3069E+02
     73.674  0.3877E+00  0.3879E+00  0.3084E+02  0.3084E+02
     74.089  0.3840E+00  0.3841E+00  0.3100E+02  0.3100E+02
     74.503  0.4622E+00  0.4651E+00  0.3117E+02  0.3117E+02
     74.918  0.5061E+00  0.5058E+00  0.3140E+02  0.3140E+02
     75.332  0.4486E+00  0.4485E+00  0.3159E+02  0.3159E+02
     75.747  0.4220E+00  0.4221E+00  0.3177E+02  0.3177E+02
     76.161  0.5192E+00  0.5200E+00  0.3195E+02  0.3195E+02
     76.576  0.5876E+00  0.5886E+00  0.3219E+02  0.3219E+02
     76.990  0.6031E+00  0.6012E+00  0.3244E+02  0.3244E+02
     77.404  0.4874E+00  0.4891E+00  0.3264E+02  0.3264E+02
     77.819  0.5253E+00  0.5267E+00  0.3284E+02  0.3284E+02
     78.233  0.6487E+00  0.6478E+00  0.3310E+02  0.3310E+02
     78.648  0.5922E+00  0.5917E+00  0.3337E+02  0.3337E+02
     79.062  0.4715E+00  0.4700E+00  0.3360E+02  0.3360E+02
     79.477  0.3943E+00  0.3944E+00  0.3377E+02  0.3377E+02
     79.891  0.4982E+00  0.4987E+00  0.3395E+02  0.3395E+02
     80.306  0.5827E+00  0.5828E+00  0.3417E+02  0.3417E+02
     80.720  0.7026E+00  0.7026E+00  0.3445E+02  0.3446E+02
     81.135  0.6116E+00  0.6114E+00  0.3472E+02  0.3472E+02
     81.549  0.5906E+00  0.5903E+00  0.3497E+02  0.3497E+02
     81.964  0.5899E+00  0.5905E+00  0.3521E+02  0.3521E+02
     82.378  0.5557E+00  0.5555E+00  0.3545E+02  0.3545E+02
     82.793  0.5652E+00  0.5654E+00  0.3568E+02  0.3568E+02
     83.207  0.5080E+00  0.5081E+00  0.3591E+02  0.3591E+02
     83.622  0.5646E+00  0.5649E+00  0.3612E+02  0.3612E+02
     84.036  0.5642E+00  0.5643E+00  0.3636E+02  0.3636E+02
     84.450  0.5247E+00  0.5244E+00  0.3658E+02  0.3659E+02
     84.865  0.4515E+00  0.4513E+00  0.3679E+02  0.3679E+02
     85.279  0.4306E+00  0.4294E+00  0.3697E+02  0.3697E+02
     85.694  0.4262E+00  0.4273E+00  0.3715E+02  0.3715E+02
     86.108  0.4793E+00  0.4793E+00  0.3734E+02  0.3734E+02
     86.523  0.4480E+00  0.4479E+00  0.3753E+02  0.3754E+02
     86.937  0.5101E+00  0.5102E+00  0.3773E+02  0.3773E+02
     87.352  0.6398E+00  0.6402E+00  0.3797E+02  0.3797E+02
     87.766  0.7738E+00  0.7733E+00  0.3827E+02  0.3828E+02
     88.181  0.6860E+00  0.6857E+00  0.3858E+02  0.3859E+02
     88.595  0.6390E+00  0.6395E+00  0.3885E+02  0.3885E+02
     89.010  0.6035E+00  0.6031E+00  0.3912E+02  0.3912E+02
     89.424  0.5692E+00  0.5697E+00  0.3935E+02  0.3935E+02
     89.839  0.5959E+00  0.5984E+00  0.3959E+02  0.3959E+02
     90.253  0.4390E+00  0.4387E+00  0.3978E+02  0.3978E+02
     90.667  0.4424E+00  0.4455E+00  0.3998E+02  0.3998E+02
     91.082  0.4471E+00  0.4471E+00  0.4015E+02  0.4016E+02
     91.496  0.5025E+00  0.5026E+00  0.4035E+02  0.4035E+02
     91.911  0.5274E+00  0.5276E+00  0.4056E+02  0.4056E+02
     92.325  0.6260E+00  0.6257E+00  0.4080E+02  0.4081E+02
     92.740  0.5746E+00  0.5741E+00  0.4104E+02  0.4104E+02
     93.154  0.4477E+00  0.4472E+00  0.4127E+02  0.4127E+02
     93.569  0.4289E+00  0.4291E+00  0.4144E+02  0.4144E+02
     93.983  0.7396E+00  0.7412E+00  0.4166E+02  0.4166E+02
     94.398  0.8096E+00  0.8084E+00  0.4200E+02  0.4200E+02
     94.812  0.5806E+00  0.5806E+00  0.4227E+02  0.4227E+02
     95.227  0.5829E+00  0.5831E+00  0.4251E+02  0.4251E+02
     95.641  0.6503E+00  0.6505E+00  0.4276E+02  0.4276E+02
     96.056  0.7197E+00  0.7158E+00  0.4304E+02  0.4304E+02
     96.470  0.6412E+00  0.6408E+00  0.4332E+02  0.4332E+02
     96.884  0.5528E+00  0.5526E+00  0.4357E+02  0.4357E+02
     97.299  0.4973E+00  0.4971E+00  0.4379E+02  0.4379E+02
     97.713  0.5024E+00  0.5022E+00  0.4399E+02  0.4400E+02
     98.128  0.4500E+00  0.4499E+00  0.4419E+02  0.4419E+02
     98.542  0.4829E+00  0.4829E+00  0.4439E+02  0.4439E+02
     98.957  0.5610E+00  0.5603E+00  0.4459E+02  0.4459E+02
     99.371  0.5169E+00  0.5163E+00  0.4482E+02  0.4482E+02
     99.786  0.5509E+00  0.5510E+00  0.4503E+02  0.4503E+02
    100.200  0.6039E+00  0.6042E+00  0.4527E+02  0.4527E+02
    100.615  0.7016E+00  0.7018E+00  0.4554E+02  0.4554E+02
    101.029  0.6926E+00  0.6931E+00  0.4583E+02  0.4584E+02
    101.444  0.5979E+00  0.5978E+00  0.4610E+02  0.4610E+02
    101.858  0.5314E+00  0.5311E+00  0.4634E+02  0.4634E+02
    102.273  0.5578E+00  0.5574E+00  0.4656E+02  0.4656E+02
    102.687  0.4854E+00  0.4853E+00  0.4678E+02  0.4678E+02
    103.101  0.5129E+00  0.5126E+00  0.4698E+02  0.4698E+02
    103.516  0.4492E+00  0.4491E+00  0.4718E+02  0.4718E+02
    103.930  0.4504E+00  0.4504E+00  0.4736E+02  0.4737E+02
    104.345  0.3121E+00  0.3113E+00  0.4753E+02  0.4753E+02
    104.759  0.2429E+00  0.2432E+00  0.4764E+02  0.4764E+02
    105.174  0.3390E+00  0.3398E+00  0.4776E+02  0.4776E+02
    105.588  0.1748E+00  0.1729E+00  0.4787E+02  0.4787E+02
    106.003  0.9408E-01  0.9383E-01  0.4792E+02  0.4792E+02
    106.417  0.5002E-01  0.4979E-01  0.4795E+02  0.4795E+02
    106.832  0.1845E-01  0.1837E-01  0.4796E+02  0.4796E+02
    107.246  0.1344E-01  0.1343E-01  0.4797E+02  0.4797E+02
    107.661  0.1225E-01  0.1225E-01  0.4798E+02  0.4798E+02
    108.075  0.1198E-01  0.1198E-01  0.4798E+02  0.4798E+02
    108.490  0.1263E-01  0.1264E-01  0.4799E+02  0.4799E+02
    108.904  0.1420E-01  0.1421E-01  0.4799E+02  0.4799E+02
    109.319  0.1082E-01  0.1066E-01  0.4800E+02  0.4800E+02
    109.733  0.1928E-03  0.1880E-03  0.4800E+02  0.4800E+02
    110.147  0.0000E+00  0.0000E+00  0.4800E+02  0.4800E+02
    110.562  0.0000E+00  0.0000E+00  0.4800E+02  0.4800E+02
    110.976  0.0000E+00  0.0000E+00  0.4800E+02  0.4800E+02
    111.391  0.0000E+00  0.0000E+00  0.4800E+02  0.4800E+02
    111.805  0.0000E+00  0.0000E+00  0.4800E+02  0.4800E+02
    112.220  0.0000E+00  0.0000E+00  0.4800E+02  0.4800E+02
    112.634  0.0000E+00  0.0000E+00  0.4800E+02  0.4800E+02
    113.049  0.0000E+00  0.0000E+00  0.4800E+02  0.4800E+02
    113.463  0.0000E+00  0.0000E+00  0.4800E+02  0.4800E+02
    113.878  0.0000E+00  0.0000E+00  0.4800E+02  0.4800E+02
    114.292  0.0000E+00  0.0000E+00  0.4800E+02  0.4800E+02
    114.707  0.0000E+00  0.0000E+00  0.4800E+02  0.4800E+02
    115.121  0.0000E+00  0.0000E+00  0.4800E+02  0.4800E+02
    115.536  0.0000E+00  0.0000E+00  0.4800E+02  0.4800E+02
    115.53552745     -8.80480540  301      7.97761275      1.00000000
     -8.805  0.0000E+00  0.0000E+00  0.0000E+00  0.0000E+00  0.0000E+00  0.0000E+00  0.0000E+00  0.0000E+00  0.0000E+00  0.0000E+00  0.0000E+00  0.0000E+00  0.0000E+00  0.0000E+00  0.0000E+00  0.0000E+00  0.0000E+00  0.0000E+00
     -8.390  0.0000E+00  0.0000E+00  0.0000E+00  0.0000E+00  0.0000E+00  0.0000E+00  0.0000E+00  0.0000E+00  0.0000E+00  0.0000E+00  0.0000E+00  0.0000E+00  0.0000E+00  0.0000E+00  0.0000E+00  0.0000E+00  0.0000E+00  0.0000E+00
     -7.976  0.0000E+00  0.0000E+00  0.0000E+00  0.0000E+00  0.0000E+00  0.0000E+00  0.0000E+00  0.0000E+00  0.0000E+00  0.0000E+00  0.0000E+00  0.0000E+00  0.0000E+00  0.0000E+00  0.0000E+00  0.0000E+00  0.0000E+00  0.0000E+00
     -7.561  0.0000E+00  0.0000E+00  0.0000E+00  0.0000E+00  0.0000E+00  0.0000E+00  0.0000E+00  0.0000E+00  0.0000E+00  0.0000E+00  0.0000E+00  0.0000E+00  0.0000E+00  0.0000E+00  0.0000E+00  0.0000E+00  0.0000E+00  0.0000E+00
     -7.147  0.0000E+00  0.0000E+00  0.0000E+00  0.0000E+00  0.0000E+00  0.0000E+00  0.0000E+00  0.0000E+00  0.0000E+00  0.0000E+00  0.0000E+00  0.0000E+00  0.0000E+00  0.0000E+00  0.0000E+00  0.0000E+00  0.0000E+00  0.0000E+00
     -6.732  0.0000E+00  0.0000E+00  0.0000E+00  0.0000E+00  0.0000E+00  0.0000E+00  0.0000E+00  0.0000E+00  0.0000E+00  0.0000E+00  0.0000E+00  0.0000E+00  0.0000E+00  0.0000E+00  0.0000E+00  0.0000E+00  0.0000E+00  0.0000E+00
     -6.318  0.0000E+00  0.0000E+00  0.0000E+00  0.0000E+00  0.0000E+00  0.0000E+00  0.0000E+00  0.0000E+00  0.0000E+00  0.0000E+00  0.0000E+00  0.0000E+00  0.0000E+00  0.0000E+00  0.0000E+00  0.0000E+00  0.0000E+00  0.0000E+00
     -5.904  0.0000E+00  0.0000E+00  0.0000E+00  0.0000E+00  0.0000E+00  0.0000E+00  0.0000E+00  0.0000E+00  0.0000E+00  0.0000E+00  0.0000E+00  0.0000E+00  0.0000E+00  0.0000E+00  0.0000E+00  0.0000E+00  0.0000E+00  0.0000E+00
     -5.489  0.0000E+00  0.0000E+00  0.0000E+00  0.0000E+00  0.0000E+00  0.0000E+00  0.0000E+00  0.0000E+00  0.0000E+00  0.0000E+00  0.0000E+00  0.0000E+00  0.0000E+00  0.0000E+00  0.0000E+00  0.0000E+00  0.0000E+00  0.0000E+00
     -5.075  0.0000E+00  0.0000E+00  0.0000E+00  0.0000E+00  0.0000E+00  0.0000E+00  0.0000E+00  0.0000E+00  0.0000E+00  0.0000E+00  0.0000E+00  0.0000E+00  0.0000E+00  0.0000E+00  0.0000E+00  0.0000E+00  0.0000E+00  0.0000E+00
     -4.660  0.0000E+00  0.0000E+00  0.0000E+00  0.0000E+00  0.0000E+00  0.0000E+00  0.0000E+00  0.0000E+00  0.0000E+00  0.0000E+00  0.0000E+00  0.0000E+00  0.0000E+00  0.0000E+00  0.0000E+00  0.0000E+00  0.0000E+00  0.0000E+00
     -4.246  0.0000E+00  0.0000E+00  0.0000E+00  0.0000E+00  0.0000E+00  0.0000E+00  0.0000E+00  0.0000E+00  0.0000E+00  0.0000E+00  0.0000E+00  0.0000E+00  0.0000E+00  0.0000E+00  0.0000E+00  0.0000E+00  0.0000E+00  0.0000E+00
     -3.831  0.0000E+00  0.0000E+00  0.0000E+00  0.0000E+00  0.0000E+00  0.0000E+00  0.0000E+00  0.0000E+00  0.0000E+00  0.0000E+00  0.0000E+00  0.0000E+00  0.0000E+00  0.0000E+00  0.0000E+00  0.0000E+00  0.0000E+00  0.0000E+00
     -3.417  0.0000E+00  0.0000E+00  0.0000E+00  0.0000E+00  0.0000E+00  0.0000E+00  0.0000E+00  0.0000E+00  0.0000E+00  0.0000E+00  0.0000E+00  0.0000E+00  0.0000E+00  0.0000E+00  0.0000E+00  0.0000E+00  0.0000E+00  0.0000E+00
     -3.002  0.4626E-02  0.4733E-02  0.1840E-04  0.1882E-04  0.1840E-04  0.1882E-04  0.1840E-04  0.1882E-04  0.0000E+00  0.0000E+00  0.0000E+00  0.0000E+00  0.0000E+00  0.0000E+00  0.0000E+00  0.0000E+00  0.0000E+00  0.0000E+00
     -2.588  0.1257E-01  0.1260E-01  0.1691E-03  0.1699E-03  0.1691E-03  0.1699E-03  0.1691E-03  0.1699E-03  0.0000E+00  0.0000E+00  0.0000E+00  0.0000E+00  0.0000E+00  0.0000E+00  0.0000E+00  0.0000E+00  0.0000E+00  0.0000E+00
     -2.173  0.1384E-01  0.1387E-01  0.3719E-03  0.3729E-03  0.3719E-03  0.3729E-03  0.3719E-03  0.3729E-03  0.0000E+00  0.0000E+00  0.0000E+00  0.0000E+00  0.0000E+00  0.0000E+00  0.0000E+00  0.0000E+00  0.0000E+00  0.0000E+00
     -1.759  0.1626E-01  0.1628E-01  0.6325E-03  0.6339E-03  0.6325E-03  0.6339E-03  0.6325E-03  0.6339E-03  0.0000E+00  0.0000E+00  0.0000E+00  0.0000E+00  0.0000E+00  0.0000E+00  0.0000E+00  0.0000E+00  0.0000E+00  0.0000E+00
     -1.344  0.1807E-01  0.1809E-01  0.9251E-03  0.9266E-03  0.9251E-03  0.9266E-03  0.9251E-03  0.9266E-03  0.0000E+00  0.0000E+00  0.0000E+00  0.0000E+00  0.0000E+00  0.0000E+00  0.0000E+00  0.0000E+00  0.0000E+00  0.0000E+00
     -0.930  0.1952E-01  0.1953E-01  0.1258E-02  0.1260E-02  0.1258E-02  0.1260E-02  0.1258E-02  0.1260E-02  0.0000E+00  0.0000E+00  0.0000E+00  0.0000E+00  0.0000E+00  0.0000E+00  0.0000E+00  0.0000E+00  0.0000E+00  0.0000E+00
     -0.515  0.2048E-01  0.2050E-01  0.1622E-02  0.1624E-02  0.1622E-02  0.1624E-02  0.1622E-02  0.1624E-02  0.0000E+00  0.0000E+00  0.0000E+00  0.0000E+00  0.0000E+00  0.0000E+00  0.0000E+00  0.0000E+00  0.0000E+00  0.0000E+00
     -0.101  0.2168E-01  0.2170E-01  0.1989E-02  0.1992E-02  0.1989E-02  0.1992E-02  0.1989E-02  0.1992E-02  0.0000E+00  0.0000E+00  0.0000E+00  0.0000E+00  0.0000E+00  0.0000E+00  0.0000E+00  0.0000E+00  0.0000E+00  0.0000E+00
      0.313  0.2211E-01  0.2213E-01  0.2416E-02  0.2419E-02  0.2416E-02  0.2419E-02  0.2416E-02  0.2419E-02  0.0000E+00  0.0000E+00  0.0000E+00  0.0000E+00  0.0000E+00  0.0000E+00  0.0000E+00  0.0000E+00  0.0000E+00  0.0000E+00
      0.728  0.2248E-01  0.2250E-01  0.2856E-02  0.2859E-02  0.2856E-02  0.2859E-02  0.2856E-02  0.2859E-02  0.0000E+00  0.0000E+00  0.0000E+00  0.0000E+00  0.0000E+00  0.0000E+00  0.0000E+00  0.0000E+00  0.0000E+00  0.0000E+00
      1.142  0.2295E-01  0.2296E-01  0.3304E-02  0.3307E-02  0.3304E-02  0.3307E-02  0.3304E-02  0.3307E-02  0.0000E+00  0.0000E+00  0.0000E+00  0.0000E+00  0.0000E+00  0.0000E+00  0.0000E+00  0.0000E+00  0.0000E+00  0.0000E+00
      1.557  0.2303E-01  0.2305E-01  0.3797E-02  0.3800E-02  0.3797E-02  0.3800E-02  0.3797E-02  0.3800E-02  0.0000E+00  0.0000E+00  0.0000E+00  0.0000E+00  0.0000E+00  0.0000E+00  0.0000E+00  0.0000E+00  0.0000E+00  0.0000E+00
      1.971  0.2268E-01  0.2269E-01  0.4352E-02  0.4356E-02  0.4352E-02  0.4356E-02  0.4352E-02  0.4356E-02  0.0000E+00  0.0000E+00  0.0000E+00  0.0000E+00  0.0000E+00  0.0000E+00  0.0000E+00  0.0000E+00  0.0000E+00  0.0000E+00
      2.386  0.2219E-01  0.2221E-01  0.5054E-02  0.5059E-02  0.5054E-02  0.5059E-02  0.5054E-02  0.5059E-02  0.0000E+00  0.0000E+00  0.0000E+00  0.0000E+00  0.0000E+00  0.0000E+00  0.0000E+00  0.0000E+00  0.0000E+00  0.0000E+00
      2.800  0.2280E-01  0.2282E-01  0.6294E-02  0.6302E-02  0.6294E-02  0.6302E-02  0.6294E-02  0.6302E-02  0.0000E+00  0.0000E+00  0.0000E+00  0.0000E+00  0.0000E+00  0.0000E+00  0.0000E+00  0.0000E+00  0.0000E+00  0.0000E+00
      3.215  0.2091E-01  0.2091E-01  0.6820E-02  0.6822E-02  0.6820E-02  0.6822E-02  0.6820E-02  0.6822E-02  0.0000E+00  0.0000E+00  0.0000E+00  0.0000E+00  0.0000E+00  0.0000E+00  0.0000E+00  0.0000E+00  0.0000E+00  0.0000E+00
      3.629  0.1917E-01  0.1917E-01  0.7623E-02  0.7625E-02  0.7623E-02  0.7625E-02  0.7623E-02  0.7625E-02  0.0000E+00  0.0000E+00  0.0000E+00  0.0000E+00  0.0000E+00  0.0000E+00  0.0000E+00  0.0000E+00  0.0000E+00  0.0000E+00
      4.044  0.1456E-01  0.1458E-01  0.6454E-02  0.6457E-02  0.6454E-02  0.6457E-02  0.6454E-02  0.6457E-02  0.0000E+00  0.0000E+00  0.0000E+00  0.0000E+00  0.0000E+00  0.0000E+00  0.0000E+00  0.0000E+00  0.0000E+00  0.0000E+00
      4.458  0.2062E-01  0.2064E-01  0.8426E-02  0.8434E-02  0.8426E-02  0.8434E-02  0.8426E-02  0.8434E-02  0.0000E+00  0.0000E+00  0.0000E+00  0.0000E+00  0.0000E+00  0.0000E+00  0.0000E+00  0.0000E+00  0.0000E+00  0.0000E+00
      4.873  0.1995E-01  0.1995E-01  0.9998E-02  0.9999E-02  0.9998E-02  0.9999E-02  0.9998E-02  0.9999E-02  0.0000E+00  0.0000E+00  0.0000E+00  0.0000E+00  0.0000E+00  0.0000E+00  0.0000E+00  0.0000E+00  0.0000E+00  0.0000E+00
      5.287  0.2076E-01  0.2075E-01  0.9721E-02  0.9719E-02  0.9721E-02  0.9719E-02  0.9721E-02  0.9719E-02  0.0000E+00  0.0000E+00  0.0000E+00  0.0000E+00  0.0000E+00  0.0000E+00  0.0000E+00  0.0000E+00  0.0000E+00  0.0000E+00
      5.702  0.1871E-01  0.1871E-01  0.8089E-02  0.8099E-02  0.8089E-02  0.8099E-02  0.8089E-02  0.8099E-02  0.0000E+00  0.0000E+00  0.0000E+00  0.0000E+00  0.0000E+00  0.0000E+00  0.0000E+00  0.0000E+00  0.0000E+00  0.0000E+00
      6.116  0.1502E-01  0.1502E-01  0.6119E-02  0.6119E-02  0.6119E-02  0.6119E-02  0.6119E-02  0.6119E-02  0.0000E+00  0.0000E+00  0.0000E+00  0.0000E+00  0.0000E+00  0.0000E+00  0.0000E+00  0.0000E+00  0.0000E+00  0.0000E+00
      6.531  0.1674E-01  0.1676E-01  0.8598E-02  0.8614E-02  0.8598E-02  0.8614E-02  0.8598E-02  0.8614E-02  0.0000E+00  0.0000E+00  0.0000E+00  0.0000E+00  0.0000E+00  0.0000E+00  0.0000E+00  0.0000E+00  0.0000E+00  0.0000E+00
      6.945  0.2163E-01  0.2167E-01  0.1038E-01  0.1039E-01  0.1038E-01  0.1039E-01  0.1038E-01  0.1039E-01  0.0000E+00  0.0000E+00  0.0000E+00  0.0000E+00  0.0000E+00  0.0000E+00  0.0000E+00  0.0000E+00  0.0000E+00  0.0000E+00
      7.359  0.2030E-01  0.2029E-01  0.1111E-01  0.1111E-01  0.1111E-01  0.1111E-01  0.1111E-01  0.1111E-01  0.0000E+00  0.0000E+00  0.0000E+00  0.0000E+00  0.0000E+00  0.0000E+00  0.0000E+00  0.0000E+00  0.0000E+00  0.0000E+00
      7.774  0.1437E-01  0.1437E-01  0.8231E-02  0.8229E-02  0.8231E-02  0.8229E-02  0.8231E-02  0.8229E-02  0.0000E+00  0.0000E+00  0.0000E+00  0.0000E+00  0.0000E+00  0.0000E+00  0.0000E+00  0.0000E+00  0.0000E+00  0.0000E+00
      8.188  0.1613E-01  0.1618E-01  0.8082E-02  0.8093E-02  0.8082E-02  0.8093E-02  0.8082E-02  0.8093E-02  0.0000E+00  0.0000E+00  0.0000E+00  0.0000E+00  0.0000E+00  0.0000E+00  0.0000E+00  0.0000E+00  0.0000E+00  0.0000E+00
      8.603  0.2247E-01  0.2252E-01  0.1019E-01  0.1020E-01  0.1019E-01  0.1020E-01  0.1019E-01  0.1020E-01  0.0000E+00  0.0000E+00  0.0000E+00  0.0000E+00  0.0000E+00  0.0000E+00  0.0000E+00  0.0000E+00  0.0000E+00  0.0000E+00
      9.017  0.2176E-01  0.2177E-01  0.1094E-01  0.1095E-01  0.1094E-01  0.1095E-01  0.1094E-01  0.1095E-01  0.0000E+00  0.0000E+00  0.0000E+00  0.0000E+00  0.0000E+00  0.0000E+00  0.0000E+00  0.0000E+00  0.0000E+00  0.0000E+00
      9.432  0.1990E-01  0.1987E-01  0.1038E-01  0.1038E-01  0.1038E-01  0.1038E-01  0.1038E-01  0.1038E-01  0.0000E+00  0.0000E+00  0.0000E+00  0.0000E+00  0.0000E+00  0.0000E+00  0.0000E+00  0.0000E+00  0.0000E+00  0.0000E+00
      9.846  0.1944E-01  0.1947E-01  0.1011E-01  0.1012E-01  0.1011E-01  0.1012E-01  0.1011E-01  0.1012E-01  0.0000E+00  0.0000E+00  0.0000E+00  0.0000E+00  0.0000E+00  0.0000E+00  0.0000E+00  0.0000E+00  0.0000E+00  0.0000E+00
     10.261  0.2244E-01  0.2248E-01  0.1072E-01  0.1073E-01  0.1072E-01  0.1073E-01  0.1072E-01  0.1073E-01  0.0000E+00  0.0000E+00  0.0000E+00  0.0000E+00  0.0000E+00  0.0000E+00  0.0000E+00  0.0000E+00  0.0000E+00  0.0000E+00
     10.675  0.2522E-01  0.2522E-01  0.1163E-01  0.1164E-01  0.1163E-01  0.1164E-01  0.1163E-01  0.1164E-01  0.0000E+00  0.0000E+00  0.0000E+00  0.0000E+00  0.0000E+00  0.0000E+00  0.0000E+00  0.0000E+00  0.0000E+00  0.0000E+00
     11.090  0.2242E-01  0.2242E-01  0.1198E-01  0.1199E-01  0.1198E-01  0.1199E-01  0.1198E-01  0.1199E-01  0.0000E+00  0.0000E+00  0.0000E+00  0.0000E+00  0.0000E+00  0.0000E+00  0.0000E+00  0.0000E+00  0.0000E+00  0.0000E+00
     11.504  0.2255E-01  0.2256E-01  0.1249E-01  0.1251E-01  0.1249E-01  0.1251E-01  0.1249E-01  0.1251E-01  0.0000E+00  0.0000E+00  0.0000E+00  0.0000E+00  0.0000E+00  0.0000E+00  0.0000E+00  0.0000E+00  0.0000E+00  0.0000E+00
     11.919  0.2293E-01  0.2294E-01  0.1307E-01  0.1308E-01  0.1307E-01  0.1308E-01  0.1307E-01  0.1308E-01  0.0000E+00  0.0000E+00  0.0000E+00  0.0000E+00  0.0000E+00  0.0000E+00  0.0000E+00  0.0000E+00  0.0000E+00  0.0000E+00