<?xml version="1.0" encoding="ISO-8859-1"?>
<modeling>
 <generator>
  <i name="program" type="string">vasp </i>
  <i name="version" type="string">6.2.1  </i>
  <i name="subversion" type="string">16May21 (build Aug 15 2022 14:47:30) complex                          parallel </i>
  <i name="platform" type="string">LinuxGNU </i>
  <i name="date" type="string">2025 12 11 </i>
  <i name="time" type="string">13:46:06 </i>
 </generator>
 <incar>
  <i type="string" name="PREC">Accurate</i>
  <i type="string" name="ALGO">Fast</i>
  <i type="int" name="ISPIN">     2</i>
  <i type="int" name="NELM">   100</i>
  <i name="EDIFF">      0.00005000</i>
  <i type="int" name="NSW">     0</i>
  <i name="ENCUT">    520.00000000</i>
  <v name="MAGMOM">      0.60000000</v>
  <i type="logical" name="LREAL"> F  </i>
  <i type="int" name="ISMEAR">    -5</i>
  <i name="SIGMA">      0.05000000</i>
  <i type="logical" name="LWAVE"> F  </i>
  <i type="logical" name="LCHARG"> T  </i>
  <i type="int" name="LORBIT">    11</i>
  <i type="logical" name="LASPH"> T  </i>
 </incar>
 <primitive_cell>
  <structure name="primitive_cell" >
   <crystal>
    <varray name="basis" >
     <v>       0.00000000       2.02400000       2.02400000 </v>
     <v>       2.02400000       0.00000000       2.02400000 </v>
     <v>       2.02400000       2.02400000       0.00000000 </v>
    </varray>
    <i name="volume">     16.58293965 </i>
    <varray name="rec_basis" >
     <v>      -0.24703557       0.24703557       0.24703557 </v>
     <v>       0.24703557      -0.24703557       0.24703557 </v>
     <v>       0.24703557       0.24703557      -0.24703557 </v>
    </varray>
   </crystal>
   <varray name="positions" >
    <v>       0.00000000       0.00000000       0.00000000 </v>
   </varray>
  </structure>
  <varray name="primitive_index" >
   <v type="int" >        1 </v>
  </varray>
 </primitive_cell>
 <kpoints>
  <generation param="Gamma">
   <v type="int" name="divisions">      12       12       12 </v>
   <v name="usershift">      0.00000000       0.00000000       0.00000000 </v>
   <v name="genvec1">      0.08333333       0.00000000       0.00000000 </v>
   <v name="genvec2">      0.00000000       0.08333333       0.00000000 </v>
   <v name="genvec3">      0.00000000       0.00000000       0.08333333 </v>
   <v name="shift">      0.00000000       0.00000000       0.00000000 </v>
  </generation>
  <varray name="kpointlist" >
   <v>       0.00000000       0.00000000       0.00000000 </v>
   <v>       0.08333333       0.00000000       0.00000000 </v>
   <v>       0.16666667       0.00000000       0.00000000 </v>
   <v>       0.25000000       0.00000000       0.00000000 </v>
   <v>       0.33333333       0.00000000       0.00000000 </v>
   <v>       0.41666667       0.00000000       0.00000000 </v>
   <v>       0.50000000       0.00000000       0.00000000 </v>
   <v>       0.08333333       0.08333333       0.00000000 </v>
   <v>       0.16666667       0.08333333       0.00000000 </v>
   <v>       0.25000000       0.08333333       0.00000000 </v>
   <v>       0.33333333       0.08333333       0.00000000 </v>
   <v>       0.41666667       0.08333333       0.00000000 </v>
   <v>       0.50000000       0.08333333       0.00000000 </v>
   <v>      -0.41666667       0.08333333       0.00000000 </v>
   <v>      -0.33333333       0.08333333       0.00000000 </v>
   <v>      -0.25000000       0.08333333       0.00000000 </v>
   <v>      -0.16666667       0.08333333       0.00000000 </v>
   <v>      -0.08333333       0.08333333       0.00000000 </v>
   <v>       0.16666667       0.16666667       0.00000000 </v>
   <v>       0.25000000       0.16666667       0.00000000 </v>
   <v>       0.33333333       0.16666667       0.00000000 </v>
   <v>       0.41666667       0.16666667       0.00000000 </v>
   <v>       0.50000000       0.16666667       0.00000000 </v>
   <v>      -0.41666667       0.16666667       0.00000000 </v>
   <v>      -0.33333333       0.16666667       0.00000000 </v>
   <v>      -0.25000000       0.16666667       0.00000000 </v>
   <v>      -0.16666667       0.16666667       0.00000000 </v>
   <v>       0.25000000       0.25000000       0.00000000 </v>
   <v>       0.33333333       0.25000000       0.00000000 </v>
   <v>       0.41666667       0.25000000       0.00000000 </v>
   <v>       0.50000000       0.25000000       0.00000000 </v>
   <v>      -0.41666667       0.25000000       0.00000000 </v>
   <v>      -0.33333333       0.25000000       0.00000000 </v>
   <v>      -0.25000000       0.25000000       0.00000000 </v>
   <v>       0.33333333       0.33333333       0.00000000 </v>
   <v>       0.41666667       0.33333333       0.00000000 </v>
   <v>       0.50000000       0.33333333       0.00000000 </v>
   <v>      -0.41666667       0.33333333       0.00000000 </v>
   <v>      -0.33333333       0.33333333       0.00000000 </v>
   <v>       0.41666667       0.41666667       0.00000000 </v>
   <v>       0.50000000       0.41666667       0.00000000 </v>
   <v>      -0.41666667       0.41666667       0.00000000 </v>
   <v>       0.50000000       0.50000000       0.00000000 </v>
   <v>       0.25000000       0.16666667       0.08333333 </v>
   <v>       0.33333333       0.16666667       0.08333333 </v>
   <v>       0.41666667       0.16666667       0.08333333 </v>
   <v>       0.50000000       0.16666667       0.08333333 </v>
   <v>      -0.41666667       0.16666667       0.08333333 </v>
   <v>       0.33333333       0.25000000       0.08333333 </v>
   <v>       0.41666667       0.25000000       0.08333333 </v>
   <v>       0.50000000       0.25000000       0.08333333 </v>
   <v>      -0.41666667       0.25000000       0.08333333 </v>
   <v>      -0.33333333       0.25000000       0.08333333 </v>
   <v>      -0.25000000       0.25000000       0.08333333 </v>
   <v>      -0.16666667       0.25000000       0.08333333 </v>
   <v>       0.41666667       0.33333333       0.08333333 </v>
   <v>       0.50000000       0.33333333       0.08333333 </v>
   <v>      -0.41666667       0.33333333       0.08333333 </v>
   <v>      -0.33333333       0.33333333       0.08333333 </v>
   <v>      -0.25000000       0.33333333       0.08333333 </v>
   <v>       0.50000000       0.41666667       0.08333333 </v>
   <v>      -0.41666667       0.41666667       0.08333333 </v>
   <v>      -0.33333333       0.41666667       0.08333333 </v>
   <v>      -0.41666667       0.50000000       0.08333333 </v>
   <v>       0.50000000       0.33333333       0.16666667 </v>
   <v>      -0.41666667       0.33333333       0.16666667 </v>
   <v>      -0.33333333       0.33333333       0.16666667 </v>
   <v>      -0.41666667       0.41666667       0.16666667 </v>
   <v>      -0.33333333       0.41666667       0.16666667 </v>
   <v>      -0.25000000       0.41666667       0.16666667 </v>
   <v>      -0.33333333       0.50000000       0.16666667 </v>
   <v>      -0.25000000       0.50000000       0.25000000 </v>
  </varray>
  <varray name="weights" >
   <v>       0.00057870 </v>
   <v>       0.00462963 </v>
   <v>       0.00462963 </v>
   <v>       0.00462963 </v>
   <v>       0.00462963 </v>
   <v>       0.00462963 </v>
   <v>       0.00231481 </v>
   <v>       0.00347222 </v>
   <v>       0.01388889 </v>
   <v>       0.01388889 </v>
   <v>       0.01388889 </v>
   <v>       0.01388889 </v>
   <v>       0.01388889 </v>
   <v>       0.01388889 </v>
   <v>       0.01388889 </v>
   <v>       0.01388889 </v>
   <v>       0.01388889 </v>
   <v>       0.00694444 </v>
   <v>       0.00347222 </v>
   <v>       0.01388889 </v>
   <v>       0.01388889 </v>
   <v>       0.01388889 </v>
   <v>       0.01388889 </v>
   <v>       0.01388889 </v>
   <v>       0.01388889 </v>
   <v>       0.01388889 </v>
   <v>       0.00694444 </v>
   <v>       0.00347222 </v>
   <v>       0.01388889 </v>
   <v>       0.01388889 </v>
   <v>       0.01388889 </v>
   <v>       0.01388889 </v>
   <v>       0.01388889 </v>
   <v>       0.00694444 </v>
   <v>       0.00347222 </v>
   <v>       0.01388889 </v>
   <v>       0.01388889 </v>
   <v>       0.01388889 </v>
   <v>       0.00694444 </v>
   <v>       0.00347222 </v>
   <v>       0.01388889 </v>
   <v>       0.00694444 </v>
   <v>       0.00173611 </v>
   <v>       0.01388889 </v>
   <v>       0.02777778 </v>
   <v>       0.02777778 </v>
   <v>       0.02777778 </v>
   <v>       0.01388889 </v>
   <v>       0.01388889 </v>
   <v>       0.02777778 </v>
   <v>       0.02777778 </v>
   <v>       0.02777778 </v>
   <v>       0.02777778 </v>
   <v>       0.02777778 </v>
   <v>       0.01388889 </v>
   <v>       0.01388889 </v>
   <v>       0.02777778 </v>
   <v>       0.02777778 </v>
   <v>       0.02777778 </v>
   <v>       0.01388889 </v>
   <v>       0.01388889 </v>
   <v>       0.02777778 </v>
   <v>       0.01388889 </v>
   <v>       0.00694444 </v>
   <v>       0.01388889 </v>
   <v>       0.02777778 </v>
   <v>       0.01388889 </v>
   <v>       0.01388889 </v>
   <v>       0.02777778 </v>
   <v>       0.01388889 </v>
   <v>       0.00694444 </v>
   <v>       0.00347222 </v>
  </varray>
  <varray name="tetrahedronlist"  type="int" >
   <v type="int" >       24        1        2        2        8 </v>
   <v type="int" >       48        2        8        9       18 </v>
   <v type="int" >       48        2        3        9       18 </v>
   <v type="int" >       24        2        2        8       18 </v>
   <v type="int" >       48        3        9       10       17 </v>
   <v type="int" >       48        3        4       10       17 </v>
   <v type="int" >       48        3        9       17       18 </v>
   <v type="int" >       48        4       10       11       16 </v>
   <v type="int" >       48        4        5       11       16 </v>
   <v type="int" >       48        4       10       16       17 </v>
   <v type="int" >       48        5       11       12       15 </v>
   <v type="int" >       48        5        6       12       15 </v>
   <v type="int" >       48        5       11       15       16 </v>
   <v type="int" >       48        6       12       13       14 </v>
   <v type="int" >       48        6        7       13       14 </v>
   <v type="int" >       48        6       12       14       15 </v>
   <v type="int" >       48        7       13       13       14 </v>
   <v type="int" >       24        8        9        9       19 </v>
   <v type="int" >       24        8        9        9       18 </v>
   <v type="int" >       48        9       19       20       44 </v>
   <v type="int" >       48        9       10       20       44 </v>
   <v type="int" >       48        9       10       17       44 </v>
   <v type="int" >       24        9        9       19       44 </v>
   <v type="int" >       24        9        9       18       44 </v>
   <v type="int" >       48        9       17       18       44 </v>
   <v type="int" >       48       10       20       21       45 </v>
   <v type="int" >       48       10       11       21       45 </v>
   <v type="int" >       48       10       11       16       45 </v>
   <v type="int" >       48       10       20       44       45 </v>
   <v type="int" >       48       10       17       44       45 </v>
   <v type="int" >       48       10       16       17       45 </v>
   <v type="int" >       48       11       21       22       46 </v>
   <v type="int" >       48       11       12       22       46 </v>
   <v type="int" >       48       11       12       15       46 </v>
   <v type="int" >       48       11       21       45       46 </v>
   <v type="int" >       48       11       16       45       46 </v>
   <v type="int" >       48       11       15       16       46 </v>
   <v type="int" >       48       12       22       23       47 </v>
   <v type="int" >       48       12       13       23       47 </v>
   <v type="int" >       48       12       13       14       47 </v>
   <v type="int" >       48       12       22       46       47 </v>
   <v type="int" >       48       12       15       46       47 </v>
   <v type="int" >       48       12       14       15       47 </v>
   <v type="int" >       48       13       23       24       48 </v>
   <v type="int" >       48       13       14       24       48 </v>
   <v type="int" >       48       13       13       14       48 </v>
   <v type="int" >       48       13       23       47       48 </v>
   <v type="int" >       48       13       14       47       48 </v>
   <v type="int" >       48       14       24       25       47 </v>
   <v type="int" >       48       14       15       25       47 </v>
   <v type="int" >       48       14       24       47       48 </v>
   <v type="int" >       48       15       25       26       46 </v>
   <v type="int" >       48       15       16       26       46 </v>
   <v type="int" >       48       15       25       46       47 </v>
   <v type="int" >       48       16       26       27       45 </v>
   <v type="int" >       48       16       17       27       45 </v>
   <v type="int" >       48       16       26       45       46 </v>
   <v type="int" >       24       17       17       27       44 </v>
   <v type="int" >       24       17       17       18       44 </v>
   <v type="int" >       48       17       27       44       45 </v>
   <v type="int" >       24       19       20       20       28 </v>
   <v type="int" >       24       19       20       20       44 </v>
   <v type="int" >       48       20       28       29       49 </v>
   <v type="int" >       48       20       21       29       49 </v>
   <v type="int" >       48       20       21       45       49 </v>
   <v type="int" >       24       20       20       28       49 </v>
   <v type="int" >       24       20       20       44       49 </v>
   <v type="int" >       48       20       44       45       49 </v>
   <v type="int" >       48       21       29       30       50 </v>
   <v type="int" >       48       21       22       30       50 </v>
   <v type="int" >       48       21       22       46       50 </v>
   <v type="int" >       48       21       29       49       50 </v>
   <v type="int" >       48       21       45       49       50 </v>
   <v type="int" >       48       21       45       46       50 </v>
   <v type="int" >       48       22       30       31       51 </v>
   <v type="int" >       48       22       23       31       51 </v>
   <v type="int" >       48       22       23       47       51 </v>
   <v type="int" >       48       22       30       50       51 </v>
   <v type="int" >       48       22       46       50       51 </v>
   <v type="int" >       48       22       46       47       51 </v>
   <v type="int" >       48       23       31       32       52 </v>
   <v type="int" >       48       23       24       32       52 </v>
   <v type="int" >       48       23       24       48       52 </v>
   <v type="int" >       48       23       31       51       52 </v>
   <v type="int" >       48       23       47       51       52 </v>
   <v type="int" >       48       23       47       48       52 </v>
   <v type="int" >       48       24       32       33       53 </v>
   <v type="int" >       48       24       25       33       53 </v>
   <v type="int" >       48       24       25       47       53 </v>
   <v type="int" >       48       24       32       52       53 </v>
   <v type="int" >       48       24       48       52       53 </v>
   <v type="int" >       48       24       47       48       53 </v>
   <v type="int" >       48       25       33       34       54 </v>
   <v type="int" >       48       25       26       34       54 </v>
   <v type="int" >       48       25       26       46       54 </v>
   <v type="int" >       48       25       33       53       54 </v>
   <v type="int" >       48       25       47       53       54 </v>
   <v type="int" >       48       25       46       47       54 </v>
   <v type="int" >       24       26       26       34       55 </v>
   <v type="int" >       24       26       26       27       55 </v>
   <v type="int" >       48       26       27       45       55 </v>
   <v type="int" >       48       26       34       54       55 </v>
   <v type="int" >       48       26       46       54       55 </v>
   <v type="int" >       48       26       45       46       55 </v>
   <v type="int" >       24       27       45       45       55 </v>
   <v type="int" >       24       27       44       45       45 </v>
   <v type="int" >       24       28       29       29       35 </v>
   <v type="int" >       24       28       29       29       49 </v>
   <v type="int" >       48       29       35       36       56 </v>
   <v type="int" >       48       29       30       36       56 </v>
   <v type="int" >       48       29       30       50       56 </v>
   <v type="int" >       24       29       29       35       56 </v>
   <v type="int" >       24       29       29       49       56 </v>
   <v type="int" >       48       29       49       50       56 </v>
   <v type="int" >       48       30       36       37       57 </v>
   <v type="int" >       48       30       31       37       57 </v>
   <v type="int" >       48       30       31       51       57 </v>
   <v type="int" >       48       30       36       56       57 </v>
   <v type="int" >       48       30       50       56       57 </v>
   <v type="int" >       48       30       50       51       57 </v>
   <v type="int" >       48       31       37       38       58 </v>
   <v type="int" >       48       31       32       38       58 </v>
   <v type="int" >       48       31       32       52       58 </v>
   <v type="int" >       48       31       37       57       58 </v>
   <v type="int" >       48       31       51       57       58 </v>
   <v type="int" >       48       31       51       52       58 </v>
   <v type="int" >       48       32       38       39       59 </v>
   <v type="int" >       48       32       33       39       59 </v>
   <v type="int" >       48       32       33       53       59 </v>
   <v type="int" >       48       32       38       58       59 </v>
   <v type="int" >       48       32       52       58       59 </v>
   <v type="int" >       48       32       52       53       59 </v>
   <v type="int" >       24       33       33       39       60 </v>
   <v type="int" >       24       33       33       34       60 </v>
   <v type="int" >       48       33       34       54       60 </v>
   <v type="int" >       48       33       39       59       60 </v>
   <v type="int" >       48       33       53       59       60 </v>
   <v type="int" >       48       33       53       54       60 </v>
   <v type="int" >       24       34       54       54       60 </v>
   <v type="int" >       24       34       54       54       55 </v>
   <v type="int" >       24       35       36       36       40 </v>
   <v type="int" >       24       35       36       36       56 </v>
   <v type="int" >       48       36       40       41       61 </v>
   <v type="int" >       48       36       37       41       61 </v>
   <v type="int" >       48       36       37       57       61 </v>
   <v type="int" >       24       36       36       40       61 </v>
   <v type="int" >       24       36       36       56       61 </v>
   <v type="int" >       48       36       56       57       61 </v>
   <v type="int" >       48       37       41       42       62 </v>
   <v type="int" >       48       37       38       42       62 </v>
   <v type="int" >       48       37       38       58       62 </v>
   <v type="int" >       48       37       41       61       62 </v>
   <v type="int" >       48       37       57       61       62 </v>
   <v type="int" >       48       37       57       58       62 </v>
   <v type="int" >       24       38       38       42       63 </v>
   <v type="int" >       24       38       38       39       63 </v>
   <v type="int" >       48       38       39       59       63 </v>
   <v type="int" >       48       38       42       62       63 </v>
   <v type="int" >       48       38       58       62       63 </v>
   <v type="int" >       48       38       58       59       63 </v>
   <v type="int" >       24       39       59       59       63 </v>
   <v type="int" >       24       39       59       59       60 </v>
   <v type="int" >       24       40       41       41       43 </v>
   <v type="int" >       24       40       41       41       61 </v>
   <v type="int" >       48       41       41       43       64 </v>
   <v type="int" >       24       41       41       42       64 </v>
   <v type="int" >       48       41       42       62       64 </v>
   <v type="int" >       24       41       41       61       64 </v>
   <v type="int" >       48       41       61       62       64 </v>
   <v type="int" >       24       42       62       62       64 </v>
   <v type="int" >       24       42       62       62       63 </v>
   <v type="int" >       24       44       45       45       49 </v>
   <v type="int" >       48       45       49       50       55 </v>
   <v type="int" >       48       45       46       50       55 </v>
   <v type="int" >       24       45       45       49       55 </v>
   <v type="int" >       48       46       50       51       54 </v>
   <v type="int" >       48       46       47       51       54 </v>
   <v type="int" >       48       46       50       54       55 </v>
   <v type="int" >       48       47       51       52       53 </v>
   <v type="int" >       48       47       48       52       53 </v>
   <v type="int" >       48       47       51       53       54 </v>
   <v type="int" >       48       48       52       52       53 </v>
   <v type="int" >       24       49       50       50       56 </v>
   <v type="int" >       24       49       50       50       55 </v>
   <v type="int" >       48       50       56       57       65 </v>
   <v type="int" >       48       50       51       57       65 </v>
   <v type="int" >       48       50       51       54       65 </v>
   <v type="int" >       24       50       50       56       65 </v>
   <v type="int" >       24       50       50       55       65 </v>
   <v type="int" >       48       50       54       55       65 </v>
   <v type="int" >       48       51       57       58       66 </v>
   <v type="int" >       48       51       52       58       66 </v>
   <v type="int" >       48       51       52       53       66 </v>
   <v type="int" >       48       51       57       65       66 </v>
   <v type="int" >       48       51       54       65       66 </v>
   <v type="int" >       48       51       53       54       66 </v>
   <v type="int" >       48       52       58       59       67 </v>
   <v type="int" >       48       52       53       59       67 </v>
   <v type="int" >       48       52       52       53       67 </v>
   <v type="int" >       48       52       58       66       67 </v>
   <v type="int" >       48       52       53       66       67 </v>
   <v type="int" >       48       53       59       60       66 </v>
   <v type="int" >       48       53       54       60       66 </v>
   <v type="int" >       48       53       59       66       67 </v>
   <v type="int" >       24       54       54       60       65 </v>
   <v type="int" >       24       54       54       55       65 </v>
   <v type="int" >       48       54       60       65       66 </v>
   <v type="int" >       24       56       57       57       61 </v>
   <v type="int" >       24       56       57       57       65 </v>
   <v type="int" >       48       57       61       62       68 </v>
   <v type="int" >       48       57       58       62       68 </v>
   <v type="int" >       48       57       58       66       68 </v>
   <v type="int" >       24       57       57       61       68 </v>
   <v type="int" >       24       57       57       65       68 </v>
   <v type="int" >       48       57       65       66       68 </v>
   <v type="int" >       48       58       62       63       69 </v>
   <v type="int" >       48       58       59       63       69 </v>
   <v type="int" >       48       58       59       67       69 </v>
   <v type="int" >       48       58       62       68       69 </v>
   <v type="int" >       48       58       66       68       69 </v>
   <v type="int" >       48       58       66       67       69 </v>
   <v type="int" >       24       59       59       63       70 </v>
   <v type="int" >       24       59       59       60       70 </v>
   <v type="int" >       48       59       60       66       70 </v>
   <v type="int" >       48       59       63       69       70 </v>
   <v type="int" >       48       59       67       69       70 </v>
   <v type="int" >       48       59       66       67       70 </v>
   <v type="int" >       24       60       66       66       70 </v>
   <v type="int" >       24       60       65       66       66 </v>
   <v type="int" >       24       61       62       62       64 </v>
   <v type="int" >       24       61       62       62       68 </v>
   <v type="int" >       48       62       62       64       71 </v>
   <v type="int" >       24       62       62       63       71 </v>
   <v type="int" >       48       62       63       69       71 </v>
   <v type="int" >       24       62       62       68       71 </v>
   <v type="int" >       48       62       68       69       71 </v>
   <v type="int" >       24       63       69       69       71 </v>
   <v type="int" >       24       63       69       69       70 </v>
   <v type="int" >       24       65       66       66       68 </v>
   <v type="int" >       48       66       68       69       70 </v>
   <v type="int" >       48       66       67       69       70 </v>
   <v type="int" >       24       66       66       68       70 </v>
   <v type="int" >       48       67       69       69       70 </v>
   <v type="int" >       24       68       69       69       71 </v>
   <v type="int" >       24       68       69       69       70 </v>
   <v type="int" >       48       69       69       71       72 </v>
   <v type="int" >       96       69       69       70       72 </v>
  </varray>
  <i name="volumeweight">      0.00009645 </i>
 </kpoints>
 <parameters>
  <separator name="general" >
   <i type="string" name="SYSTEM">unknown system</i>
   <i type="logical" name="LCOMPAT"> F  </i>
  </separator>
  <separator name="electronic" >
   <i type="string" name="PREC">accura</i>
   <i name="ENMAX">    520.00000000</i>
   <i name="ENAUG">    291.05200000</i>
   <i name="EDIFF">      0.00005000</i>
   <i type="int" name="IALGO">    68</i>
   <i type="int" name="IWAVPR">    10</i>
   <i type="int" name="NBANDS">    48</i>
   <i type="int" name="NBANDSLOW">    -1</i>
   <i type="int" name="NBANDSHIGH">    -1</i>
   <i name="NELECT">      3.00000000</i>
   <i type="int" name="TURBO">     0</i>
   <i type="int" name="IRESTART">     0</i>
   <i type="int" name="NREBOOT">     0</i>
   <i type="int" name="NMIN">     0</i>
   <i name="EREF">      0.00000000</i>
   <separator name="electronic smearing" >
    <i type="int" name="ISMEAR">    -5</i>
    <i name="SIGMA">      0.05000000</i>
    <i name="KSPACING">      0.50000000</i>
    <i type="logical" name="KGAMMA"> T  </i>
    <i type="logical" name="KBLOWUP"> T  </i>
   </separator>
   <separator name="electronic projectors" >
    <i type="logical" name="LREAL"> F  </i>
    <v name="ROPT">      0.00000000</v>
    <i type="int" name="LMAXPAW">  -100</i>
    <i type="int" name="LMAXMIX">     2</i>
    <i type="logical" name="NLSPLINE"> F  </i>
   </separator>
   <separator name="electronic startup" >
    <i type="int" name="ISTART">     0</i>
    <i type="int" name="ICHARG">     2</i>
    <i type="int" name="INIWAV">     1</i>
   </separator>
   <separator name="electronic spin" >
    <i type="int" name="ISPIN">     2</i>
    <i type="logical" name="LNONCOLLINEAR"> F  </i>
    <v name="MAGMOM">      0.60000000</v>
    <i name="NUPDOWN">     -1.00000000</i>
    <i type="logical" name="LSORBIT"> F  </i>
    <v name="SAXIS">      0.00000000      0.00000000      1.00000000</v>
    <i type="logical" name="LSPIRAL"> F  </i>
    <v name="QSPIRAL">      0.00000000      0.00000000      0.00000000</v>
    <i type="logical" name="LZEROZ"> F  </i>
   </separator>
   <separator name="electronic exchange-correlation" >
    <i type="logical" name="LASPH"> T  </i>
    <i type="logical" name="LMETAGGA"> F  </i>
   </separator>
   <separator name="electronic convergence" >
    <i type="int" name="NELM">   100</i>
    <i type="int" name="NELMDL">    -5</i>
    <i type="int" name="NELMIN">     2</i>
    <i name="ENINI">    520.00000000</i>
    <separator name="electronic convergence detail" >
     <i type="logical" name="LDIAG"> T  </i>
     <i type="logical" name="LSUBROT"> F  </i>
     <i name="WEIMIN">      0.00000000</i>
     <i name="EBREAK">      0.00000026</i>
     <i name="DEPER">      0.30000000</i>
     <i type="int" name="NRMM">     4</i>
     <i name="TIME">      0.40000000</i>
    </separator>
   </separator>
   <separator name="electronic mixer" >
    <i name="AMIX">      0.40000000</i>
    <i name="BMIX">      1.00000000</i>
    <i name="AMIN">      0.10000000</i>
    <i name="AMIX_MAG">      1.60000000</i>
    <i name="BMIX_MAG">      1.00000000</i>
    <separator name="electronic mixer details" >
     <i type="int" name="IMIX">     4</i>
     <i type="logical" name="MIXFIRST"> F  </i>
     <i type="int" name="MAXMIX">   -45</i>
     <i name="WC">    100.00000000</i>
     <i type="int" name="INIMIX">     1</i>
     <i type="int" name="MIXPRE">     1</i>
     <i type="int" name="MREMOVE">     5</i>
    </separator>
   </separator>
   <separator name="electronic dipolcorrection" >
    <i type="logical" name="LDIPOL"> F  </i>
    <i type="logical" name="LMONO"> F  </i>
    <i type="int" name="IDIPOL">     0</i>
    <i name="EPSILON">      1.00000000</i>
    <v name="DIPOL">   -100.00000000   -100.00000000   -100.00000000</v>
    <i name="EFIELD">      0.00000000</i>
   </separator>
  </separator>
  <separator name="grids" >
   <i type="int" name="NGX">    24</i>
   <i type="int" name="NGY">    24</i>
   <i type="int" name="NGZ">    24</i>
   <i type="int" name="NGXF">    48</i>
   <i type="int" name="NGYF">    48</i>
   <i type="int" name="NGZF">    48</i>
   <i type="logical" name="ADDGRID"> F  </i>
  </separator>
  <separator name="ionic" >
   <i type="int" name="NSW">     0</i>
   <i type="int" name="IBRION">    -1</i>
   <i type="int" name="MDALGO">     0</i>
   <i type="int" name="ISIF">     2</i>
   <i name="PSTRESS">      0.00000000</i>
   <i name="EDIFFG">      0.00050000</i>
   <i type="int" name="NFREE">     0</i>
   <i name="POTIM">      0.50000000</i>
   <i name="SMASS">     -3.00000000</i>
   <i name="SCALEE">      1.00000000</i>
  </separator>
  <separator name="ionic md" >
   <i name="TEBEG">      0.00010000</i>
   <i name="TEEND">      0.00010000</i>
   <i type="int" name="NBLOCK">     1</i>
   <i type="int" name="KBLOCK">     1</i>
   <i type="int" name="NPACO">   256</i>
   <i name="APACO">     16.00000000</i>
  </separator>
  <separator name="symmetry" >
   <i type="int" name="ISYM">     2</i>
   <i name="SYMPREC">      0.00001000</i>
  </separator>
  <separator name="dos" >
   <i type="int" name="LORBIT">    11</i>
   <v name="RWIGS">     -1.00000000</v>
   <i type="int" name="NEDOS">   301</i>
   <i name="EMIN">     10.00000000</i>
   <i name="EMAX">    -10.00000000</i>
   <i name="EFERMI">      0.00000000</i>
  </separator>
  <separator name="writing" >
   <i type="int" name="NWRITE">     2</i>
   <i type="logical" name="LWAVE"> F  </i>
   <i type="logical" name="LDOWNSAMPLE"> F  </i>
   <i type="logical" name="LCHARG"> T  </i>
   <i type="logical" name="LPARD"> F  </i>
   <i type="logical" name="LVTOT"> F  </i>
   <i type="logical" name="LVHAR"> F  </i>
   <i type="logical" name="LELF"> F  </i>
   <i type="logical" name="LOPTICS"> F  </i>
   <v name="STM">      0.00000000      0.00000000      0.00000000      0.00000000      0.00000000      0.00000000      0.00000000</v>
  </separator>
  <separator name="performance" >
   <i type="int" name="NPAR">    48</i>
   <i type="int" name="NSIM">     4</i>
   <i type="int" name="NBLK">    -1</i>
   <i type="logical" name="LPLANE"> T  </i>
   <i type="logical" name="LSCALAPACK"> T  </i>
   <i type="logical" name="LSCAAWARE"> T  </i>
   <i type="logical" name="LSCALU"> F  </i>
   <i type="logical" name="LASYNC"> F  </i>
   <i type="logical" name="LORBITALREAL"> F  </i>
  </separator>
  <separator name="miscellaneous" >
   <i type="int" name="IDIOT">     3</i>
   <i type="int" name="PHON_NSTRUCT">    -1</i>
   <i type="logical" name="LMUSIC"> F  </i>
   <v name="POMASS">     26.98100000</v>
   <v name="DARWINR">      0.00000000</v>
   <v name="DARWINV">      1.00000000</v>
   <i type="logical" name="LCORR"> T  </i>
  </separator>
  <i type="logical" name="GGA_COMPAT"> T  </i>
  <i type="logical" name="LBERRY"> F  </i>
  <i type="int" name="ICORELEVEL">     0</i>
  <i type="logical" name="LDAU"> F  </i>
  <i type="int" name="I_CONSTRAINED_M">     0</i>
  <separator name="electronic exchange-correlation" >
   <i type="string" name="GGA">--</i>
   <i type="int" name="VOSKOWN">     0</i>
   <i type="logical" name="LHFCALC"> F  </i>
   <i type="string" name="PRECFOCK"></i>
   <i type="logical" name="LSYMGRAD"> F  </i>
   <i type="logical" name="LHFONE"> F  </i>
   <i type="logical" name="LRHFCALC"> F  </i>
   <i type="logical" name="LTHOMAS"> F  </i>
   <i type="logical" name="LMODELHF"> F  </i>
   <i type="logical" name="LFOCKACE"> F  </i>
   <i name="ENCUT4O">     -1.00000000</i>
   <i type="int" name="EXXOEP">     0</i>
   <i type="int" name="FOURORBIT">     0</i>
   <i name="AEXX">      0.00000000</i>
   <i name="HFALPHA">      0.00000000</i>
   <i name="MCALPHA">      0.00000000</i>
   <i name="ALDAX">      1.00000000</i>
   <i name="AGGAX">      1.00000000</i>
   <i name="ALDAC">      1.00000000</i>
   <i name="AGGAC">      1.00000000</i>
   <i type="int" name="NKREDX">     1</i>
   <i type="int" name="NKREDY">     1</i>
   <i type="int" name="NKREDZ">     1</i>
   <i type="logical" name="SHIFTRED"> F  </i>
   <i type="logical" name="ODDONLY"> F  </i>
   <i type="logical" name="EVENONLY"> F  </i>
   <i type="int" name="LMAXFOCK">     0</i>
   <i type="int" name="NMAXFOCKAE">     0</i>
   <i type="logical" name="LFOCKAEDFT"> F  </i>
   <i name="HFSCREEN">      0.00000000</i>
   <i name="HFSCREENC">      0.00000000</i>
   <i type="int" name="NBANDSGWLOW">     0</i>
  </separator>
  <separator name="vdW DFT" >
   <i type="logical" name="LUSE_VDW"> F  </i>
   <i name="Zab_VDW">     -0.84910000</i>
   <i name="PARAM1">      0.12340000</i>
   <i name="PARAM2">      1.00000000</i>
   <i name="PARAM3">      0.00000000</i>
  </separator>
  <separator name="model GW" >
   <i type="int" name="MODEL_GW">     0</i>
   <i name="MODEL_EPS0">      9.94976379</i>
   <i name="MODEL_ALPHA">      1.00000000</i>
  </separator>
  <separator name="linear response parameters" >
   <i type="logical" name="LEPSILON"> F  </i>
   <i type="logical" name="LRPA"> F  </i>
   <i type="logical" name="LNABLA"> F  </i>
   <i type="logical" name="LVEL"> F  </i>
   <i type="int" name="KINTER">     0</i>
   <i name="CSHIFT">      0.10000000</i>
   <i name="OMEGAMAX">     -1.00000000</i>
   <i name="DEG_THRESHOLD">      0.00200000</i>
   <i name="RTIME">     -0.10000000</i>
   <i name="WPLASMAI">      0.00000000</i>
   <v name="DFIELD">      0.00000000      0.00000000      0.00000000</v>
   <v name="WPLASMA">      0.00000000      0.00000000      0.00000000      0.00000000      0.00000000      0.00000000      0.00000000      0.00000000      0.00000000</v>
  </separator>
  <separator name="orbital magnetization" >
   <i type="logical" name="NUCIND"> F  </i>
   <v name="MAGPOS">      0.00000000      0.00000000      0.00000000</v>
   <i type="logical" name="LNICSALL"> T  </i>
   <i type="logical" name="ORBITALMAG"> F  </i>
   <i type="logical" name="LMAGBLOCH"> F  </i>
   <i type="logical" name="LCHIMAG"> F  </i>
   <i type="logical" name="LGAUGE"> T  </i>
   <i type="int" name="MAGATOM">     0</i>
   <v name="MAGDIPOL">      0.00000000      0.00000000      0.00000000</v>
   <v name="AVECCONST">      0.00000000      0.00000000      0.00000000</v>
  </separator>
  <separator name="response functions" >
   <i type="logical" name="LFINITE_TEMPERATURE"> F  </i>
   <i type="logical" name="LADDER"> F  </i>
   <i type="logical" name="LRPAFORCE"> F  </i>
   <i type="logical" name="LFXC"> F  </i>
   <i type="logical" name="LHARTREE"> T  </i>
   <i type="int" name="IBSE">     0</i>
   <v type="int" name="KPOINT">    -1     0     0     0</v>
   <i type="logical" name="LTCTC"> F  </i>
   <i type="logical" name="LTCTE"> F  </i>
   <i type="logical" name="LTETE"> F  </i>
   <i type="logical" name="LTRIPLET"> F  </i>
   <i type="logical" name="LFXCEPS"> F  </i>
   <i type="logical" name="LFXHEG"> F  </i>
   <i type="int" name="NATURALO">     2</i>
   <i type="logical" name="LHOLEGF"> F  </i>
   <i type="logical" name="L2ORDER"> F  </i>
   <i type="logical" name="LDMP1"> F  </i>
   <i type="logical" name="LMP2LT"> F  </i>
   <i type="logical" name="LSMP2LT"> F  </i>
   <i type="logical" name="LGWLF"> F  </i>
   <i name="ENCUTGW">     -2.00000000</i>
   <i name="ENCUTGWSOFT">     -2.00000000</i>
   <i name="ENCUTLF">     -1.00000000</i>
   <i type="logical" name="LESF_SPLINES"> F  </i>
   <i type="int" name="LMAXMP2">    -1</i>
   <i name="SCISSOR">      0.00000000</i>
   <i type="int" name="NOMEGA">     0</i>
   <i type="int" name="NOMEGAR">     0</i>
   <i type="int" name="NBANDSGW">    -1</i>
   <i type="int" name="NBANDSO">    -1</i>
   <i type="int" name="NBANDSV">    -1</i>
   <i type="int" name="NELM">   100</i>
   <i type="int" name="NELMHF">     1</i>
   <i type="int" name="DIM">     3</i>
   <i type="int" name="IESPILON">     4</i>
   <i type="int" name="ANTIRES">     0</i>
   <i name="OMEGAMAX">    -30.00000000</i>
   <i name="OMEGAMIN">    -30.00000000</i>
   <i name="OMEGATL">   -200.00000000</i>
   <i type="int" name="OMEGAGRID">     0</i>
   <i name="CSHIFT">     -0.10000000</i>
   <i type="logical" name="LSELFENERGY"> F  </i>
   <i type="logical" name="LSPECTRAL"> F  </i>
   <i type="logical" name="LSPECTRALGW"> F  </i>
   <i type="logical" name="LSINGLES"> F  </i>
   <i type="logical" name="LFERMIGW"> F  </i>
   <i type="logical" name="ODDONLYGW"> F  </i>
   <i type="logical" name="EVENONLYGW"> F  </i>
   <i type="int" name="NKREDLFX">     1</i>
   <i type="int" name="NKREDLFY">     1</i>
   <i type="int" name="NKREDLFZ">     1</i>
   <i type="int" name="MAXMEM">  2800</i>
   <i type="int" name="TELESCOPE">     0</i>
   <i type="int" name="NTAUPAR">    -1</i>
   <i type="int" name="NOMEGAPAR">    -1</i>
   <i name="DAMP_NEWTON">      0.80000001</i>
   <i name="LAMBDA">      1.00000000</i>
  </separator>
  <separator name="External order field" >
   <i name="OFIELD_KAPPA">      0.00000000</i>
   <v name="OFIELD_K">      0.00000000      0.00000000      0.00000000</v>
   <i name="OFIELD_Q6_NEAR">      0.00000000</i>
   <i name="OFIELD_Q6_FAR">      0.00000000</i>
   <i name="OFIELD_A">      0.00000000</i>
  </separator>
 </parameters>
 <atominfo>
  <atoms>       1 </atoms>
  <types>       1 </types>
  <array name="atoms" >
   <dimension dim="1">ion</dimension>
   <field type="string">element</field>
   <field type="int">atomtype</field>
   <set>
    <rc><c>Al</c><c>   1</c></rc>
   </set>
  </array>
  <array name="atomtypes" >
   <dimension dim="1">type</dimension>
   <field type="int">atomspertype</field>
   <field type="string">element</field>
   <field>mass</field>
   <field>valence</field>
   <field type="string">pseudopotential</field>
   <set>
    <rc><c>   1</c><c>Al</c><c>     26.98100000</c><c>      3.00000000</c><c>  PAW_PBE Al 04Jan2001                  </c></rc>
   </set>
  </array>
 </atominfo>
 <structure name="initialpos" >
  <crystal>
   <varray name="basis" >
    <v>       0.00000000       2.02400000       2.02400000 </v>
    <v>       2.02400000       0.00000000       2.02400000 </v>
    <v>       2.02400000       2.02400000       0.00000000 </v>
   </varray>
   <i name="volume">     16.58293965 </i>
   <varray name="rec_basis" >
    <v>      -0.24703557       0.24703557       0.24703557 </v>
    <v>       0.24703557      -0.24703557       0.24703557 </v>
    <v>       0.24703557       0.24703557      -0.24703557 </v>
   </varray>
  </crystal>
  <varray name="positions" >
   <v>       0.00000000       0.00000000       0.00000000 </v>
  </varray>
 </structure>
 <calculation>
  <scstep>
   <time name="dav">   10.69   10.69</time>
   <time name="total">   10.92   10.92</time>
   <energy>
    <i name="alphaZ">     -0.20254611 </i>
    <i name="ewald">    -73.39295237 </i>
    <i name="hartreedc">     -0.10329695 </i>
    <i name="XCdc">    -26.19545267 </i>
    <i name="pawpsdc">     66.16230985 </i>
    <i name="pawaedc">    -34.20858819 </i>
    <i name="eentropy">      0.00000000 </i>
    <i name="bandstr">     10.76457216 </i>
    <i name="atom">     53.53845706 </i>
    <i name="e_fr_energy">     -3.63749722 </i>
    <i name="e_wo_entrp">     -3.63749722 </i>
    <i name="e_0_energy">     -3.63749722 </i>
   </energy>
  </scstep>
  <scstep>
   <time name="dav">    9.72    9.72</time>
   <time name="total">    9.77    9.77</time>
   <energy>
    <i name="e_fr_energy">     -3.68616421 </i>
    <i name="e_wo_entrp">     -3.68616421 </i>
    <i name="e_0_energy">     -3.68616421 </i>
   </energy>
  </scstep>
  <scstep>
   <time name="dav">   13.71   13.71</time>
   <time name="total">   13.77   13.77</time>
   <energy>
    <i name="e_fr_energy">     -3.68616620 </i>
    <i name="e_wo_entrp">     -3.68616620 </i>
    <i name="e_0_energy">     -3.68616620 </i>
   </energy>
  </scstep>
  <scstep>
   <time name="dav">   15.13   15.13</time>
   <time name="total">   15.19   15.20</time>
   <energy>
    <i name="e_fr_energy">     -3.68616620 </i>
    <i name="e_wo_entrp">     -3.68616620 </i>
    <i name="e_0_energy">     -3.68616620 </i>
   </energy>
  </scstep>
  <scstep>
   <time name="dav">   13.40   13.40</time>
   <time name="total">   13.52   13.52</time>
   <energy>
    <i name="e_fr_energy">     -3.68616620 </i>
    <i name="e_wo_entrp">     -3.68616620 </i>
    <i name="e_0_energy">     -3.68616620 </i>
   </energy>
  </scstep>
  <scstep>
   <time name="diag">    0.47    0.47</time>
   <time name="diis">    0.27    0.27</time>
   <time name="orth">    0.06    0.06</time>
   <time name="total">    1.07    1.07</time>
   <energy>
    <i name="e_fr_energy">     -3.75869605 </i>
    <i name="e_wo_entrp">     -3.75869605 </i>
    <i name="e_0_energy">     -3.75869605 </i>
   </energy>
  </scstep>
  <scstep>
   <time name="diag">    0.46    0.46</time>
   <time name="diis">    0.32    0.32</time>
   <time name="orth">    0.06    0.06</time>
   <time name="total">    1.10    1.10</time>
   <energy>
    <i name="e_fr_energy">     -3.75051407 </i>
    <i name="e_wo_entrp">     -3.75051407 </i>
    <i name="e_0_energy">     -3.75051407 </i>
   </energy>
  </scstep>
  <scstep>
   <time name="diag">    0.45    0.45</time>
   <time name="diis">    0.32    0.32</time>
   <time name="orth">    0.06    0.06</time>
   <time name="total">    1.09    1.09</time>
   <energy>
    <i name="e_fr_energy">     -3.75041751 </i>
    <i name="e_wo_entrp">     -3.75041751 </i>
    <i name="e_0_energy">     -3.75041751 </i>
   </energy>
  </scstep>
  <scstep>
   <time name="diag">    0.45    0.45</time>
   <time name="diis">    0.38    0.38</time>
   <time name="orth">    0.06    0.06</time>
   <time name="total">    1.10    1.10</time>
   <energy>
    <i name="alphaZ">     -0.20254611 </i>
    <i name="ewald">    -73.39295237 </i>
    <i name="hartreedc">     -0.10449584 </i>
    <i name="XCdc">    -26.14077520 </i>
    <i name="pawpsdc">    145.51521554 </i>
    <i name="pawaedc">   -113.57052986 </i>
    <i name="eentropy">      0.00000000 </i>
    <i name="bandstr">     10.60718823 </i>
    <i name="atom">     53.53845706 </i>
    <i name="e_fr_energy">     -3.75043855 </i>
    <i name="e_wo_entrp">     -3.75043855 </i>
    <i name="e_0_energy">     -3.75043855 </i>
   </energy>
  </scstep>
  <structure>
   <crystal>
    <varray name="basis" >
     <v>       0.00000000       2.02400000       2.02400000 </v>
     <v>       2.02400000       0.00000000       2.02400000 </v>
     <v>       2.02400000       2.02400000       0.00000000 </v>
    </varray>
    <i name="volume">     16.58293965 </i>
    <varray name="rec_basis" >
     <v>      -0.24703557       0.24703557       0.24703557 </v>
     <v>       0.24703557      -0.24703557       0.24703557 </v>
     <v>       0.24703557       0.24703557      -0.24703557 </v>
    </varray>
   </crystal>
   <varray name="positions" >
    <v>       0.00000000       0.00000000       0.00000000 </v>
   </varray>
  </structure>
  <varray name="forces" >
   <v>      -0.00000000       0.00000000      -0.00000000 </v>
  </varray>
  <varray name="stress" >
   <v>      -8.68920459       0.00000000      -0.00000000 </v>
   <v>       0.00000000      -8.68920459      -0.00000000 </v>
   <v>       0.00000000       0.00000000      -8.68920459 </v>
  </varray>
  <energy>
   <i name="e_fr_energy">     -3.75043855 </i>
   <i name="e_wo_entrp">     -3.75043855 </i>
   <i name="e_0_energy">     -3.75043855 </i>
  </energy>
  <time name="totalsc">   68.25   68.26</time>
  <eigenvalues>
   <array>
    <dimension dim="1">band</dimension>
    <dimension dim="2">kpoint</dimension>
    <dimension dim="3">spin</dimension>
    <field>eigene</field>
    <field>occ</field>
    <set>
     <set comment="spin 1">
      <set comment="kpoint 1">
       <r>   -3.1513    1.0000 </r>
       <r>   20.5403    0.0000 </r>
       <r>   20.5403    0.0000 </r>
       <r>   20.5403    0.0000 </r>
       <r>   21.9950    0.0000 </r>
       <r>   21.9950    0.0000 </r>
       <r>   21.9950    0.0000 </r>
       <r>   24.3776    0.0000 </r>
       <r>   27.3148    0.0000 </r>
       <r>   27.3148    0.0000 </r>
       <r>   30.1609    0.0000 </r>
       <r>   32.5111    0.0000 </r>
       <r>   32.5111    0.0000 </r>
       <r>   32.5111    0.0000 </r>
       <r>   41.0633    0.0000 </r>
       <r>   56.0204    0.0000 </r>
       <r>   56.0204    0.0000 </r>
       <r>   56.0204    0.0000 </r>
       <r>   56.0566    0.0000 </r>
       <r>   59.2143    0.0000 </r>
       <r>   59.2143    0.0000 </r>
       <r>   59.2143    0.0000 </r>
       <r>   62.8342    0.0000 </r>
       <r>   62.8342    0.0000 </r>
       <r>   65.0772    0.0000 </r>
       <r>   65.0772    0.0000 </r>
       <r>   65.0772    0.0000 </r>
       <r>   73.1783    0.0000 </r>
       <r>   73.1783    0.0000 </r>
       <r>   73.1783    0.0000 </r>
       <r>   80.8194    0.0000 </r>
       <r>   83.0781    0.0000 </r>
       <r>   83.0781    0.0000 </r>
       <r>   87.2066    0.0000 </r>
       <r>   87.2066    0.0000 </r>
       <r>   87.2066    0.0000 </r>
       <r>   90.0889    0.0000 </r>
       <r>   90.0889    0.0000 </r>
       <r>   90.0889    0.0000 </r>
       <r>   90.8975    0.0000 </r>
       <r>   93.4603    0.0000 </r>
       <r>   93.4603    0.0000 </r>
       <r>   93.4603    0.0000 </r>
       <r>   93.9350    0.0000 </r>
       <r>   93.9350    0.0000 </r>
       <r>   93.9350    0.0000 </r>
       <r>   96.3744    0.0000 </r>
       <r>   96.3744    0.0000 </r>
      </set>
      <set comment="kpoint 2">
       <r>   -2.9632    1.0000 </r>
       <r>   17.9241    0.0000 </r>
       <r>   19.9648    0.0000 </r>
       <r>   19.9648    0.0000 </r>
       <r>   22.6680    0.0000 </r>
       <r>   22.8575    0.0000 </r>
       <r>   22.8575    0.0000 </r>
       <r>   26.1907    0.0000 </r>
       <r>   26.3444    0.0000 </r>
       <r>   26.3444    0.0000 </r>
       <r>   29.5137    0.0000 </r>
       <r>   33.4399    0.0000 </r>
       <r>   33.8639    0.0000 </r>
       <r>   33.8639    0.0000 </r>
       <r>   41.8048    0.0000 </r>
       <r>   55.3826    0.0000 </r>
       <r>   55.7121    0.0000 </r>
       <r>   55.7121    0.0000 </r>
       <r>   56.3467    0.0000 </r>
       <r>   57.4065    0.0000 </r>
       <r>   57.4065    0.0000 </r>
       <r>   59.2136    0.0000 </r>
       <r>   61.6152    0.0000 </r>
       <r>   61.6152    0.0000 </r>
       <r>   65.2462    0.0000 </r>
       <r>   68.5422    0.0000 </r>
       <r>   68.5422    0.0000 </r>
       <r>   71.7461    0.0000 </r>
       <r>   73.0087    0.0000 </r>
       <r>   73.0087    0.0000 </r>
       <r>   82.0374    0.0000 </r>
       <r>   82.0374    0.0000 </r>
       <r>   82.2718    0.0000 </r>
       <r>   84.2222    0.0000 </r>
       <r>   85.9691    0.0000 </r>
       <r>   85.9691    0.0000 </r>
       <r>   88.2458    0.0000 </r>
       <r>   88.2458    0.0000 </r>
       <r>   89.3774    0.0000 </r>
       <r>   90.1423    0.0000 </r>
       <r>   91.4693    0.0000 </r>
       <r>   91.4693    0.0000 </r>
       <r>   92.7989    0.0000 </r>
       <r>   95.4379    0.0000 </r>
       <r>   95.5031    0.0000 </r>
       <r>   95.5031    0.0000 </r>
       <r>   96.8039    0.0000 </r>
       <r>   96.8039    0.0000 </r>
      </set>
      <set comment="kpoint 3">
       <r>   -2.4004    1.0000 </r>
       <r>   14.5712    0.0000 </r>
       <r>   19.2626    0.0000 </r>
       <r>   19.2626    0.0000 </r>
       <r>   22.4866    0.0000 </r>
       <r>   23.9187    0.0000 </r>
       <r>   23.9187    0.0000 </r>
       <r>   25.1771    0.0000 </r>
       <r>   25.1771    0.0000 </r>
       <r>   28.1656    0.0000 </r>
       <r>   29.4001    0.0000 </r>
       <r>   35.8575    0.0000 </r>
       <r>   36.6586    0.0000 </r>
       <r>   36.6586    0.0000 </r>
       <r>   43.7138    0.0000 </r>
       <r>   52.4712    0.0000 </r>
       <r>   52.4712    0.0000 </r>
       <r>   54.1593    0.0000 </r>
       <r>   56.4288    0.0000 </r>
       <r>   56.4288    0.0000 </r>
       <r>   56.5216    0.0000 </r>
       <r>   58.9662    0.0000 </r>
       <r>   61.6576    0.0000 </r>
       <r>   61.6576    0.0000 </r>
       <r>   65.7441    0.0000 </r>
       <r>   69.3262    0.0000 </r>
       <r>   71.2562    0.0000 </r>
       <r>   71.2562    0.0000 </r>
       <r>   73.5334    0.0000 </r>
       <r>   73.5334    0.0000 </r>
       <r>   79.3517    0.0000 </r>
       <r>   79.3517    0.0000 </r>
       <r>   79.4585    0.0000 </r>
       <r>   83.3852    0.0000 </r>
       <r>   83.3852    0.0000 </r>
       <r>   85.4828    0.0000 </r>
       <r>   86.3449    0.0000 </r>
       <r>   86.5882    0.0000 </r>
       <r>   86.5882    0.0000 </r>
       <r>   87.5072    0.0000 </r>
       <r>   89.5375    0.0000 </r>
       <r>   90.1571    0.0000 </r>
       <r>   90.1571    0.0000 </r>
       <r>   93.9968    0.0000 </r>
       <r>   97.1758    0.0000 </r>
       <r>   97.1758    0.0000 </r>
       <r>   99.1204    0.0000 </r>
       <r>   99.1204    0.0000 </r>
      </set>
      <set comment="kpoint 4">
       <r>   -1.4673    1.0000 </r>
       <r>   11.3777    0.0000 </r>
       <r>   18.8205    0.0000 </r>
       <r>   18.8205    0.0000 </r>
       <r>   22.2572    0.0000 </r>
       <r>   22.6588    0.0000 </r>
       <r>   22.6588    0.0000 </r>
       <r>   26.6515    0.0000 </r>
       <r>   26.7748    0.0000 </r>
       <r>   26.7748    0.0000 </r>
       <r>   32.5013    0.0000 </r>
       <r>   39.4137    0.0000 </r>
       <r>   39.9506    0.0000 </r>
       <r>   39.9506    0.0000 </r>
       <r>   46.2842    0.0000 </r>
       <r>   48.3762    0.0000 </r>
       <r>   48.3762    0.0000 </r>
       <r>   52.4294    0.0000 </r>
       <r>   56.3695    0.0000 </r>
       <r>   56.3695    0.0000 </r>
       <r>   56.7214    0.0000 </r>
       <r>   58.2228    0.0000 </r>
       <r>   62.0670    0.0000 </r>
       <r>   62.0670    0.0000 </r>
       <r>   66.5442    0.0000 </r>
       <r>   66.9836    0.0000 </r>
       <r>   68.8657    0.0000 </r>
       <r>   68.8657    0.0000 </r>
       <r>   74.5360    0.0000 </r>
       <r>   74.5360    0.0000 </r>
       <r>   76.5408    0.0000 </r>
       <r>   79.0356    0.0000 </r>
       <r>   79.0356    0.0000 </r>
       <r>   79.9563    0.0000 </r>
       <r>   80.4339    0.0000 </r>
       <r>   80.4339    0.0000 </r>
       <r>   82.0371    0.0000 </r>
       <r>   87.4974    0.0000 </r>
       <r>   87.4974    0.0000 </r>
       <r>   88.8087    0.0000 </r>
       <r>   89.5858    0.0000 </r>
       <r>   89.5858    0.0000 </r>
       <r>   90.5014    0.0000 </r>
       <r>   93.1720    0.0000 </r>
       <r>   97.3980    0.0000 </r>
       <r>   97.3980    0.0000 </r>
       <r>  101.3749    0.0000 </r>
       <r>  101.6980    0.0000 </r>
      </set>
      <set comment="kpoint 5">
       <r>   -0.1709    1.0000 </r>
       <r>    8.4424    0.2521 </r>
       <r>   18.6812    0.0000 </r>
       <r>   18.6812    0.0000 </r>
       <r>   21.2688    0.0000 </r>
       <r>   21.2688    0.0000 </r>
       <r>   22.2339    0.0000 </r>
       <r>   25.2271    0.0000 </r>
       <r>   29.0270    0.0000 </r>
       <r>   29.0270    0.0000 </r>
       <r>   35.4273    0.0000 </r>
       <r>   42.3834    0.0000 </r>
       <r>   42.3834    0.0000 </r>
       <r>   43.5631    0.0000 </r>
       <r>   45.8100    0.0000 </r>
       <r>   45.8100    0.0000 </r>
       <r>   48.5028    0.0000 </r>
       <r>   51.1147    0.0000 </r>
       <r>   56.3253    0.0000 </r>
       <r>   56.3253    0.0000 </r>
       <r>   56.9624    0.0000 </r>
       <r>   56.9778    0.0000 </r>
       <r>   62.0513    0.0000 </r>
       <r>   62.0513    0.0000 </r>
       <r>   64.5820    0.0000 </r>
       <r>   65.1575    0.0000 </r>
       <r>   65.1575    0.0000 </r>
       <r>   67.5711    0.0000 </r>
       <r>   71.9555    0.0000 </r>
       <r>   73.9810    0.0000 </r>
       <r>   73.9810    0.0000 </r>
       <r>   76.6550    0.0000 </r>
       <r>   77.6895    0.0000 </r>
       <r>   77.6895    0.0000 </r>
       <r>   79.1171    0.0000 </r>
       <r>   80.3090    0.0000 </r>
       <r>   80.3090    0.0000 </r>
       <r>   88.5835    0.0000 </r>
       <r>   89.2342    0.0000 </r>
       <r>   89.2342    0.0000 </r>
       <r>   90.6452    0.0000 </r>
       <r>   90.6452    0.0000 </r>
       <r>   90.9467    0.0000 </r>
       <r>   93.8727    0.0000 </r>
       <r>   98.2837    0.0000 </r>
       <r>   98.2837    0.0000 </r>
       <r>  101.8239    0.0000 </r>
       <r>  103.8626    0.0000 </r>
      </set>
      <set comment="kpoint 6">
       <r>    1.4789    1.0000 </r>
       <r>    5.8029    1.0257 </r>
       <r>   18.8546    0.0000 </r>
       <r>   18.8546    0.0000 </r>
       <r>   20.1538    0.0000 </r>
       <r>   20.1538    0.0000 </r>
       <r>   22.5050    0.0000 </r>
       <r>   24.0236    0.0000 </r>
       <r>   31.3515    0.0000 </r>
       <r>   31.3515    0.0000 </r>
       <r>   38.0861    0.0000 </r>
       <r>   40.2530    0.0000 </r>
       <r>   40.2530    0.0000 </r>
       <r>   46.3863    0.0000 </r>
       <r>   48.3165    0.0000 </r>
       <r>   48.6397    0.0000 </r>
       <r>   48.6397    0.0000 </r>
       <r>   53.8486    0.0000 </r>
       <r>   55.2192    0.0000 </r>
       <r>   56.0446    0.0000 </r>
       <r>   56.0446    0.0000 </r>
       <r>   57.2993    0.0000 </r>
       <r>   59.1938    0.0000 </r>
       <r>   59.1938    0.0000 </r>
       <r>   62.4978    0.0000 </r>
       <r>   64.1732    0.0000 </r>
       <r>   64.1732    0.0000 </r>
       <r>   65.8557    0.0000 </r>
       <r>   68.6131    0.0000 </r>
       <r>   73.6633    0.0000 </r>
       <r>   73.6633    0.0000 </r>
       <r>   75.9775    0.0000 </r>
       <r>   75.9775    0.0000 </r>
       <r>   76.7103    0.0000 </r>
       <r>   76.9398    0.0000 </r>
       <r>   80.5287    0.0000 </r>
       <r>   80.5287    0.0000 </r>
       <r>   88.5386    0.0000 </r>
       <r>   88.9583    0.0000 </r>
       <r>   88.9583    0.0000 </r>
       <r>   89.6593    0.0000 </r>
       <r>   94.1070    0.0000 </r>
       <r>   94.1070    0.0000 </r>
       <r>   94.3198    0.0000 </r>
       <r>  100.4704    0.0000 </r>
       <r>  100.4707    0.0000 </r>
       <r>  104.0288    0.0000 </r>
       <r>  104.2552    0.0000 </r>
      </set>
      <set comment="kpoint 7">
       <r>    3.3752    1.0000 </r>
       <r>    3.5759    1.0000 </r>
       <r>   19.3056    0.0000 </r>
       <r>   19.3056    0.0000 </r>
       <r>   19.3866    0.0000 </r>
       <r>   19.3866    0.0000 </r>
       <r>   23.0428    0.0000 </r>
       <r>   23.1658    0.0000 </r>
       <r>   32.6717    0.0000 </r>
       <r>   32.6717    0.0000 </r>
       <r>   38.6898    0.0000 </r>
       <r>   38.6898    0.0000 </r>
       <r>   39.4859    0.0000 </r>
       <r>   45.4050    0.0000 </r>
       <r>   50.5687    0.0000 </r>
       <r>   51.5347    0.0000 </r>
       <r>   51.5347    0.0000 </r>
       <r>   53.5023    0.0000 </r>
       <r>   54.6521    0.0000 </r>
       <r>   54.6521    0.0000 </r>
       <r>   56.2477    0.0000 </r>
       <r>   57.5030    0.0000 </r>
       <r>   57.5030    0.0000 </r>
       <r>   58.4217    0.0000 </r>
       <r>   60.6125    0.0000 </r>
       <r>   62.6305    0.0000 </r>
       <r>   64.2753    0.0000 </r>
       <r>   64.2753    0.0000 </r>
       <r>   69.1232    0.0000 </r>
       <r>   73.5795    0.0000 </r>
       <r>   73.5795    0.0000 </r>
       <r>   75.3331    0.0000 </r>
       <r>   75.3331    0.0000 </r>
       <r>   76.0518    0.0000 </r>
       <r>   76.9486    0.0000 </r>
       <r>   80.5451    0.0000 </r>
       <r>   80.5451    0.0000 </r>
       <r>   88.6869    0.0000 </r>
       <r>   88.8484    0.0000 </r>
       <r>   88.8484    0.0000 </r>
       <r>   88.9413    0.0000 </r>
       <r>   94.1332    0.0000 </r>
       <r>   95.5458    0.0000 </r>
       <r>   95.5458    0.0000 </r>
       <r>  101.3598    0.0000 </r>
       <r>  101.3598    0.0000 </r>
       <r>  107.1802    0.0000 </r>
       <r>  107.1802    0.0000 </r>
      </set>
      <set comment="kpoint 8">
       <r>   -2.9005    1.0000 </r>
       <r>   18.8170    0.0000 </r>
       <r>   18.8170    0.0000 </r>
       <r>   19.1198    0.0000 </r>
       <r>   21.4243    0.0000 </r>
       <r>   24.0828    0.0000 </r>
       <r>   24.0828    0.0000 </r>
       <r>   24.6672    0.0000 </r>
       <r>   26.2993    0.0000 </r>
       <r>   27.5469    0.0000 </r>
       <r>   30.4820    0.0000 </r>
       <r>   32.8006    0.0000 </r>
       <r>   32.8006    0.0000 </r>
       <r>   35.2488    0.0000 </r>
       <r>   42.1559    0.0000 </r>
       <r>   55.3824    0.0000 </r>
       <r>   55.3824    0.0000 </r>
       <r>   55.4899    0.0000 </r>
       <r>   56.5070    0.0000 </r>
       <r>   57.6101    0.0000 </r>
       <r>   57.6101    0.0000 </r>
       <r>   58.3274    0.0000 </r>
       <r>   59.3799    0.0000 </r>
       <r>   62.7791    0.0000 </r>
       <r>   67.1917    0.0000 </r>
       <r>   67.1917    0.0000 </r>
       <r>   69.9086    0.0000 </r>
       <r>   70.7370    0.0000 </r>
       <r>   73.4008    0.0000 </r>
       <r>   73.4008    0.0000 </r>
       <r>   80.8453    0.0000 </r>
       <r>   82.6409    0.0000 </r>
       <r>   83.2522    0.0000 </r>
       <r>   83.2522    0.0000 </r>
       <r>   83.7900    0.0000 </r>
       <r>   83.9077    0.0000 </r>
       <r>   89.2060    0.0000 </r>
       <r>   90.0208    0.0000 </r>
       <r>   90.0208    0.0000 </r>
       <r>   90.3353    0.0000 </r>
       <r>   90.3353    0.0000 </r>
       <r>   92.3312    0.0000 </r>
       <r>   92.7461    0.0000 </r>
       <r>   94.1378    0.0000 </r>
       <r>   94.5950    0.0000 </r>
       <r>   97.6203    0.0000 </r>
       <r>   97.6203    0.0000 </r>
       <r>   98.1796    0.0000 </r>
      </set>
      <set comment="kpoint 9">
       <r>   -2.4628    1.0000 </r>
       <r>   15.7734    0.0000 </r>
       <r>   17.9395    0.0000 </r>
       <r>   19.2200    0.0000 </r>
       <r>   21.7844    0.0000 </r>
       <r>   22.7210    0.0000 </r>
       <r>   24.4625    0.0000 </r>
       <r>   25.4492    0.0000 </r>
       <r>   26.9897    0.0000 </r>
       <r>   28.9751    0.0000 </r>
       <r>   29.9050    0.0000 </r>
       <r>   34.4112    0.0000 </r>
       <r>   34.6129    0.0000 </r>
       <r>   37.3681    0.0000 </r>
       <r>   43.8942    0.0000 </r>
       <r>   52.4818    0.0000 </r>
       <r>   53.3653    0.0000 </r>
       <r>   55.4956    0.0000 </r>
       <r>   55.8155    0.0000 </r>
       <r>   56.3233    0.0000 </r>
       <r>   56.9747    0.0000 </r>
       <r>   58.2318    0.0000 </r>
       <r>   59.3728    0.0000 </r>
       <r>   62.3110    0.0000 </r>
       <r>   67.9436    0.0000 </r>
       <r>   68.0642    0.0000 </r>
       <r>   71.0769    0.0000 </r>
       <r>   72.4026    0.0000 </r>
       <r>   72.6199    0.0000 </r>
       <r>   74.3688    0.0000 </r>
       <r>   78.0793    0.0000 </r>
       <r>   79.2188    0.0000 </r>
       <r>   81.0127    0.0000 </r>
       <r>   82.2096    0.0000 </r>
       <r>   82.6795    0.0000 </r>
       <r>   84.6473    0.0000 </r>
       <r>   86.0460    0.0000 </r>
       <r>   86.6571    0.0000 </r>
       <r>   89.2451    0.0000 </r>
       <r>   89.4174    0.0000 </r>
       <r>   90.2503    0.0000 </r>
       <r>   91.5373    0.0000 </r>
       <r>   93.8198    0.0000 </r>
       <r>   94.0793    0.0000 </r>
       <r>   94.4776    0.0000 </r>
       <r>   96.2900    0.0000 </r>
       <r>   97.1657    0.0000 </r>
       <r>   97.2694    0.0000 </r>
      </set>
      <set comment="kpoint 10">
       <r>   -1.6534    1.0000 </r>
       <r>   12.5487    0.0000 </r>
       <r>   17.3692    0.0000 </r>
       <r>   18.8819    0.0000 </r>
       <r>   20.6808    0.0000 </r>
       <r>   23.5813    0.0000 </r>
       <r>   24.3678    0.0000 </r>
       <r>   24.9202    0.0000 </r>
       <r>   27.8995    0.0000 </r>
       <r>   28.4277    0.0000 </r>
       <r>   32.1970    0.0000 </r>
       <r>   37.3947    0.0000 </r>
       <r>   38.0539    0.0000 </r>
       <r>   40.1097    0.0000 </r>
       <r>   46.4406    0.0000 </r>
       <r>   48.2302    0.0000 </r>
       <r>   50.0091    0.0000 </r>
       <r>   53.9874    0.0000 </r>
       <r>   55.6060    0.0000 </r>
       <r>   56.2470    0.0000 </r>
       <r>   57.0856    0.0000 </r>
       <r>   58.7456    0.0000 </r>
       <r>   58.8071    0.0000 </r>
       <r>   62.4190    0.0000 </r>
       <r>   65.8358    0.0000 </r>
       <r>   68.5469    0.0000 </r>
       <r>   69.6742    0.0000 </r>
       <r>   71.7382    0.0000 </r>
       <r>   72.7695    0.0000 </r>
       <r>   74.6573    0.0000 </r>
       <r>   76.5802    0.0000 </r>
       <r>   77.1473    0.0000 </r>
       <r>   79.4551    0.0000 </r>
       <r>   81.2371    0.0000 </r>
       <r>   81.2616    0.0000 </r>
       <r>   81.9745    0.0000 </r>
       <r>   83.3982    0.0000 </r>
       <r>   86.3239    0.0000 </r>
       <r>   86.8277    0.0000 </r>
       <r>   87.1572    0.0000 </r>
       <r>   90.5764    0.0000 </r>
       <r>   92.2517    0.0000 </r>
       <r>   92.5101    0.0000 </r>
       <r>   93.8300    0.0000 </r>
       <r>   94.5972    0.0000 </r>
       <r>   97.1615    0.0000 </r>
       <r>   99.3610    0.0000 </r>
       <r>  100.1924    0.0000 </r>
      </set>
      <set comment="kpoint 11">
       <r>   -0.4786    1.0000 </r>
       <r>    9.5364   -0.0598 </r>
       <r>   17.1142    0.0000 </r>
       <r>   18.6799    0.0000 </r>
       <r>   19.1329    0.0000 </r>
       <r>   23.5409    0.0000 </r>
       <r>   24.0947    0.0000 </r>
       <r>   25.7605    0.0000 </r>
       <r>   27.1838    0.0000 </r>
       <r>   29.9707    0.0000 </r>
       <r>   35.1983    0.0000 </r>
       <r>   40.5145    0.0000 </r>
       <r>   42.2514    0.0000 </r>
       <r>   42.9105    0.0000 </r>
       <r>   44.7150    0.0000 </r>
       <r>   46.7458    0.0000 </r>
       <r>   49.1574    0.0000 </r>
       <r>   52.2021    0.0000 </r>
       <r>   55.7010    0.0000 </r>
       <r>   56.2860    0.0000 </r>
       <r>   57.0587    0.0000 </r>
       <r>   57.7357    0.0000 </r>
       <r>   59.3394    0.0000 </r>
       <r>   62.7184    0.0000 </r>
       <r>   63.2948    0.0000 </r>
       <r>   66.0706    0.0000 </r>
       <r>   67.4655    0.0000 </r>
       <r>   70.5887    0.0000 </r>
       <r>   71.0866    0.0000 </r>
       <r>   71.8324    0.0000 </r>
       <r>   74.6388    0.0000 </r>
       <r>   76.5703    0.0000 </r>
       <r>   77.7652    0.0000 </r>
       <r>   78.3292    0.0000 </r>
       <r>   80.6040    0.0000 </r>
       <r>   81.4197    0.0000 </r>
       <r>   83.1667    0.0000 </r>
       <r>   84.8300    0.0000 </r>
       <r>   87.1710    0.0000 </r>
       <r>   88.3653    0.0000 </r>
       <r>   92.2655    0.0000 </r>
       <r>   92.7760    0.0000 </r>
       <r>   92.9282    0.0000 </r>
       <r>   94.1074    0.0000 </r>
       <r>   95.5049    0.0000 </r>
       <r>   98.2904    0.0000 </r>
       <r>  100.4854    0.0000 </r>
       <r>  102.9401    0.0000 </r>
      </set>
      <set comment="kpoint 12">
       <r>    1.0528    1.0000 </r>
       <r>    6.8025    0.9959 </r>
       <r>   17.1772    0.0000 </r>
       <r>   17.8571    0.0000 </r>
       <r>   18.7928    0.0000 </r>
       <r>   22.3553    0.0000 </r>
       <r>   24.2684    0.0000 </r>
       <r>   25.5249    0.0000 </r>
       <r>   28.6289    0.0000 </r>
       <r>   32.0445    0.0000 </r>
       <r>   37.9902    0.0000 </r>
       <r>   39.9674    0.0000 </r>
       <r>   41.8606    0.0000 </r>
       <r>   45.9430    0.0000 </r>
       <r>   46.2577    0.0000 </r>
       <r>   48.1209    0.0000 </r>
       <r>   48.8703    0.0000 </r>
       <r>   53.6306    0.0000 </r>
       <r>   55.3592    0.0000 </r>
       <r>   55.8240    0.0000 </r>
       <r>   56.2839    0.0000 </r>
       <r>   57.3069    0.0000 </r>
       <r>   59.4429    0.0000 </r>
       <r>   59.7754    0.0000 </r>
       <r>   62.9854    0.0000 </r>
       <r>   63.7089    0.0000 </r>
       <r>   63.9247    0.0000 </r>
       <r>   68.4101    0.0000 </r>
       <r>   70.0055    0.0000 </r>
       <r>   70.3500    0.0000 </r>
       <r>   71.3269    0.0000 </r>
       <r>   75.3455    0.0000 </r>
       <r>   76.3682    0.0000 </r>
       <r>   78.4754    0.0000 </r>
       <r>   80.4721    0.0000 </r>
       <r>   80.8569    0.0000 </r>
       <r>   82.8669    0.0000 </r>
       <r>   83.9480    0.0000 </r>
       <r>   88.3557    0.0000 </r>
       <r>   88.7960    0.0000 </r>
       <r>   92.4493    0.0000 </r>
       <r>   94.1393    0.0000 </r>
       <r>   94.7675    0.0000 </r>
       <r>   95.6483    0.0000 </r>
       <r>   98.8372    0.0000 </r>
       <r>   99.1434    0.0000 </r>
       <r>  101.9343    0.0000 </r>
       <r>  102.9405    0.0000 </r>
      </set>
      <set comment="kpoint 13">
       <r>    2.9258    1.0000 </r>
       <r>    4.3803    1.0000 </r>
       <r>   16.9200    0.0000 </r>
       <r>   17.5596    0.0000 </r>
       <r>   19.2081    0.0000 </r>
       <r>   21.4563    0.0000 </r>
       <r>   24.4106    0.0000 </r>
       <r>   24.8996    0.0000 </r>
       <r>   31.0148    0.0000 </r>
       <r>   32.7277    0.0000 </r>
       <r>   38.9260    0.0000 </r>
       <r>   38.9706    0.0000 </r>
       <r>   40.2075    0.0000 </r>
       <r>   46.4547    0.0000 </r>
       <r>   49.8408    0.0000 </r>
       <r>   49.9857    0.0000 </r>
       <r>   50.9811    0.0000 </r>
       <r>   53.8687    0.0000 </r>
       <r>   54.5123    0.0000 </r>
       <r>   55.8076    0.0000 </r>
       <r>   56.2499    0.0000 </r>
       <r>   56.7159    0.0000 </r>
       <r>   57.6702    0.0000 </r>
       <r>   58.8735    0.0000 </r>
       <r>   61.7134    0.0000 </r>
       <r>   62.2377    0.0000 </r>
       <r>   63.2531    0.0000 </r>
       <r>   64.3326    0.0000 </r>
       <r>   69.2865    0.0000 </r>
       <r>   69.8585    0.0000 </r>
       <r>   71.8510    0.0000 </r>
       <r>   74.6235    0.0000 </r>
       <r>   76.0398    0.0000 </r>
       <r>   78.4526    0.0000 </r>
       <r>   80.3373    0.0000 </r>
       <r>   80.8186    0.0000 </r>
       <r>   81.6980    0.0000 </r>
       <r>   83.8662    0.0000 </r>
       <r>   88.6432    0.0000 </r>
       <r>   88.8454    0.0000 </r>
       <r>   92.0175    0.0000 </r>
       <r>   94.3988    0.0000 </r>
       <r>   96.3197    0.0000 </r>
       <r>   98.9171    0.0000 </r>
       <r>   99.4389    0.0000 </r>
       <r>  100.9722    0.0000 </r>
       <r>  102.5669    0.0000 </r>
       <r>  104.8862    0.0000 </r>
      </set>
      <set comment="kpoint 14">
       <r>    2.2657    1.0000 </r>
       <r>    5.1498    1.0000 </r>
       <r>   16.3086    0.0000 </r>
       <r>   18.2612    0.0000 </r>
       <r>   19.9506    0.0000 </r>
       <r>   20.8656    0.0000 </r>
       <r>   23.8262    0.0000 </r>
       <r>   25.5555    0.0000 </r>
       <r>   30.8793    0.0000 </r>
       <r>   32.0555    0.0000 </r>
       <r>   38.0167    0.0000 </r>
       <r>   39.8290    0.0000 </r>
       <r>   40.8554    0.0000 </r>
       <r>   46.6188    0.0000 </r>
       <r>   47.9217    0.0000 </r>
       <r>   49.5151    0.0000 </r>
       <r>   51.2227    0.0000 </r>
       <r>   54.2797    0.0000 </r>
       <r>   55.0432    0.0000 </r>
       <r>   55.4401    0.0000 </r>
       <r>   55.9321    0.0000 </r>
       <r>   57.4786    0.0000 </r>
       <r>   57.5901    0.0000 </r>
       <r>   59.1039    0.0000 </r>
       <r>   61.6724    0.0000 </r>
       <r>   61.8089    0.0000 </r>
       <r>   63.9350    0.0000 </r>
       <r>   65.6113    0.0000 </r>
       <r>   69.6476    0.0000 </r>
       <r>   69.7562    0.0000 </r>
       <r>   71.5419    0.0000 </r>
       <r>   74.8498    0.0000 </r>
       <r>   76.2012    0.0000 </r>
       <r>   78.7471    0.0000 </r>
       <r>   80.0281    0.0000 </r>
       <r>   80.9703    0.0000 </r>
       <r>   81.8356    0.0000 </r>
       <r>   83.8784    0.0000 </r>
       <r>   88.3908    0.0000 </r>
       <r>   88.6647    0.0000 </r>
       <r>   92.3115    0.0000 </r>
       <r>   94.6223    0.0000 </r>
       <r>   95.5165    0.0000 </r>
       <r>   97.1934    0.0000 </r>
       <r>   99.9527    0.0000 </r>
       <r>  101.1115    0.0000 </r>
       <r>  101.8303    0.0000 </r>
       <r>  106.9051    0.0000 </r>
      </set>
      <set comment="kpoint 15">
       <r>    0.5034    1.0000 </r>
       <r>    7.6787    0.6170 </r>
       <r>   16.0285    0.0000 </r>
       <r>   19.2748    0.0000 </r>
       <r>   20.5926    0.0000 </r>
       <r>   21.0088    0.0000 </r>
       <r>   23.4557    0.0000 </r>
       <r>   26.5413    0.0000 </r>
       <r>   28.3504    0.0000 </r>
       <r>   30.5876    0.0000 </r>
       <r>   37.1929    0.0000 </r>
       <r>   40.1054    0.0000 </r>
       <r>   43.7273    0.0000 </r>
       <r>   44.2400    0.0000 </r>
       <r>   45.0538    0.0000 </r>
       <r>   48.0276    0.0000 </r>
       <r>   49.0887    0.0000 </r>
       <r>   52.3246    0.0000 </r>
       <r>   55.8508    0.0000 </r>
       <r>   55.9471    0.0000 </r>
       <r>   56.3389    0.0000 </r>
       <r>   57.6275    0.0000 </r>
       <r>   60.5534    0.0000 </r>
       <r>   61.1606    0.0000 </r>
       <r>   61.2941    0.0000 </r>
       <r>   63.5829    0.0000 </r>
       <r>   65.9181    0.0000 </r>
       <r>   69.9057    0.0000 </r>
       <r>   70.6538    0.0000 </r>
       <r>   70.7790    0.0000 </r>
       <r>   71.4189    0.0000 </r>
       <r>   75.5090    0.0000 </r>
       <r>   76.7604    0.0000 </r>
       <r>   79.0374    0.0000 </r>
       <r>   79.7794    0.0000 </r>
       <r>   81.6862    0.0000 </r>
       <r>   83.0367    0.0000 </r>
       <r>   84.1696    0.0000 </r>
       <r>   87.5505    0.0000 </r>
       <r>   87.9703    0.0000 </r>
       <r>   92.3660    0.0000 </r>
       <r>   92.8752    0.0000 </r>
       <r>   94.4845    0.0000 </r>
       <r>   95.4821    0.0000 </r>
       <r>   97.0215    0.0000 </r>
       <r>  100.0876    0.0000 </r>
       <r>  102.1683    0.0000 </r>
       <r>  105.2409    0.0000 </r>
      </set>
      <set comment="kpoint 16">
       <r>   -0.9103    1.0000 </r>
       <r>   10.5049   -0.0065 </r>
       <r>   16.0830    0.0000 </r>
       <r>   20.4406    0.0000 </r>
       <r>   20.7774    0.0000 </r>
       <r>   22.3545    0.0000 </r>
       <r>   23.3593    0.0000 </r>
       <r>   25.9498    0.0000 </r>
       <r>   27.2902    0.0000 </r>
       <r>   28.9223    0.0000 </r>
       <r>   34.3716    0.0000 </r>
       <r>   39.0219    0.0000 </r>
       <r>   41.0437    0.0000 </r>
       <r>   42.9133    0.0000 </r>
       <r>   44.9527    0.0000 </r>
       <r>   47.9591    0.0000 </r>
       <r>   48.7896    0.0000 </r>
       <r>   52.3486    0.0000 </r>
       <r>   55.7569    0.0000 </r>
       <r>   56.0075    0.0000 </r>
       <r>   57.2422    0.0000 </r>
       <r>   58.1200    0.0000 </r>
       <r>   60.0763    0.0000 </r>
       <r>   61.4346    0.0000 </r>
       <r>   65.5423    0.0000 </r>
       <r>   65.6347    0.0000 </r>
       <r>   69.2798    0.0000 </r>
       <r>   69.7425    0.0000 </r>
       <r>   71.6748    0.0000 </r>
       <r>   73.7812    0.0000 </r>
       <r>   76.0293    0.0000 </r>
       <r>   76.7958    0.0000 </r>
       <r>   78.2349    0.0000 </r>
       <r>   78.9110    0.0000 </r>
       <r>   79.1911    0.0000 </r>
       <r>   83.2654    0.0000 </r>
       <r>   84.6486    0.0000 </r>
       <r>   84.8588    0.0000 </r>
       <r>   85.8822    0.0000 </r>
       <r>   86.4105    0.0000 </r>
       <r>   90.5573    0.0000 </r>
       <r>   90.6469    0.0000 </r>
       <r>   93.5568    0.0000 </r>
       <r>   95.4228    0.0000 </r>
       <r>   95.6939    0.0000 </r>
       <r>   99.2885    0.0000 </r>
       <r>  100.1544    0.0000 </r>
       <r>  103.0227    0.0000 </r>
      </set>
      <set comment="kpoint 17">
       <r>   -1.9642    1.0000 </r>
       <r>   13.5761    0.0000 </r>
       <r>   16.4850    0.0000 </r>
       <r>   20.8597    0.0000 </r>
       <r>   22.1711    0.0000 </r>
       <r>   23.3994    0.0000 </r>
       <r>   23.9552    0.0000 </r>
       <r>   23.9757    0.0000 </r>
       <r>   25.9515    0.0000 </r>
       <r>   29.5778    0.0000 </r>
       <r>   31.3781    0.0000 </r>
       <r>   35.4737    0.0000 </r>
       <r>   37.7167    0.0000 </r>
       <r>   39.5614    0.0000 </r>
       <r>   45.2306    0.0000 </r>
       <r>   48.7979    0.0000 </r>
       <r>   52.5764    0.0000 </r>
       <r>   54.0773    0.0000 </r>
       <r>   55.6583    0.0000 </r>
       <r>   55.9331    0.0000 </r>
       <r>   57.1181    0.0000 </r>
       <r>   59.0661    0.0000 </r>
       <r>   59.6316    0.0000 </r>
       <r>   61.0963    0.0000 </r>
       <r>   67.4721    0.0000 </r>
       <r>   68.9874    0.0000 </r>
       <r>   69.4053    0.0000 </r>
       <r>   71.6225    0.0000 </r>
       <r>   73.2181    0.0000 </r>
       <r>   75.3490    0.0000 </r>
       <r>   77.7168    0.0000 </r>
       <r>   78.0502    0.0000 </r>
       <r>   79.1292    0.0000 </r>
       <r>   79.6475    0.0000 </r>
       <r>   82.6763    0.0000 </r>
       <r>   84.0837    0.0000 </r>
       <r>   85.3453    0.0000 </r>
       <r>   85.6683    0.0000 </r>
       <r>   86.7498    0.0000 </r>
       <r>   87.3996    0.0000 </r>
       <r>   89.2292    0.0000 </r>
       <r>   90.6652    0.0000 </r>
       <r>   91.3697    0.0000 </r>
       <r>   94.3353    0.0000 </r>
       <r>   95.9993    0.0000 </r>
       <r>   96.6574    0.0000 </r>
       <r>   99.0784    0.0000 </r>
       <r>  101.0624    0.0000 </r>
      </set>
      <set comment="kpoint 18">
       <r>   -2.6502    1.0000 </r>
       <r>   16.5424    0.0000 </r>
       <r>   17.4834    0.0000 </r>
       <r>   21.0280    0.0000 </r>
       <r>   22.2729    0.0000 </r>
       <r>   23.2803    0.0000 </r>
       <r>   24.2789    0.0000 </r>
       <r>   24.4304    0.0000 </r>
       <r>   25.7334    0.0000 </r>
       <r>   28.2849    0.0000 </r>
       <r>   30.1627    0.0000 </r>
       <r>   33.1389    0.0000 </r>
       <r>   35.2462    0.0000 </r>
       <r>   36.4178    0.0000 </r>
       <r>   43.0000    0.0000 </r>
       <r>   52.8805    0.0000 </r>
       <r>   55.3145    0.0000 </r>
       <r>   55.7457    0.0000 </r>
       <r>   55.7865    0.0000 </r>
       <r>   56.0769    0.0000 </r>
       <r>   56.9682    0.0000 </r>
       <r>   59.3112    0.0000 </r>
       <r>   60.1256    0.0000 </r>
       <r>   60.9906    0.0000 </r>
       <r>   68.2739    0.0000 </r>
       <r>   69.0035    0.0000 </r>
       <r>   69.3255    0.0000 </r>
       <r>   71.9184    0.0000 </r>
       <r>   73.0609    0.0000 </r>
       <r>   73.1837    0.0000 </r>
       <r>   80.4099    0.0000 </r>
       <r>   80.9740    0.0000 </r>
       <r>   81.0733    0.0000 </r>
       <r>   82.7061    0.0000 </r>
       <r>   82.8292    0.0000 </r>
       <r>   85.8764    0.0000 </r>
       <r>   86.5285    0.0000 </r>
       <r>   87.1662    0.0000 </r>
       <r>   87.5524    0.0000 </r>
       <r>   90.2438    0.0000 </r>
       <r>   91.0010    0.0000 </r>
       <r>   92.4399    0.0000 </r>
       <r>   93.0382    0.0000 </r>
       <r>   93.1185    0.0000 </r>
       <r>   93.4408    0.0000 </r>
       <r>   95.3002    0.0000 </r>
       <r>   97.2654    0.0000 </r>
       <r>   98.3567    0.0000 </r>
      </set>
      <set comment="kpoint 19">
       <r>   -2.1509    1.0000 </r>
       <r>   16.9309    0.0000 </r>
       <r>   16.9309    0.0000 </r>
       <r>   17.0986    0.0000 </r>
       <r>   20.1773    0.0000 </r>
       <r>   20.3964    0.0000 </r>
       <r>   26.9790    0.0000 </r>
       <r>   26.9790    0.0000 </r>
       <r>   28.2364    0.0000 </r>
       <r>   29.8226    0.0000 </r>
       <r>   32.1443    0.0000 </r>
       <r>   33.7407    0.0000 </r>
       <r>   33.7407    0.0000 </r>
       <r>   38.3158    0.0000 </r>
       <r>   45.6743    0.0000 </r>
       <r>   52.3956    0.0000 </r>
       <r>   52.3956    0.0000 </r>
       <r>   53.3123    0.0000 </r>
       <r>   54.7501    0.0000 </r>
       <r>   56.8794    0.0000 </r>
       <r>   56.8880    0.0000 </r>
       <r>   56.8880    0.0000 </r>
       <r>   59.8372    0.0000 </r>
       <r>   62.0130    0.0000 </r>
       <r>   67.3110    0.0000 </r>
       <r>   69.8359    0.0000 </r>
       <r>   69.8359    0.0000 </r>
       <r>   73.0073    0.0000 </r>
       <r>   73.0073    0.0000 </r>
       <r>   75.4175    0.0000 </r>
       <r>   77.5333    0.0000 </r>
       <r>   78.3585    0.0000 </r>
       <r>   78.3585    0.0000 </r>
       <r>   78.4189    0.0000 </r>
       <r>   82.3058    0.0000 </r>
       <r>   84.7972    0.0000 </r>
       <r>   87.6531    0.0000 </r>
       <r>   87.7946    0.0000 </r>
       <r>   87.7946    0.0000 </r>
       <r>   90.2195    0.0000 </r>
       <r>   91.4853    0.0000 </r>
       <r>   91.4853    0.0000 </r>
       <r>   93.9987    0.0000 </r>
       <r>   94.1681    0.0000 </r>
       <r>   94.1681    0.0000 </r>
       <r>   94.3670    0.0000 </r>
       <r>   97.4914    0.0000 </r>
       <r>   97.5959    0.0000 </r>
      </set>
      <set comment="kpoint 20">
       <r>   -1.4673    1.0000 </r>
       <r>   13.9715    0.0000 </r>
       <r>   16.2424    0.0000 </r>
       <r>   17.5509    0.0000 </r>
       <r>   18.3674    0.0000 </r>
       <r>   20.5937    0.0000 </r>
       <r>   27.2873    0.0000 </r>
       <r>   27.5575    0.0000 </r>
       <r>   29.1193    0.0000 </r>
       <r>   31.1656    0.0000 </r>
       <r>   32.7022    0.0000 </r>
       <r>   35.6102    0.0000 </r>
[...]
       <set comment="band 2">
        <r>  0.0000  0.0000  0.2191  0.0000  0.0000  0.0000  0.0000  0.0000  0.0000 </r>
       </set>
       <set comment="band 3">
        <r>  0.1949  0.0760  0.0000  0.0001  0.0000  0.0000  0.0000  0.0000  0.0000 </r>
       </set>
       <set comment="band 4">
        <r>  0.1710  0.0259  0.0000  0.1162  0.0000  0.0000  0.0000  0.0000  0.0000 </r>
       </set>
       <set comment="band 5">
        <r>  0.0283  0.1337  0.0000  0.0474  0.0000  0.0000  0.0000  0.0000  0.0000 </r>
       </set>
       <set comment="band 6">
        <r>  0.0000  0.0000  0.1017  0.0000  0.0000  0.0000  0.0000  0.0000  0.0000 </r>
       </set>
       <set comment="band 7">
        <r>  0.0363  0.2219  0.0000  0.0003  0.0000  0.0000  0.0000  0.0000  0.0000 </r>
       </set>
       <set comment="band 8">
        <r>  0.0461  0.0213  0.0000  0.0752  0.0000  0.0000  0.0000  0.0000  0.0000 </r>
       </set>
       <set comment="band 9">
        <r>  0.0000  0.0000  0.0584  0.0000  0.0000  0.0000  0.0000  0.0000  0.0000 </r>
       </set>
       <set comment="band 10">
        <r>  0.0138  0.0028  0.0000  0.0350  0.0000  0.0000  0.0000  0.0000  0.0000 </r>
       </set>
       <set comment="band 11">
        <r>  0.0000  0.0000  0.0089  0.0000  0.0000  0.0000  0.0000  0.0000  0.0000 </r>
       </set>
       <set comment="band 12">
        <r>  0.1001  0.0009  0.0000  0.0618  0.0000  0.0000  0.0000  0.0000  0.0000 </r>
       </set>
       <set comment="band 13">
        <r>  0.0000  0.0000  0.1661  0.0000  0.0000  0.0000  0.0000  0.0000  0.0000 </r>
       </set>
       <set comment="band 14">
        <r>  0.0102  0.0030  0.0000  0.0711  0.0000  0.0000  0.0000  0.0000  0.0000 </r>
       </set>
       <set comment="band 15">
        <r>  0.1157  0.0068  0.0000  0.0759  0.0000  0.0000  0.0000  0.0000  0.0000 </r>
       </set>
       <set comment="band 16">
        <r>  0.0000  0.0000  0.0561  0.0000  0.0000  0.0000  0.0000  0.0000  0.0000 </r>
       </set>
       <set comment="band 17">
        <r>  0.2833  0.2434  0.0000  0.4773  0.0000  0.0000  0.0000  0.0000  0.0000 </r>
       </set>
       <set comment="band 18">
        <r>  0.0000  0.0000  0.4006  0.0000  0.0000  0.0000  0.0000  0.0000  0.0000 </r>
       </set>
       <set comment="band 19">
        <r>  4.7627  1.3969  0.0000  0.0374  0.0000  0.0000  0.0000  0.0000  0.0000 </r>
       </set>
       <set comment="band 20">
        <r>  0.0000  0.0000  1.3828  0.0000  0.0000  0.0000  0.0000  0.0000  0.0000 </r>
       </set>
       <set comment="band 21">
        <r>  4.1112  1.2324  0.0000  0.5052  0.0000  0.0000  0.0000  0.0000  0.0000 </r>
       </set>
       <set comment="band 22">
        <r>  0.3258  0.2781  0.0000  1.6616  0.0000  0.0000  0.0000  0.0000  0.0000 </r>
       </set>
       <set comment="band 23">
        <r>  0.2944  0.1243  0.0000  0.2897  0.0000  0.0000  0.0000  0.0000  0.0000 </r>
       </set>
       <set comment="band 24">
        <r>  0.0195  0.0799  0.0000  1.5333  0.0000  0.0000  0.0000  0.0000  0.0000 </r>
       </set>
       <set comment="band 25">
        <r>  0.0000  0.0000  2.5523  0.0000  0.0000  0.0000  0.0000  0.0000  0.0000 </r>
       </set>
       <set comment="band 26">
        <r>  0.0000  0.0000  0.5131  0.0000  0.0000  0.0000  0.0000  0.0000  0.0000 </r>
       </set>
       <set comment="band 27">
        <r>  0.3272  0.0389  0.0000  0.3338  0.0000  0.0000  0.0000  0.0000  0.0000 </r>
       </set>
       <set comment="band 28">
        <r>  0.0418  1.5460  0.0000  0.0183  0.0000  0.0000  0.0000  0.0000  0.0000 </r>
       </set>
       <set comment="band 29">
        <r>  0.0000  0.0000  0.1162  0.0000  0.0000  0.0000  0.0000  0.0000  0.0000 </r>
       </set>
       <set comment="band 30">
        <r>  0.0976  0.4058  0.0000  0.0056  0.0000  0.0000  0.0000  0.0000  0.0000 </r>
       </set>
       <set comment="band 31">
        <r>  0.0000  0.0000  0.2634  0.0000  0.0000  0.0000  0.0000  0.0000  0.0000 </r>
       </set>
       <set comment="band 32">
        <r>  0.0080  0.0009  0.0000  0.3995  0.0000  0.0000  0.0000  0.0000  0.0000 </r>
       </set>
       <set comment="band 33">
        <r>  0.4869  0.0241  0.0000  0.0644  0.0000  0.0000  0.0000  0.0000  0.0000 </r>
       </set>
       <set comment="band 34">
        <r>  0.4058  0.0410  0.0000  0.0740  0.0000  0.0000  0.0000  0.0000  0.0000 </r>
       </set>
       <set comment="band 35">
        <r>  0.0000  0.0000  0.1028  0.0000  0.0000  0.0000  0.0000  0.0000  0.0000 </r>
       </set>
       <set comment="band 36">
        <r>  0.0472  0.0584  0.0000  0.0062  0.0000  0.0000  0.0000  0.0000  0.0000 </r>
       </set>
       <set comment="band 37">
        <r>  0.0000  0.0000  0.1174  0.0000  0.0000  0.0000  0.0000  0.0000  0.0000 </r>
       </set>
       <set comment="band 38">
        <r>  0.1018  0.0538  0.0000  0.1882  0.0000  0.0000  0.0000  0.0000  0.0000 </r>
       </set>
       <set comment="band 39">
        <r>  0.0040  0.0000  0.0000  0.0013  0.0000  0.0000  0.0000  0.0000  0.0000 </r>
       </set>
       <set comment="band 40">
        <r>  0.0000  0.0000  0.1450  0.0000  0.0000  0.0000  0.0000  0.0000  0.0000 </r>
       </set>
       <set comment="band 41">
        <r>  0.0000  0.0000  0.0024  0.0000  0.0000  0.0000  0.0000  0.0000  0.0000 </r>
       </set>
       <set comment="band 42">
        <r>  0.0107  0.0207  0.0000  0.0000  0.0000  0.0000  0.0000  0.0000  0.0000 </r>
       </set>
       <set comment="band 43">
        <r>  0.0640  0.0934  0.0000  0.0006  0.0000  0.0000  0.0000  0.0000  0.0000 </r>
       </set>
       <set comment="band 44">
        <r>  0.0000  0.0000  0.0524  0.0000  0.0000  0.0000  0.0000  0.0000  0.0000 </r>
       </set>
       <set comment="band 45">
        <r>  0.0000  0.0000  0.0166  0.0000  0.0000  0.0000  0.0000  0.0000  0.0000 </r>
       </set>
       <set comment="band 46">
        <r>  0.0000  0.1375  0.0000  0.0231  0.0000  0.0000  0.0000  0.0000  0.0000 </r>
       </set>
       <set comment="band 47">
        <r>  0.0281  0.0373  0.0000  0.1052  0.0000  0.0000  0.0000  0.0000  0.0000 </r>
       </set>
       <set comment="band 48">
        <r>  0.0000  0.0000  0.0989  0.0000  0.0000  0.0000  0.0000  0.0000  0.0000 </r>
       </set>
      </set>
      <set comment="kpoint 71">
       <set comment="band 1">
        <r>  0.0000  0.0000  0.2334  0.0000  0.0000  0.0000  0.0000  0.0000  0.0000 </r>
       </set>
       <set comment="band 2">
        <r>  0.1982  0.0472  0.0000  0.0000  0.0000  0.0000  0.0000  0.0000  0.0000 </r>
       </set>
       <set comment="band 3">
        <r>  0.0000  0.0000  0.0000  0.2047  0.0000  0.0000  0.0000  0.0000  0.0000 </r>
       </set>
       <set comment="band 4">
        <r>  0.2565  0.1077  0.0000  0.0000  0.0000  0.0000  0.0000  0.0000  0.0000 </r>
       </set>
       <set comment="band 5">
        <r>  0.0000  0.0000  0.0000  0.1313  0.0000  0.0000  0.0000  0.0000  0.0000 </r>
       </set>
       <set comment="band 6">
        <r>  0.1046  0.2221  0.0000  0.0000  0.0000  0.0000  0.0000  0.0000  0.0000 </r>
       </set>
       <set comment="band 7">
        <r>  0.0000  0.0000  0.0775  0.0000  0.0000  0.0000  0.0000  0.0000  0.0000 </r>
       </set>
       <set comment="band 8">
        <r>  0.0359  0.1184  0.0000  0.0000  0.0000  0.0000  0.0000  0.0000  0.0000 </r>
       </set>
       <set comment="band 9">
        <r>  0.0000  0.0000  0.0000  0.0000  0.0000  0.0000  0.0000  0.0000  0.0000 </r>
       </set>
       <set comment="band 10">
        <r>  0.0161  0.0039  0.0000  0.0000  0.0000  0.0000  0.0000  0.0000  0.0000 </r>
       </set>
       <set comment="band 11">
        <r>  0.0000  0.0000  0.0000  0.2291  0.0000  0.0000  0.0000  0.0000  0.0000 </r>
       </set>
       <set comment="band 12">
        <r>  0.0000  0.0000  0.1244  0.0000  0.0000  0.0000  0.0000  0.0000  0.0000 </r>
       </set>
       <set comment="band 13">
        <r>  0.0000  0.0000  0.0242  0.0000  0.0000  0.0000  0.0000  0.0000  0.0000 </r>
       </set>
       <set comment="band 14">
        <r>  0.1622  0.0542  0.0000  0.0000  0.0000  0.0000  0.0000  0.0000  0.0000 </r>
       </set>
       <set comment="band 15">
        <r>  0.0000  0.0000  0.0000  0.0673  0.0000  0.0000  0.0000  0.0000  0.0000 </r>
       </set>
       <set comment="band 16">
        <r>  0.0000  0.0000  0.0000  0.0000  0.0000  0.0000  0.0000  0.0000  0.0000 </r>
       </set>
       <set comment="band 17">
        <r>  0.0000  0.0000  0.6127  0.0000  0.0000  0.0000  0.0000  0.0000  0.0000 </r>
       </set>
       <set comment="band 18">
        <r>  4.2911  0.6843  0.0000  0.0000  0.0000  0.0000  0.0000  0.0000  0.0000 </r>
       </set>
       <set comment="band 19">
        <r>  0.0000  0.0000  0.0000  0.2448  0.0000  0.0000  0.0000  0.0000  0.0000 </r>
       </set>
       <set comment="band 20">
        <r>  0.0438  0.7289  0.0000  0.0000  0.0000  0.0000  0.0000  0.0000  0.0000 </r>
       </set>
       <set comment="band 21">
        <r>  5.1035  1.5944  0.0000  0.0000  0.0000  0.0000  0.0000  0.0000  0.0000 </r>
       </set>
       <set comment="band 22">
        <r>  0.0000  0.0000  0.0000  0.0000  0.0000  0.0000  0.0000  0.0000  0.0000 </r>
       </set>
       <set comment="band 23">
        <r>  0.0000  0.0000  0.0000  3.2982  0.0000  0.0000  0.0000  0.0000  0.0000 </r>
       </set>
       <set comment="band 24">
        <r>  0.0000  0.0000  1.2614  0.0000  0.0000  0.0000  0.0000  0.0000  0.0000 </r>
       </set>
       <set comment="band 25">
        <r>  0.0000  0.0000  3.1090  0.0000  0.0000  0.0000  0.0000  0.0000  0.0000 </r>
       </set>
       <set comment="band 26">
        <r>  0.8029  1.7907  0.0000  0.0000  0.0000  0.0000  0.0000  0.0000  0.0000 </r>
       </set>
       <set comment="band 27">
        <r>  0.0000  0.0000  0.0000  1.5357  0.0000  0.0000  0.0000  0.0000  0.0000 </r>
       </set>
       <set comment="band 28">
        <r>  0.0000  0.0000  0.0000  0.0000  0.0000  0.0000  0.0000  0.0000  0.0000 </r>
       </set>
       <set comment="band 29">
        <r>  0.0000  0.0000  0.4218  0.0000  0.0000  0.0000  0.0000  0.0000  0.0000 </r>
       </set>
       <set comment="band 30">
        <r>  0.0949  0.3318  0.0000  0.0000  0.0000  0.0000  0.0000  0.0000  0.0000 </r>
       </set>
       <set comment="band 31">
        <r>  0.0000  0.0000  0.0000  0.0236  0.0000  0.0000  0.0000  0.0000  0.0000 </r>
       </set>
       <set comment="band 32">
        <r>  0.4575  0.0107  0.0000  0.0000  0.0000  0.0000  0.0000  0.0000  0.0000 </r>
       </set>
       <set comment="band 33">
        <r>  0.1615  0.1576  0.0000  0.0000  0.0000  0.0000  0.0000  0.0000  0.0000 </r>
       </set>
       <set comment="band 34">
        <r>  0.0000  0.0000  0.2848  0.0000  0.0000  0.0000  0.0000  0.0000  0.0000 </r>
       </set>
       <set comment="band 35">
        <r>  0.0000  0.0000  0.0000  0.0002  0.0000  0.0000  0.0000  0.0000  0.0000 </r>
       </set>
       <set comment="band 36">
        <r>  0.3031  0.1821  0.0000  0.0000  0.0000  0.0000  0.0000  0.0000  0.0000 </r>
       </set>
       <set comment="band 37">
        <r>  0.0000  0.0000  0.0000  0.5079  0.0000  0.0000  0.0000  0.0000  0.0000 </r>
       </set>
       <set comment="band 38">
        <r>  0.0000  0.0000  0.0005  0.0000  0.0000  0.0000  0.0000  0.0000  0.0000 </r>
       </set>
       <set comment="band 39">
        <r>  0.0000  0.0000  0.0000  0.0000  0.0000  0.0000  0.0000  0.0000  0.0000 </r>
       </set>
       <set comment="band 40">
        <r>  0.0152  0.0111  0.0000  0.0000  0.0000  0.0000  0.0000  0.0000  0.0000 </r>
       </set>
       <set comment="band 41">
        <r>  0.0000  0.0000  0.0000  0.0531  0.0000  0.0000  0.0000  0.0000  0.0000 </r>
       </set>
       <set comment="band 42">
        <r>  0.0000  0.0000  0.1646  0.0000  0.0000  0.0000  0.0000  0.0000  0.0000 </r>
       </set>
       <set comment="band 43">
        <r>  0.1357  0.1667  0.0000  0.0000  0.0000  0.0000  0.0000  0.0000  0.0000 </r>
       </set>
       <set comment="band 44">
        <r>  0.0000  0.0000  0.0000  0.0000  0.0000  0.0000  0.0000  0.0000  0.0000 </r>
       </set>
       <set comment="band 45">
        <r>  0.0218  0.0153  0.0000  0.0000  0.0000  0.0000  0.0000  0.0000  0.0000 </r>
       </set>
       <set comment="band 46">
        <r>  0.1493  0.0046  0.0000  0.0000  0.0000  0.0000  0.0000  0.0000  0.0000 </r>
       </set>
       <set comment="band 47">
        <r>  0.0000  0.0000  0.0024  0.0000  0.0000  0.0000  0.0000  0.0000  0.0000 </r>
       </set>
       <set comment="band 48">
        <r>  0.0000  0.0000  0.0000  0.0108  0.0000  0.0000  0.0000  0.0000  0.0000 </r>
       </set>
      </set>
      <set comment="kpoint 72">
       <set comment="band 1">
        <r>  0.0000  0.0000  0.1107  0.1107  0.0000  0.0000  0.0000  0.0000  0.0000 </r>
       </set>
       <set comment="band 2">
        <r>  0.0000  0.0000  0.1107  0.1107  0.0000  0.0000  0.0000  0.0000  0.0000 </r>
       </set>
       <set comment="band 3">
        <r>  0.0000  0.1357  0.0000  0.0000  0.0000  0.0000  0.0000  0.0000  0.0000 </r>
       </set>
       <set comment="band 4">
        <r>  0.4741  0.0000  0.0000  0.0000  0.0000  0.0000  0.0000  0.0000  0.0000 </r>
       </set>
       <set comment="band 5">
        <r>  0.0000  0.0000  0.0527  0.0527  0.0000  0.0000  0.0000  0.0000  0.0000 </r>
       </set>
       <set comment="band 6">
        <r>  0.0000  0.0000  0.0527  0.0527  0.0000  0.0000  0.0000  0.0000  0.0000 </r>
       </set>
       <set comment="band 7">
        <r>  0.0000  0.3841  0.0000  0.0000  0.0000  0.0000  0.0000  0.0000  0.0000 </r>
       </set>
       <set comment="band 8">
        <r>  0.1209  0.0000  0.0000  0.0000  0.0000  0.0000  0.0000  0.0000  0.0000 </r>
       </set>
       <set comment="band 9">
        <r>  0.0000  0.0000  0.0000  0.0000  0.0000  0.0000  0.0000  0.0000  0.0000 </r>
       </set>
       <set comment="band 10">
        <r>  0.0000  0.0004  0.0000  0.0000  0.0000  0.0000  0.0000  0.0000  0.0000 </r>
       </set>
       <set comment="band 11">
        <r>  0.0000  0.0000  0.0934  0.0934  0.0000  0.0000  0.0000  0.0000  0.0000 </r>
       </set>
       <set comment="band 12">
        <r>  0.0000  0.0000  0.0934  0.0934  0.0000  0.0000  0.0000  0.0000  0.0000 </r>
       </set>
       <set comment="band 13">
        <r>  0.0000  0.0000  0.0264  0.0264  0.0000  0.0000  0.0000  0.0000  0.0000 </r>
       </set>
       <set comment="band 14">
        <r>  0.0000  0.0000  0.0264  0.0264  0.0000  0.0000  0.0000  0.0000  0.0000 </r>
       </set>
       <set comment="band 15">
        <r>  0.2290  0.0000  0.0000  0.0000  0.0000  0.0000  0.0000  0.0000  0.0000 </r>
       </set>
       <set comment="band 16">
        <r>  0.0000  0.0000  0.0000  0.0000  0.0000  0.0000  0.0000  0.0000  0.0000 </r>
       </set>
       <set comment="band 17">
        <r>  0.0000  0.0000  0.4411  0.4411  0.0000  0.0000  0.0000  0.0000  0.0000 </r>
       </set>
       <set comment="band 18">
        <r>  0.0000  0.0000  0.4411  0.4411  0.0000  0.0000  0.0000  0.0000  0.0000 </r>
       </set>
       <set comment="band 19">
        <r>  0.0000  2.7430  0.0000  0.0000  0.0000  0.0000  0.0000  0.0000  0.0000 </r>
       </set>
       <set comment="band 20">
        <r>  9.6469  0.0000  0.0000  0.0000  0.0000  0.0000  0.0000  0.0000  0.0000 </r>
       </set>
       <set comment="band 21">
        <r>  0.0000  0.0000  1.5652  1.5653  0.0000  0.0000  0.0000  0.0000  0.0000 </r>
       </set>
       <set comment="band 22">
        <r>  0.0000  0.0000  1.5653  1.5652  0.0000  0.0000  0.0000  0.0000  0.0000 </r>
       </set>
       <set comment="band 23">
        <r>  0.0000  0.6367  0.0000  0.0000  0.0000  0.0000  0.0000  0.0000  0.0000 </r>
       </set>
       <set comment="band 24">
        <r>  0.3455  0.0000  0.0000  0.0000  0.0000  0.0000  0.0000  0.0000  0.0000 </r>
       </set>
       <set comment="band 25">
        <r>  0.0000  0.0000  0.0000  0.0000  0.0000  0.0000  0.0000  0.0000  0.0000 </r>
       </set>
       <set comment="band 26">
        <r>  0.0000  0.0000  0.0000  0.0000  0.0000  0.0000  0.0000  0.0000  0.0000 </r>
       </set>
       <set comment="band 27">
        <r>  0.0000  0.0000  0.2157  0.2157  0.0000  0.0000  0.0000  0.0000  0.0000 </r>
       </set>
       <set comment="band 28">
        <r>  0.0000  0.0000  0.2157  0.2157  0.0000  0.0000  0.0000  0.0000  0.0000 </r>
       </set>
       <set comment="band 29">
        <r>  0.0000  0.0000  0.4158  0.4158  0.0000  0.0000  0.0000  0.0000  0.0000 </r>
       </set>
       <set comment="band 30">
        <r>  0.0000  0.0000  0.4158  0.4158  0.0000  0.0000  0.0000  0.0000  0.0000 </r>
       </set>
       <set comment="band 31">
        <r>  0.0000  1.9976  0.0000  0.0000  0.0000  0.0000  0.0000  0.0000  0.0000 </r>
       </set>
       <set comment="band 32">
        <r>  0.8707  0.0000  0.0000  0.0000  0.0000  0.0000  0.0000  0.0000  0.0000 </r>
       </set>
       <set comment="band 33">
        <r>  0.0000  0.0747  0.0000  0.0000  0.0000  0.0000  0.0000  0.0000  0.0000 </r>
       </set>
       <set comment="band 34">
        <r>  0.0000  0.0000  0.0589  0.0589  0.0000  0.0000  0.0000  0.0000  0.0000 </r>
       </set>
       <set comment="band 35">
        <r>  0.0000  0.0000  0.0589  0.0589  0.0000  0.0000  0.0000  0.0000  0.0000 </r>
       </set>
       <set comment="band 36">
        <r>  0.4170  0.0000  0.0000  0.0000  0.0000  0.0000  0.0000  0.0000  0.0000 </r>
       </set>
       <set comment="band 37">
        <r>  0.0000  0.0000  0.1332  0.1332  0.0000  0.0000  0.0000  0.0000  0.0000 </r>
       </set>
       <set comment="band 38">
        <r>  0.0000  0.0000  0.1332  0.1332  0.0000  0.0000  0.0000  0.0000  0.0000 </r>
       </set>
       <set comment="band 39">
        <r>  0.0000  0.0000  0.0000  0.0000  0.0000  0.0000  0.0000  0.0000  0.0000 </r>
       </set>
       <set comment="band 40">
        <r>  0.0000  0.1505  0.0000  0.0000  0.0000  0.0000  0.0000  0.0000  0.0000 </r>
       </set>
       <set comment="band 41">
        <r>  0.0036  0.0000  0.0000  0.0000  0.0000  0.0000  0.0000  0.0000  0.0000 </r>
       </set>
       <set comment="band 42">
        <r>  0.0000  0.0000  0.0000  0.0000  0.0000  0.0000  0.0000  0.0000  0.0000 </r>
       </set>
       <set comment="band 43">
        <r>  0.0000  0.0000  0.0118  0.0118  0.0000  0.0000  0.0000  0.0000  0.0000 </r>
       </set>
       <set comment="band 44">
        <r>  0.0000  0.0000  0.0118  0.0118  0.0000  0.0000  0.0000  0.0000  0.0000 </r>
       </set>
       <set comment="band 45">
        <r>  0.0000  0.0000  0.0304  0.0305  0.0000  0.0000  0.0000  0.0000  0.0000 </r>
       </set>
       <set comment="band 46">
        <r>  0.0000  0.0000  0.0305  0.0304  0.0000  0.0000  0.0000  0.0000  0.0000 </r>
       </set>
       <set comment="band 47">
        <r>  0.0000  0.2520  0.0000  0.0000  0.0000  0.0000  0.0000  0.0000  0.0000 </r>
       </set>
       <set comment="band 48">
        <r>  0.2095  0.0000  0.0000  0.0000  0.0000  0.0000  0.0000  0.0000  0.0000 </r>
       </set>
      </set>
     </set>
    </set>
   </array>
  </projected>
 </calculation>
 <structure name="finalpos" >
  <crystal>
   <varray name="basis" >
    <v>       0.00000000       2.02400000       2.02400000 </v>
    <v>       2.02400000       0.00000000       2.02400000 </v>
    <v>       2.02400000       2.02400000       0.00000000 </v>
   </varray>
   <i name="volume">     16.58293965 </i>
   <varray name="rec_basis" >
    <v>      -0.24703557       0.24703557       0.24703557 </v>
    <v>       0.24703557      -0.24703557       0.24703557 </v>
    <v>       0.24703557       0.24703557      -0.24703557 </v>
   </varray>
  </crystal>
  <varray name="positions" >
   <v>       0.00000000       0.00000000       0.00000000 </v>
  </varray>
 </structure>
</modeling>
