    1    1    1    2
  0.1658294E+02  0.2862368E-09  0.2862368E-09  0.2862368E-09  0.5000000E-15
   1.0000000000000000E-004
  CAR 
 unknown system                          
      3     56     48

  0.1262379E-14  0.1262379E-14  0.1262379E-14  0.7513148E-03
    1       -3.151240     -3.153074   1.000000   1.000000
    2       20.540421     20.539052   0.000000   0.000000
    3       20.540422     20.539052   0.000000   0.000000
    4       20.540422     20.539053   0.000000   0.000000
    5       21.995154     21.989763   0.000000   0.000000
    6       21.995155     21.989763   0.000000   0.000000
    7       21.995155     21.989765   0.000000   0.000000
    8       24.377622     24.377840   0.000000   0.000000
    9       27.315085     27.311172   0.000000   0.000000
   10       27.315085     27.311172   0.000000   0.000000
   11       30.160676     30.157501   0.000000   0.000000
   12       32.510969     32.509902   0.000000   0.000000
   13       32.510970     32.509902   0.000000   0.000000
   14       32.510970     32.509904   0.000000   0.000000
   15       41.063445     41.060890   0.000000   0.000000
   16       55.993636     55.992549   0.000000   0.000000
   17       55.993636     55.992550   0.000000   0.000000
   18       55.993637     55.992550   0.000000   0.000000
   19       56.045361     56.045520   0.000000   0.000000
   20       59.211999     59.209118   0.000000   0.000000
   21       59.211999     59.209118   0.000000   0.000000
   22       59.211999     59.209119   0.000000   0.000000
   23       62.832578     62.832014   0.000000   0.000000
   24       62.832578     62.832014   0.000000   0.000000
   25       65.076048     65.071984   0.000000   0.000000
   26       65.076048     65.071984   0.000000   0.000000
   27       65.076049     65.071984   0.000000   0.000000
   28       73.173478     73.172210   0.000000   0.000000
   29       73.173478     73.172210   0.000000   0.000000
   30       73.173479     73.172212   0.000000   0.000000
   31       80.816576     80.815341   0.000000   0.000000
   32       83.070183     83.068037   0.000000   0.000000
   33       83.070183     83.068037   0.000000   0.000000
   34       87.199907     87.199749   0.000000   0.000000
   35       87.199907     87.199750   0.000000   0.000000
   36       87.199908     87.199751   0.000000   0.000000
   37       90.082735     90.076542   0.000000   0.000000
   38       90.082735     90.076544   0.000000   0.000000
   39       90.082736     90.076544   0.000000   0.000000
   40       90.890206     90.883102   0.000000   0.000000
   41       93.457004     93.456625   0.000000   0.000000
   42       93.457004     93.456626   0.000000   0.000000
   43       93.457005     93.456626   0.000000   0.000000
   44       93.931406     93.927639   0.000000   0.000000
   45       93.931407     93.927639   0.000000   0.000000
   46       93.931407     93.927639   0.000000   0.000000
   47       96.372780     96.373177   0.000000   0.000000
   48       96.372781     96.373177   0.000000   0.000000

  0.9090909E-01  0.1262062E-14  0.1262062E-14  0.6010518E-02
    1       -2.927415     -2.929249   1.000000   1.000000
    2       17.619233     17.617138   0.000000   0.000000
    3       19.893826     19.891489   0.000000   0.000000
    4       19.893826     19.891490   0.000000   0.000000
    5       22.669766     22.666247   0.000000   0.000000
    6       22.980387     22.975802   0.000000   0.000000
    7       22.980388     22.975804   0.000000   0.000000
    8       26.202276     26.199056   0.000000   0.000000
    9       26.202276     26.199056   0.000000   0.000000
   10       26.470538     26.469698   0.000000   0.000000
   11       29.408689     29.405923   0.000000   0.000000
   12       33.603847     33.602133   0.000000   0.000000
   13       34.081145     34.079490   0.000000   0.000000
   14       34.081145     34.079491   0.000000   0.000000
   15       41.938462     41.936036   0.000000   0.000000
   16       55.266755     55.266163   0.000000   0.000000
   17       55.556850     55.555394   0.000000   0.000000
   18       55.556851     55.555395   0.000000   0.000000
   19       56.340076     56.339555   0.000000   0.000000
   20       57.166349     57.163842   0.000000   0.000000
   21       57.166349     57.163842   0.000000   0.000000
   22       59.195592     59.192905   0.000000   0.000000
   23       61.578557     61.577106   0.000000   0.000000
   24       61.578558     61.577108   0.000000   0.000000
   25       65.276298     65.272190   0.000000   0.000000
   26       68.932164     68.929115   0.000000   0.000000
   27       68.932164     68.929116   0.000000   0.000000
   28       71.526842     71.525742   0.000000   0.000000
   29       72.973580     72.972047   0.000000   0.000000
   30       72.973580     72.972048   0.000000   0.000000
   31       81.822818     81.820289   0.000000   0.000000
   32       81.822818     81.820290   0.000000   0.000000
   33       82.298809     82.297150   0.000000   0.000000
   34       84.084568     84.081369   0.000000   0.000000
   35       85.786488     85.786102   0.000000   0.000000
   36       85.786488     85.786103   0.000000   0.000000
   37       87.981043     87.978446   0.000000   0.000000
   38       87.981043     87.978448   0.000000   0.000000
   39       89.002561     89.000707   0.000000   0.000000
   40       90.082321     90.076233   0.000000   0.000000
   41       91.299824     91.297933   0.000000   0.000000
   42       91.299825     91.297935   0.000000   0.000000
   43       92.876562     92.875212   0.000000   0.000000
   44       94.803084     94.803328   0.000000   0.000000
   45       95.642220     95.642622   0.000000   0.000000
   46       95.642220     95.642621   0.000000   0.000000
   47       97.094665     97.090885   0.000000   0.000000
   48       97.094666     97.090885   0.000000   0.000000

  0.1818182E+00  0.1266963E-14  0.1266963E-14  0.6010518E-02
    1       -2.258043     -2.259876   1.000000   1.000000
    2       13.974232     13.972219   0.000000   0.000000
    3       19.160704     19.158022   0.000000   0.000000
    4       19.160705     19.158023   0.000000   0.000000
    5       22.437101     22.434183   0.000000   0.000000
    6       23.802827     23.798584   0.000000   0.000000
    7       23.802827     23.798585   0.000000   0.000000
    8       25.316027     25.313157   0.000000   0.000000
    9       25.316028     25.313158   0.000000   0.000000
   10       27.892726     27.890151   0.000000   0.000000
   11       29.979519     29.978116   0.000000   0.000000
   12       36.431320     36.428912   0.000000   0.000000
   13       37.234888     37.232697   0.000000   0.000000
   14       37.234889     37.232698   0.000000   0.000000
   15       44.145055     44.142940   0.000000   0.000000
   16       51.709108     51.706748   0.000000   0.000000
   17       51.709108     51.706749   0.000000   0.000000
   18       53.875361     53.874605   0.000000   0.000000
   19       56.375092     56.373753   0.000000   0.000000
   20       56.375093     56.373754   0.000000   0.000000
   21       56.540939     56.540244   0.000000   0.000000
   22       58.857234     58.855060   0.000000   0.000000
   23       61.718441     61.716785   0.000000   0.000000
   24       61.718441     61.716787   0.000000   0.000000
   25       65.866630     65.862373   0.000000   0.000000
   26       68.893776     68.892497   0.000000   0.000000
   27       71.062620     71.060161   0.000000   0.000000
   28       71.062621     71.060161   0.000000   0.000000
   29       73.944432     73.942156   0.000000   0.000000
   30       73.944432     73.942158   0.000000   0.000000
   31       78.844049     78.840107   0.000000   0.000000
   32       78.980793     78.978406   0.000000   0.000000
   33       78.980793     78.978406   0.000000   0.000000
   34       82.811477     82.811694   0.000000   0.000000
   35       82.811477     82.811694   0.000000   0.000000
   36       84.819265     84.817590   0.000000   0.000000
   37       85.651248     85.650870   0.000000   0.000000
   38       86.579613     86.578017   0.000000   0.000000
   39       86.579614     86.578018   0.000000   0.000000
   40       87.490897     87.489300   0.000000   0.000000
   41       89.442969     89.437675   0.000000   0.000000
   42       90.011019     90.008714   0.000000   0.000000
   43       90.011020     90.008717   0.000000   0.000000
   44       93.909377     93.909957   0.000000   0.000000
   45       97.282164     97.281575   0.000000   0.000000
   46       97.282164     97.281576   0.000000   0.000000
   47       99.483676     99.482057   0.000000   0.000000
   48       99.483676     99.482057   0.000000   0.000000

  0.2727273E+00  0.1237835E-14  0.1237835E-14  0.6010518E-02
    1       -1.149336     -1.151169   1.000000   1.000000
    2       10.549547     10.547597  -0.016184  -0.016289
    3       18.751909     18.749102   0.000000   0.000000
    4       18.751909     18.749103   0.000000   0.000000
    5       22.225206     22.222522   0.000000   0.000000
    6       22.257813     22.254542   0.000000   0.000000
    7       22.257813     22.254543   0.000000   0.000000
    8       26.247038     26.244484   0.000000   0.000000
    9       27.361072     27.357373   0.000000   0.000000
   10       27.361072     27.357374   0.000000   0.000000
   11       33.314294     33.312532   0.000000   0.000000
   12       40.516187     40.513210   0.000000   0.000000
   13       40.848862     40.846156   0.000000   0.000000
   14       40.848863     40.846157   0.000000   0.000000
   15       47.029692     47.027952   0.000000   0.000000
   16       47.367940     47.365974   0.000000   0.000000
   17       47.367941     47.365975   0.000000   0.000000
   18       51.909763     51.909076   0.000000   0.000000
   19       56.331749     56.330495   0.000000   0.000000
   20       56.331749     56.330495   0.000000   0.000000
   21       56.766710     56.765801   0.000000   0.000000
   22       57.907491     57.906027   0.000000   0.000000
   23       62.166578     62.164652   0.000000   0.000000
   24       62.166578     62.164653   0.000000   0.000000
   25       66.325398     66.323071   0.000000   0.000000
   26       66.805195     66.800637   0.000000   0.000000
   27       67.836207     67.833422   0.000000   0.000000
   28       67.836207     67.833423   0.000000   0.000000
   29       74.382134     74.381195   0.000000   0.000000
   30       74.382135     74.381196   0.000000   0.000000
   31       75.744077     75.740003   0.000000   0.000000
   32       78.380388     78.380754   0.000000   0.000000
   33       79.117477     79.117027   0.000000   0.000000
   34       79.117478     79.117027   0.000000   0.000000
   35       79.964453     79.962748   0.000000   0.000000
   36       79.964456     79.962748   0.000000   0.000000
   37       81.181290     81.179952   0.000000   0.000000
   38       88.161123     88.159462   0.000000   0.000000
   39       88.161123     88.159464   0.000000   0.000000
   40       88.738159     88.734293   0.000000   0.000000
   41       89.480025     89.477666   0.000000   0.000000
   42       89.480028     89.477668   0.000000   0.000000
   43       91.113160     91.111354   0.000000   0.000000
   44       93.030152     93.029872   0.000000   0.000000
   45       97.507464     97.505967   0.000000   0.000000
   46       97.507459     97.505996   0.000000   0.000000
   47      101.493062    101.491309   0.000000   0.000000
   48      102.438512    102.437979   0.000000   0.000000

  0.3636364E+00  0.1236297E-14  0.1236297E-14  0.6010518E-02
    1        0.388756      0.386926   1.000000   1.000000
    2        7.447068      7.445153   0.711073   0.711877
    3       18.707993     18.705105   0.000000   0.000000
    4       18.707993     18.705106   0.000000   0.000000
    5       20.828655     20.825636   0.000000   0.000000
    6       20.828656     20.825637   0.000000   0.000000
    7       22.296151     22.293617   0.000000   0.000000
    8       24.759341     24.756750   0.000000   0.000000
    9       29.889495     29.885339   0.000000   0.000000
   10       29.889495     29.885341   0.000000   0.000000
   11       36.444807     36.442531   0.000000   0.000000
   12       41.902807     41.900079   0.000000   0.000000
   13       41.902807     41.900080   0.000000   0.000000
   14       45.037688     45.034326   0.000000   0.000000
   15       46.436915     46.435146   0.000000   0.000000
   16       46.436915     46.435146   0.000000   0.000000
   17       48.329780     48.328366   0.000000   0.000000
   18       51.744305     51.744097   0.000000   0.000000
   19       56.257132     56.255898   0.000000   0.000000
   20       56.257133     56.255898   0.000000   0.000000
   21       56.381504     56.380405   0.000000   0.000000
   22       57.055260     57.054092   0.000000   0.000000
   23       61.344451     61.341350   0.000000   0.000000
   24       61.344451     61.341350   0.000000   0.000000
   25       63.740742     63.737354   0.000000   0.000000
   26       64.404971     64.403550   0.000000   0.000000
   27       64.404971     64.403550   0.000000   0.000000
   28       67.966434     67.961316   0.000000   0.000000
   29       69.671399     69.670265   0.000000   0.000000
   30       73.830755     73.830007   0.000000   0.000000
   31       73.830758     73.830010   0.000000   0.000000
   32       76.554009     76.552161   0.000000   0.000000
   33       76.966842     76.966535   0.000000   0.000000
   34       76.966842     76.966535   0.000000   0.000000
   35       78.218820     78.218066   0.000000   0.000000
   36       80.433169     80.431983   0.000000   0.000000
   37       80.433170     80.431986   0.000000   0.000000
   38       88.536952     88.532960   0.000000   0.000000
   39       89.118366     89.116139   0.000000   0.000000
   40       89.118373     89.116136   0.000000   0.000000
   41       90.465687     90.465645   0.000000   0.000000
   42       92.007868     92.005798   0.000000   0.000000
   43       92.007867     92.005799   0.000000   0.000000
   44       94.221270     94.220334   0.000000   0.000000
   45       98.961133     98.959119   0.000000   0.000000
   46       98.961174     98.959140   0.000000   0.000000
   47      102.336600    102.333656   0.000000   0.000000
   48      104.085889    104.084980   0.000000   0.000000

  0.4545455E+00  0.1248969E-14  0.1248969E-14  0.6010518E-02
    1        2.341627      2.339822   1.000000   1.000000
    2        4.707895      4.705970   1.000000   1.000000
    3       19.037169     19.034128   0.000000   0.000000
    4       19.037169     19.034129   0.000000   0.000000
    5       19.749385     19.746578   0.000000   0.000000
    6       19.749385     19.746579   0.000000   0.000000
    7       22.733632     22.731336   0.000000   0.000000
    8       23.570662     23.567878   0.000000   0.000000
    9       32.212941     32.207922   0.000000   0.000000
   10       32.212941     32.207924   0.000000   0.000000
   11       39.008386     39.005235   0.000000   0.000000
   12       39.226269     39.224788   0.000000   0.000000
   13       39.226269     39.224788   0.000000   0.000000
   14       45.811132     45.810791   0.000000   0.000000
   15       49.628499     49.624826   0.000000   0.000000
   16       50.321016     50.318592   0.000000   0.000000
   17       50.321016     50.318592   0.000000   0.000000
   18       54.193086     54.191738   0.000000   0.000000
   19       55.448141     55.446595   0.000000   0.000000
   20       55.448141     55.446596   0.000000   0.000000
   21       55.450534     55.450375   0.000000   0.000000
   22       57.645468     57.643919   0.000000   0.000000
   23       57.936963     57.934348   0.000000   0.000000
   24       57.936964     57.934348   0.000000   0.000000
   25       61.662260     61.659718   0.000000   0.000000
   26       63.622360     63.621101   0.000000   0.000000
   27       64.229441     64.228170   0.000000   0.000000
   28       64.229441     64.228171   0.000000   0.000000
   29       68.955442     68.949528   0.000000   0.000000
   30       73.600007     73.599308   0.000000   0.000000
   31       73.600008     73.599309   0.000000   0.000000
   32       75.528953     75.528387   0.000000   0.000000
   33       75.528953     75.528387   0.000000   0.000000
   34       76.328755     76.328808   0.000000   0.000000
   35       76.862849     76.860764   0.000000   0.000000
   36       80.534945     80.534242   0.000000   0.000000
   37       80.534946     80.534245   0.000000   0.000000
   38       88.587293     88.583039   0.000000   0.000000
   39       88.874896     88.872753   0.000000   0.000000
   40       88.874897     88.872756   0.000000   0.000000
   41       89.205607     89.205899   0.000000   0.000000
   42       94.193277     94.192731   0.000000   0.000000
   43       95.092065     95.090038   0.000000   0.000000
   44       95.092065     95.090039   0.000000   0.000000
   45      101.176476    101.175266   0.000000   0.000000
   46      101.176476    101.175267   0.000000   0.000000
   47      105.119499    105.116784   0.000000   0.000000
   48      105.119503    105.116787   0.000000   0.000000

  0.9090909E-01  0.9090909E-01  0.1262379E-14  0.4507889E-02
    1       -2.852881     -2.854715   1.000000   1.000000
    2       18.631820     18.629234   0.000000   0.000000
    3       18.631820     18.629234   0.000000   0.000000
    4       18.931581     18.930637   0.000000   0.000000
    5       21.328142     21.322868   0.000000   0.000000
    6       24.291805     24.289012   0.000000   0.000000
    7       24.336049     24.331693   0.000000   0.000000
    8       24.336050     24.331694   0.000000   0.000000
    9       26.582739     26.582518   0.000000   0.000000
   10       27.591101     27.587141   0.000000   0.000000
   11       30.594246     30.590829   0.000000   0.000000
   12       32.856672     32.855753   0.000000   0.000000
   13       32.856673     32.855754   0.000000   0.000000
   14       35.566632     35.564339   0.000000   0.000000
   15       42.373621     42.371255   0.000000   0.000000
   16       55.177241     55.175542   0.000000   0.000000
   17       55.177241     55.175542   0.000000   0.000000
   18       55.402006     55.401816   0.000000   0.000000
   19       56.510598     56.509867   0.000000   0.000000
   20       57.444221     57.441732   0.000000   0.000000
   21       57.444221     57.441733   0.000000   0.000000
   22       57.854504     57.852669   0.000000   0.000000
   23       59.406311     59.403413   0.000000   0.000000
   24       62.753471     62.752873   0.000000   0.000000
   25       67.469808     67.466052   0.000000   0.000000
   26       67.469808     67.466053   0.000000   0.000000
   27       70.389584     70.387891   0.000000   0.000000
   28       70.431474     70.428841   0.000000   0.000000
   29       73.431032     73.429992   0.000000   0.000000
   30       73.431033     73.429993   0.000000   0.000000
   31       80.619173     80.616809   0.000000   0.000000
   32       82.568366     82.566113   0.000000   0.000000
   33       82.682256     82.679544   0.000000   0.000000
   34       82.682256     82.679545   0.000000   0.000000
   35       83.403817     83.400451   0.000000   0.000000
   36       84.123951     84.122568   0.000000   0.000000
   37       88.738401     88.740698   0.000000   0.000000
   38       90.076792     90.074526   0.000000   0.000000
   39       90.076792     90.074525   0.000000   0.000000
   40       90.107156     90.105171   0.000000   0.000000
   41       90.107157     90.105174   0.000000   0.000000
   42       92.127359     92.125142   0.000000   0.000000
   43       93.128593     93.123138   0.000000   0.000000
   44       94.397430     94.393232   0.000000   0.000000
   45       94.791984     94.791601   0.000000   0.000000
   46       97.776547     97.775224   0.000000   0.000000
   47       97.801901     97.800116   0.000000   0.000000
   48       97.801934     97.800187   0.000000   0.000000

  0.1818182E+00  0.9090909E-01  0.1261396E-14  0.1803156E-01
    1       -2.332244     -2.334077   1.000000   1.000000
    2       15.296172     15.294199   0.000000   0.000000
    3       17.705705     17.703049   0.000000   0.000000
    4       19.046995     19.044944   0.000000   0.000000
    5       21.665400     21.660203   0.000000   0.000000
    6       22.280687     22.278641   0.000000   0.000000
    7       24.715180     24.711758   0.000000   0.000000
    8       25.735904     25.731152   0.000000   0.000000
    9       27.075748     27.072623   0.000000   0.000000
   10       29.500415     29.498546   0.000000   0.000000
   11       29.951615     29.949510   0.000000   0.000000
   12       34.729593     34.728154   0.000000   0.000000
   13       35.037388     35.035590   0.000000   0.000000
   14       37.875218     37.872465   0.000000   0.000000
   15       44.420917     44.418778   0.000000   0.000000
   16       51.716400     51.714104   0.000000   0.000000
   17       52.803577     52.801447   0.000000   0.000000
   18       55.400606     55.399857   0.000000   0.000000
   19       55.655973     55.655033   0.000000   0.000000
   20       56.168145     56.166833   0.000000   0.000000
   21       56.989071     56.987667   0.000000   0.000000
   22       57.964567     57.962203   0.000000   0.000000
   23       59.366398     59.363769   0.000000   0.000000
   24       62.305723     62.304719   0.000000   0.000000
   25       67.461712     67.459588   0.000000   0.000000
   26       68.412070     68.408444   0.000000   0.000000
   27       71.311529     71.308713   0.000000   0.000000
   28       72.533164     72.531773   0.000000   0.000000
   29       72.575756     72.574108   0.000000   0.000000
   30       74.908108     74.906393   0.000000   0.000000
   31       77.296539     77.293907   0.000000   0.000000
   32       78.425926     78.422469   0.000000   0.000000
   33       80.657621     80.654730   0.000000   0.000000
   34       81.700415     81.698414   0.000000   0.000000
   35       82.482604     82.480889   0.000000   0.000000
   36       84.086080     84.085441   0.000000   0.000000
   37       86.207592     86.206063   0.000000   0.000000
   38       86.270890     86.268816   0.000000   0.000000
   39       89.139415     89.138488   0.000000   0.000000
   40       89.254231     89.253094   0.000000   0.000000
   41       89.778009     89.776484   0.000000   0.000000
   42       91.350871     91.350246   0.000000   0.000000
   43       93.737849     93.735577   0.000000   0.000000
   44       94.414225     94.410844   0.000000   0.000000
   45       94.514266     94.512489   0.000000   0.000000
   46       96.173372     96.172049   0.000000   0.000000
   47       97.031594     97.031271   0.000000   0.000000
   48       97.614117     97.612255   0.000000   0.000000

  0.2727273E+00  0.9090909E-01  0.1266963E-14  0.1803156E-01
    1       -1.370394     -1.372226   1.000000   1.000000
    2       11.821547     11.819607   0.000000   0.000000
    3       17.149529     17.146840   0.000000   0.000000
    4       18.706854     18.704457   0.000000   0.000000
    5       20.015940     20.012840   0.000000   0.000000
    6       23.795677     23.791533   0.000000   0.000000
    7       24.649434     24.646784   0.000000   0.000000
    8       24.757427     24.753691   0.000000   0.000000
    9       28.254288     28.251807   0.000000   0.000000
   10       28.539682     28.535805   0.000000   0.000000
   11       33.055533     33.053762   0.000000   0.000000
   12       38.084357     38.082318   0.000000   0.000000
   13       39.026363     39.023955   0.000000   0.000000
   14       40.879901     40.876845   0.000000   0.000000
   15       47.131980     47.129984   0.000000   0.000000
   16       47.326707     47.324801   0.000000   0.000000
   17       49.079453     49.077333   0.000000   0.000000
   18       53.668014     53.666997   0.000000   0.000000
   19       55.535570     55.535007   0.000000   0.000000
   20       56.169381     56.168154   0.000000   0.000000
   21       57.118545     57.117052   0.000000   0.000000
   22       58.542213     58.539713   0.000000   0.000000
   23       58.611088     58.609196   0.000000   0.000000
   24       62.523911     62.522639   0.000000   0.000000
   25       65.011549     65.008876   0.000000   0.000000
   26       68.781335     68.777634   0.000000   0.000000
   27       68.845850     68.843104   0.000000   0.000000
   28       71.528651     71.527444   0.000000   0.000000
   29       72.014248     72.013287   0.000000   0.000000
   30       73.724368     73.721137   0.000000   0.000000
   31       76.996242     76.993528   0.000000   0.000000
   32       77.119718     77.119132   0.000000   0.000000
   33       78.608239     78.605812   0.000000   0.000000
   34       80.685917     80.684770   0.000000   0.000000
   35       81.014612     81.012718   0.000000   0.000000
   36       81.475982     81.474724   0.000000   0.000000
   37       82.624780     82.624085   0.000000   0.000000
   38       86.745730     86.743729   0.000000   0.000000
   39       86.791918     86.789443   0.000000   0.000000
   40       87.046535     87.045316   0.000000   0.000000
   41       91.007307     91.005657   0.000000   0.000000
   42       92.378081     92.377848   0.000000   0.000000
   43       92.601572     92.599434   0.000000   0.000000
   44       94.135786     94.132652   0.000000   0.000000
   45       94.481511     94.479805   0.000000   0.000000
   46       97.272109     97.271170   0.000000   0.000000
   47       99.724152     99.723052   0.000000   0.000000
   48      100.796796    100.796328   0.000000   0.000000

  0.3636364E+00  0.9090909E-01  0.1237502E-14  0.1803156E-01
    1        0.023903      0.022072   1.000000   1.000000
    2        8.620930      8.619017   0.196705   0.197549
    3       16.970321     16.967601   0.000000   0.000000
    4       18.366413     18.364480   0.000000   0.000000
    5       18.618210     18.614711   0.000000   0.000000
    6       23.298526     23.295166   0.000000   0.000000
    7       24.394210     24.390522   0.000000   0.000000
    8       26.045878     26.043259   0.000000   0.000000
    9       27.216340     27.213382   0.000000   0.000000
   10       30.850562     30.846115   0.000000   0.000000
   11       36.280086     36.277828   0.000000   0.000000
   12       40.871667     40.869126   0.000000   0.000000
   13       43.232434     43.229214   0.000000   0.000000
   14       43.714572     43.711315   0.000000   0.000000
   15       44.217704     44.216340   0.000000   0.000000
   16       46.384380     46.382984   0.000000   0.000000
   17       49.783793     49.781877   0.000000   0.000000
   18       52.264238     52.263778   0.000000   0.000000
   19       55.626493     55.625824   0.000000   0.000000
   20       56.239414     56.238229   0.000000   0.000000
   21       56.663625     56.661946   0.000000   0.000000
   22       57.589899     57.588629   0.000000   0.000000
   23       59.153429     59.150663   0.000000   0.000000
   24       61.724492     61.721426   0.000000   0.000000
   25       63.219305     63.217992   0.000000   0.000000
   26       64.913092     64.909793   0.000000   0.000000
   27       66.454993     66.451915   0.000000   0.000000
   28       70.425813     70.425271   0.000000   0.000000
   29       70.479927     70.478968   0.000000   0.000000
   30       71.357715     71.354035   0.000000   0.000000
   31       72.602779     72.601491   0.000000   0.000000
   32       76.124420     76.123881   0.000000   0.000000
   33       77.155705     77.154795   0.000000   0.000000
   34       78.169271     78.168401   0.000000   0.000000
   35       80.578454     80.577284   0.000000   0.000000
   36       81.537757     81.536304   0.000000   0.000000
   37       83.329390     83.326059   0.000000   0.000000
   38       84.616167     84.615546   0.000000   0.000000
   39       87.280933     87.279132   0.000000   0.000000
   40       88.615365     88.613024   0.000000   0.000000
   41       92.516340     92.515775   0.000000   0.000000
   42       93.583983     93.581409   0.000000   0.000000
   43       93.724131     93.722256   0.000000   0.000000
   44       94.459778     94.458055   0.000000   0.000000
   45       96.180733     96.177995   0.000000   0.000000
   46       98.322240     98.320322   0.000000   0.000000
   47      101.133260    101.132942   0.000000   0.000000
   48      103.246686    103.246310   0.000000   0.000000

  0.4545455E+00  0.9090909E-01  0.1249509E-14  0.1803156E-01
    1        1.837927      1.836108   1.000000   1.000000
    2        5.764476      5.762569   1.045090   1.044837
    3       17.143140     17.140596   0.000000   0.000000
    4       17.170608     17.167840   0.000000   0.000000
    5       18.834048     18.831185   0.000000   0.000000
    6       22.121374     22.118207   0.000000   0.000000
    7       24.644883     24.640632   0.000000   0.000000
    8       25.336062     25.334634   0.000000   0.000000
    9       29.467802     29.463825   0.000000   0.000000
   10       32.730361     32.725036   0.000000   0.000000
   11       39.107084     39.104130   0.000000   0.000000
   12       39.153449     39.152217   0.000000   0.000000
   13       40.666538     40.664346   0.000000   0.000000
   14       47.122230     47.120249   0.000000   0.000000
   15       47.442708     47.440582   0.000000   0.000000
   16       48.740729     48.738154   0.000000   0.000000
   17       49.814313     49.812208   0.000000   0.000000
   18       54.203338     54.201913   0.000000   0.000000
   19       55.055808     55.055046   0.000000   0.000000
   20       55.661865     55.660654   0.000000   0.000000
   21       56.199047     56.197906   0.000000   0.000000
   22       56.810013     56.808919   0.000000   0.000000