 running on    4 total cores
 distrk:  each k-point on    4 cores,    1 groups
 distr:  one band on    1 cores,    4 groups
 vasp.6.2.1 16May21 (build Aug 15 2022 14:47:30) complex                         
 POSCAR found type information on POSCAR Cu
 POSCAR found :  1 types and       4 ions
 scaLAPACK will be used
 LDA part: xc-table for Pade appr. of Perdew
 POSCAR found type information on POSCAR Cu
 POSCAR found :  1 types and       4 ions
 POSCAR, INCAR and KPOINTS ok, starting setup
 FFT: planning ...
 WAVECAR not read
 entering main loop
       N       E                     dE             d eps       ncg     rms          rms(c)
DAV:   1     0.907107444015E+03    0.90711E+03   -0.46674E+04 27784   0.273E+03
DAV:   2     0.390609359157E+02   -0.86805E+03   -0.84832E+03 24544   0.759E+02
DAV:   3    -0.183786935120E+02   -0.57440E+02   -0.55445E+02 26328   0.217E+02
DAV:   4    -0.197711977070E+02   -0.13925E+01   -0.13819E+01 26104   0.333E+01
DAV:   5    -0.198143646789E+02   -0.43167E-01   -0.43166E-01 29712   0.555E+00    0.161E+01
RMM:   6    -0.178305406640E+02    0.19838E+01   -0.36350E+01 24572   0.608E+01    0.104E+01
RMM:   7    -0.163832085184E+02    0.14473E+01   -0.66245E+00 24120   0.282E+01    0.120E+00
RMM:   8    -0.163471755896E+02    0.36033E-01   -0.67653E-02 25349   0.307E+00    0.336E-01
RMM:   9    -0.163463841105E+02    0.79148E-03   -0.14202E-02 25881   0.977E-01    0.939E-02
RMM:  10    -0.163466472236E+02   -0.26311E-03   -0.30251E-03 26231   0.651E-01    0.658E-02
RMM:  11    -0.163466672194E+02   -0.19996E-04   -0.10118E-03 27819   0.258E-01    0.204E-02
RMM:  12    -0.163466874219E+02   -0.20203E-04   -0.25507E-04 30591   0.147E-01    0.781E-03
RMM:  13    -0.163466953712E+02   -0.79493E-05   -0.66582E-05 32746   0.529E-02    0.275E-03
RMM:  14    -0.163466969635E+02   -0.15924E-05   -0.10073E-05 34032   0.230E-02    0.837E-04
RMM:  15    -0.163466971237E+02   -0.16011E-06   -0.14276E-06 34915   0.790E-03    0.123E-04
RMM:  16    -0.163466971819E+02   -0.58211E-07   -0.15626E-07 26291   0.299E-03    0.351E-04
RMM:  17    -0.163466971262E+02    0.55650E-07   -0.23500E-08 14744   0.148E-03    0.224E-05
RMM:  18    -0.163466971326E+02   -0.63410E-08   -0.63503E-09 13326   0.744E-04
   1 F= -.16346697E+02 E0= -.16347725E+02  d E =0.308429E-02
