 vasp.6.2.1 16May21 (build Aug 15 2022 14:47:30) complex                         
 executed on             LinuxGNU date 2025.12.15  21:34:14
 running on   48 total cores
 distrk:  each k-point on   48 cores,    1 groups
 distr:  one band on NCORE=   1 cores,   48 groups


--------------------------------------------------------------------------------------------------------


 INCAR:
   ALGO = Fast
   EDIFF = 5e-05
   ENCUT = 520.0
   ISMEAR = -5
   ISPIN = 2
   LASPH = True
   LCHARG = True
   LORBIT = 11
   LREAL = False
   LWAVE = False
   MAGMOM = 1*0.6
   NELM = 100
   NSW = 0
   PREC = Accurate
   SIGMA = 0.05

 POTCAR:    PAW_PBE Al 04Jan2001                  
 -----------------------------------------------------------------------------
|                                                                             |
|           W    W    AA    RRRRR   N    N  II  N    N   GGGG   !!!           |
|           W    W   A  A   R    R  NN   N  II  NN   N  G    G  !!!           |
|           W    W  A    A  R    R  N N  N  II  N N  N  G       !!!           |
|           W WW W  AAAAAA  RRRRR   N  N N  II  N  N N  G  GGG   !            |
|           WW  WW  A    A  R   R   N   NN  II  N   NN  G    G                |
|           W    W  A    A  R    R  N    N  II  N    N   GGGG   !!!           |
|                                                                             |
|     For optimal performance we recommend to set                             |
|       NCORE = 2 up to number-of-cores-per-socket                            |
|     NCORE specifies how many cores store one orbital (NPAR=cpu/NCORE).      |
|     This setting can greatly improve the performance of VASP for DFT.       |
|     The default, NCORE=1 might be grossly inefficient on modern             |
|     multi-core architectures or massively parallel machines. Do your        |
|     own testing! More info at https://www.vasp.at/wiki/index.php/NCORE      |
|     Unfortunately you need to use the default for GW and RPA                |
|     calculations (for HF NCORE is supported but not extensively tested      |
|     yet).                                                                   |
|                                                                             |
 -----------------------------------------------------------------------------

 POTCAR:    PAW_PBE Al 04Jan2001                  
   VRHFIN =Al: s2p1                                                                                 
   LEXCH  = PE                                                                                      
   EATOM  =    53.5387 eV,    3.9350 Ry                                                             
                                                                                                    
   TITEL  = PAW_PBE Al 04Jan2001                                                                    
   LULTRA =        F    use ultrasoft PP ?                                                          
   IUNSCR =        1    unscreen: 0-lin 1-nonlin 2-no                                               
   RPACOR =    1.500    partial core radius                                                         
   POMASS =   26.981; ZVAL   =    3.000    mass and valenz                                          
   RCORE  =    1.900    outmost cutoff radius                                                       
   RWIGS  =    2.650; RWIGS  =    1.402    wigner-seitz radius (au A)                               
   ENMAX  =  240.300; ENMIN  =  180.225 eV                                                          
   ICORE  =        2    local potential                                                             
   LCOR   =        T    correct aug charges                                                         
   LPAW   =        T    paw PP                                                                      
   EAUG   =  291.052                                                                                
   DEXC   =    0.000                                                                                
   RMAX   =    1.939    core radius for proj-oper                                                   
   RAUG   =    1.300    factor for augmentation sphere                                              
   RDEP   =    1.966    radius for radial grids                                                     
   RDEPT  =    1.856    core radius for aug-charge                                                  
                                                                                                    
   Atomic configuration                                                                             
    6 entries                                                                                       
     n  l   j            E        occ.                                                              
     1  0  0.50     -1511.1048   2.0000                                                             
     2  0  0.50      -108.1629   2.0000                                                             
     2  1  1.50       -69.6402   6.0000                                                             
     3  0  0.50        -7.7528   2.0000                                                             
     3  1  1.50        -2.7121   1.0000                                                             
     3  2  2.50        -2.7212   0.0000                                                             
   Description                                                                                      
     l       E           TYP  RCUT    TYP  RCUT                                                     
     0     -7.7528455     23  1.900                                                                 
     0     -3.3096929     23  1.900                                                                 
     1     -2.7120682     23  1.900                                                                 
     1     13.6058260     23  1.900                                                                 
     2     -2.7211652      7  1.900                                                                 
  local pseudopotential read in
  partial core-charges read in
  partial kinetic energy density read in
  atomic valenz-charges read in
  non local Contribution for L=           0  read in
    real space projection operators read in
  non local Contribution for L=           0  read in
    real space projection operators read in
  non local Contribution for L=           1  read in
    real space projection operators read in
  non local Contribution for L=           1  read in
    real space projection operators read in
    PAW grid and wavefunctions read in

   number of l-projection  operators is LMAX  =           4
   number of lm-projection operators is LMMAX =           8

  PAW_PBE Al 04Jan2001                  :
 energy of atom  1       EATOM=  -53.5387
 kinetic energy error for atom=    0.0002 (will be added to EATOM!!)


 POSCAR: # Generated by Masgent for k-point conve
  positions in direct lattice
  No initial velocities read in
 exchange correlation table for  LEXCH =        8
   RHO(1)=    0.500       N(1)  =     2000
   RHO(2)=  100.500       N(2)  =     4000

 VTST: version 4.2, (08/11/21)

 CHAIN: initializing optimizer
 
 OPT: Using VASP Dynamics algorithm
 CHAIN: Read ICHAIN            0

 POSCAR: # Generated by Masgent for k-point conve
  positions in direct lattice
  No initial velocities read in



--------------------------------------------------------------------------------------------------------


 ion  position               nearest neighbor table
   1  0.000  0.000  0.000-

  LATTYP: Found a face centered cubic cell.
 ALAT       =     4.0480000000
  
  Lattice vectors:
  
 A1 = (   0.0000000000,   2.0240000000,   2.0240000000)
 A2 = (   2.0240000000,   0.0000000000,   2.0240000000)
 A3 = (   2.0240000000,   2.0240000000,   0.0000000000)


Analysis of symmetry for initial positions (statically):
=====================================================================
 Subroutine PRICEL returns:
 Original cell was already a primitive cell.
 

 Routine SETGRP: Setting up the symmetry group for a 
 face centered cubic supercell.


 Subroutine GETGRP returns: Found 48 space group operations
 (whereof 48 operations were pure point group operations)
 out of a pool of 48 trial point group operations.


The static configuration has the point symmetry O_h .


Analysis of symmetry for dynamics (positions and initial velocities):
=====================================================================
 Subroutine PRICEL returns:
 Original cell was already a primitive cell.
 

 Routine SETGRP: Setting up the symmetry group for a 
 face centered cubic supercell.


 Subroutine GETGRP returns: Found 48 space group operations
 (whereof 48 operations were pure point group operations)
 out of a pool of 48 trial point group operations.


The dynamic configuration has the point symmetry O_h .


Analysis of structural, dynamic, and magnetic symmetry:
=====================================================================
 Subroutine PRICEL returns:
 Original cell was already a primitive cell.
 

 Routine SETGRP: Setting up the symmetry group for a 
 face centered cubic supercell.


 Subroutine GETGRP returns: Found 48 space group operations
 (whereof 48 operations were pure point group operations)
 out of a pool of 48 trial point group operations.


The overall configuration has the point symmetry O_h .


 Subroutine INISYM returns: Found 48 space group operations
 (whereof 48 operations are pure point group operations),
 and found     1 'primitive' translations


----------------------------------------------------------------------------------------

                                     Primitive cell                                     

  volume of cell :      16.5829

  direct lattice vectors                    reciprocal lattice vectors
     0.000000000  2.024000000  2.024000000    -0.247035573  0.247035573  0.247035573
     2.024000000  0.000000000  2.024000000     0.247035573 -0.247035573  0.247035573
     2.024000000  2.024000000  0.000000000     0.247035573  0.247035573 -0.247035573

  length of vectors
     2.862368250  2.862368250  2.862368250     0.427878164  0.427878164  0.427878164

  position of ions in fractional coordinates (direct lattice)
     0.000000000  0.000000000  0.000000000

  ion indices of the primitive-cell ions
   primitive index   ion index
                 1           1

----------------------------------------------------------------------------------------



 KPOINTS: # Generated by Masgent for k-point conve

Automatic generation of k-mesh.
 Grid dimensions read from file:
 generate k-points for:   21   21   21

 Generating k-lattice:

  Cartesian coordinates                     Fractional coordinates (reciprocal lattice)
    -0.011763599  0.011763599  0.011763599     0.047619048  0.000000000  0.000000000
     0.011763599 -0.011763599  0.011763599     0.000000000  0.047619048  0.000000000
     0.011763599  0.011763599 -0.011763599     0.000000000  0.000000000  0.047619048

  Length of vectors
     0.020375151  0.020375151  0.020375151

  Shift w.r.t. Gamma in fractional coordinates (k-lattice)
     0.000000000  0.000000000  0.000000000

 TETIRR: Found   1276 inequivalent tetrahedra from    55566
 
 Subroutine IBZKPT returns following result:
 ===========================================
 
 Found    286 irreducible k-points:
 
 Following reciprocal coordinates:
            Coordinates               Weight
  0.000000  0.000000  0.000000      1.000000
  0.047619  0.000000  0.000000      8.000000
  0.095238  0.000000  0.000000      8.000000
  0.142857  0.000000  0.000000      8.000000
  0.190476  0.000000  0.000000      8.000000
  0.238095  0.000000  0.000000      8.000000
  0.285714  0.000000  0.000000      8.000000
  0.333333  0.000000  0.000000      8.000000
  0.380952  0.000000  0.000000      8.000000
  0.428571  0.000000  0.000000      8.000000
  0.476190  0.000000  0.000000      8.000000
  0.047619  0.047619  0.000000      6.000000
  0.095238  0.047619  0.000000     24.000000
  0.142857  0.047619  0.000000     24.000000
  0.190476  0.047619  0.000000     24.000000
  0.238095  0.047619  0.000000     24.000000
  0.285714  0.047619  0.000000     24.000000
  0.333333  0.047619  0.000000     24.000000
  0.380952  0.047619  0.000000     24.000000
  0.428571  0.047619  0.000000     24.000000
  0.476190  0.047619  0.000000     24.000000
 -0.476190  0.047619  0.000000     24.000000
 -0.428571  0.047619  0.000000     24.000000
 -0.380952  0.047619  0.000000     24.000000
 -0.333333  0.047619  0.000000     24.000000
 -0.285714  0.047619  0.000000     24.000000
 -0.238095  0.047619  0.000000     24.000000
 -0.190476  0.047619  0.000000     24.000000
 -0.142857  0.047619  0.000000     24.000000
 -0.095238  0.047619  0.000000     24.000000
 -0.047619  0.047619  0.000000     12.000000
  0.095238  0.095238  0.000000      6.000000
  0.142857  0.095238  0.000000     24.000000
  0.190476  0.095238  0.000000     24.000000
  0.238095  0.095238  0.000000     24.000000
  0.285714  0.095238  0.000000     24.000000
  0.333333  0.095238  0.000000     24.000000
  0.380952  0.095238  0.000000     24.000000
  0.428571  0.095238  0.000000     24.000000
  0.476190  0.095238  0.000000     24.000000
 -0.476190  0.095238  0.000000     24.000000
 -0.428571  0.095238  0.000000     24.000000
 -0.380952  0.095238  0.000000     24.000000
 -0.333333  0.095238  0.000000     24.000000
 -0.285714  0.095238  0.000000     24.000000
 -0.238095  0.095238  0.000000     24.000000
 -0.190476  0.095238  0.000000     24.000000
 -0.142857  0.095238  0.000000     24.000000
 -0.095238  0.095238  0.000000     12.000000
  0.142857  0.142857  0.000000      6.000000
  0.190476  0.142857  0.000000     24.000000
  0.238095  0.142857  0.000000     24.000000
  0.285714  0.142857  0.000000     24.000000
  0.333333  0.142857  0.000000     24.000000
  0.380952  0.142857  0.000000     24.000000
  0.428571  0.142857  0.000000     24.000000
  0.476190  0.142857  0.000000     24.000000
 -0.476190  0.142857  0.000000     24.000000
 -0.428571  0.142857  0.000000     24.000000
 -0.380952  0.142857  0.000000     24.000000
 -0.333333  0.142857  0.000000     24.000000
 -0.285714  0.142857  0.000000     24.000000
 -0.238095  0.142857  0.000000     24.000000
 -0.190476  0.142857  0.000000     24.000000
 -0.142857  0.142857  0.000000     12.000000
  0.190476  0.190476  0.000000      6.000000
  0.238095  0.190476  0.000000     24.000000
  0.285714  0.190476  0.000000     24.000000
  0.333333  0.190476  0.000000     24.000000
  0.380952  0.190476  0.000000     24.000000
  0.428571  0.190476  0.000000     24.000000
  0.476190  0.190476  0.000000     24.000000
 -0.476190  0.190476  0.000000     24.000000
 -0.428571  0.190476  0.000000     24.000000
 -0.380952  0.190476  0.000000     24.000000
 -0.333333  0.190476  0.000000     24.000000
 -0.285714  0.190476  0.000000     24.000000
 -0.238095  0.190476  0.000000     24.000000
 -0.190476  0.190476  0.000000     12.000000
  0.238095  0.238095  0.000000      6.000000
  0.285714  0.238095  0.000000     24.000000
  0.333333  0.238095  0.000000     24.000000
  0.380952  0.238095  0.000000     24.000000
  0.428571  0.238095  0.000000     24.000000
  0.476190  0.238095  0.000000     24.000000
 -0.476190  0.238095  0.000000     24.000000
 -0.428571  0.238095  0.000000     24.000000
 -0.380952  0.238095  0.000000     24.000000
 -0.333333  0.238095  0.000000     24.000000
 -0.285714  0.238095  0.000000     24.000000
 -0.238095  0.238095  0.000000     12.000000
  0.285714  0.285714  0.000000      6.000000
  0.333333  0.285714  0.000000     24.000000
  0.380952  0.285714  0.000000     24.000000
  0.428571  0.285714  0.000000     24.000000
  0.476190  0.285714  0.000000     24.000000
 -0.476190  0.285714  0.000000     24.000000
 -0.428571  0.285714  0.000000     24.000000
 -0.380952  0.285714  0.000000     24.000000
 -0.333333  0.285714  0.000000     24.000000
 -0.285714  0.285714  0.000000     12.000000
  0.333333  0.333333  0.000000      6.000000
  0.380952  0.333333  0.000000     24.000000
  0.428571  0.333333  0.000000     24.000000
  0.476190  0.333333  0.000000     24.000000
 -0.476190  0.333333  0.000000     24.000000
 -0.428571  0.333333  0.000000     24.000000
 -0.380952  0.333333  0.000000     24.000000
 -0.333333  0.333333  0.000000     12.000000
  0.380952  0.380952  0.000000      6.000000
  0.428571  0.380952  0.000000     24.000000
  0.476190  0.380952  0.000000     24.000000
 -0.476190  0.380952  0.000000     24.000000
 -0.428571  0.380952  0.000000     24.000000
 -0.380952  0.380952  0.000000     12.000000
  0.428571  0.428571  0.000000      6.000000
  0.476190  0.428571  0.000000     24.000000
 -0.476190  0.428571  0.000000     24.000000
 -0.428571  0.428571  0.000000     12.000000
  0.476190  0.476190  0.000000      6.000000
 -0.476190  0.476190  0.000000     12.000000
  0.142857  0.095238  0.047619     24.000000
  0.190476  0.095238  0.047619     48.000000
  0.238095  0.095238  0.047619     48.000000
  0.285714  0.095238  0.047619     48.000000
  0.333333  0.095238  0.047619     48.000000
  0.380952  0.095238  0.047619     48.000000
  0.428571  0.095238  0.047619     48.000000
  0.476190  0.095238  0.047619     48.000000
 -0.476190  0.095238  0.047619     48.000000
  0.190476  0.142857  0.047619     24.000000
  0.238095  0.142857  0.047619     48.000000
  0.285714  0.142857  0.047619     48.000000
  0.333333  0.142857  0.047619     48.000000
  0.380952  0.142857  0.047619     48.000000
  0.428571  0.142857  0.047619     48.000000
  0.476190  0.142857  0.047619     48.000000
 -0.476190  0.142857  0.047619     48.000000
 -0.428571  0.142857  0.047619     48.000000
 -0.380952  0.142857  0.047619     48.000000
 -0.333333  0.142857  0.047619     48.000000
 -0.285714  0.142857  0.047619     48.000000
 -0.238095  0.142857  0.047619     48.000000
 -0.190476  0.142857  0.047619     48.000000
 -0.142857  0.142857  0.047619     48.000000
 -0.095238  0.142857  0.047619     24.000000
  0.238095  0.190476  0.047619     24.000000
  0.285714  0.190476  0.047619     48.000000
  0.333333  0.190476  0.047619     48.000000
  0.380952  0.190476  0.047619     48.000000
  0.428571  0.190476  0.047619     48.000000
  0.476190  0.190476  0.047619     48.000000
 -0.476190  0.190476  0.047619     48.000000
 -0.428571  0.190476  0.047619     48.000000
 -0.380952  0.190476  0.047619     48.000000
 -0.333333  0.190476  0.047619     48.000000
 -0.285714  0.190476  0.047619     48.000000
 -0.238095  0.190476  0.047619     48.000000
 -0.190476  0.190476  0.047619     48.000000
 -0.142857  0.190476  0.047619     24.000000
  0.285714  0.238095  0.047619     24.000000
  0.333333  0.238095  0.047619     48.000000
  0.380952  0.238095  0.047619     48.000000
  0.428571  0.238095  0.047619     48.000000
  0.476190  0.238095  0.047619     48.000000
 -0.476190  0.238095  0.047619     48.000000
 -0.428571  0.238095  0.047619     48.000000
 -0.380952  0.238095  0.047619     48.000000
 -0.333333  0.238095  0.047619     48.000000
 -0.285714  0.238095  0.047619     48.000000
 -0.238095  0.238095  0.047619     48.000000
 -0.190476  0.238095  0.047619     24.000000
  0.333333  0.285714  0.047619     24.000000
  0.380952  0.285714  0.047619     48.000000
  0.428571  0.285714  0.047619     48.000000
  0.476190  0.285714  0.047619     48.000000
 -0.476190  0.285714  0.047619     48.000000
 -0.428571  0.285714  0.047619     48.000000
 -0.380952  0.285714  0.047619     48.000000
 -0.333333  0.285714  0.047619     48.000000
 -0.285714  0.285714  0.047619     48.000000
 -0.238095  0.285714  0.047619     24.000000
  0.380952  0.333333  0.047619     24.000000
  0.428571  0.333333  0.047619     48.000000
  0.476190  0.333333  0.047619     48.000000
 -0.476190  0.333333  0.047619     48.000000
 -0.428571  0.333333  0.047619     48.000000
 -0.380952  0.333333  0.047619     48.000000
 -0.333333  0.333333  0.047619     48.000000
 -0.285714  0.333333  0.047619     24.000000
  0.428571  0.380952  0.047619     24.000000
  0.476190  0.380952  0.047619     48.000000
 -0.476190  0.380952  0.047619     48.000000
 -0.428571  0.380952  0.047619     48.000000
 -0.380952  0.380952  0.047619     48.000000
 -0.333333  0.380952  0.047619     24.000000
  0.476190  0.428571  0.047619     24.000000
 -0.476190  0.428571  0.047619     48.000000
 -0.428571  0.428571  0.047619     48.000000
 -0.380952  0.428571  0.047619     24.000000
 -0.476190  0.476190  0.047619     24.000000
 -0.428571  0.476190  0.047619     24.000000
  0.285714  0.190476  0.095238     24.000000
  0.333333  0.190476  0.095238     48.000000
  0.380952  0.190476  0.095238     48.000000
  0.428571  0.190476  0.095238     48.000000
  0.476190  0.190476  0.095238     48.000000
 -0.476190  0.190476  0.095238     48.000000
 -0.428571  0.190476  0.095238     48.000000
  0.333333  0.238095  0.095238     24.000000
  0.380952  0.238095  0.095238     48.000000
  0.428571  0.238095  0.095238     48.000000
  0.476190  0.238095  0.095238     48.000000
 -0.476190  0.238095  0.095238     48.000000
 -0.428571  0.238095  0.095238     48.000000
 -0.380952  0.238095  0.095238     48.000000
 -0.333333  0.238095  0.095238     48.000000
 -0.285714  0.238095  0.095238     48.000000
 -0.238095  0.238095  0.095238     48.000000
 -0.190476  0.238095  0.095238     48.000000
 -0.142857  0.238095  0.095238     24.000000
  0.380952  0.285714  0.095238     24.000000
  0.428571  0.285714  0.095238     48.000000
  0.476190  0.285714  0.095238     48.000000
 -0.476190  0.285714  0.095238     48.000000
 -0.428571  0.285714  0.095238     48.000000
 -0.380952  0.285714  0.095238     48.000000
 -0.333333  0.285714  0.095238     48.000000
 -0.285714  0.285714  0.095238     48.000000
 -0.238095  0.285714  0.095238     48.000000
 -0.190476  0.285714  0.095238     24.000000
  0.428571  0.333333  0.095238     24.000000
  0.476190  0.333333  0.095238     48.000000
 -0.476190  0.333333  0.095238     48.000000
 -0.428571  0.333333  0.095238     48.000000
 -0.380952  0.333333  0.095238     48.000000
 -0.333333  0.333333  0.095238     48.000000
 -0.285714  0.333333  0.095238     48.000000
 -0.238095  0.333333  0.095238     24.000000
  0.476190  0.380952  0.095238     24.000000
 -0.476190  0.380952  0.095238     48.000000
 -0.428571  0.380952  0.095238     48.000000
 -0.380952  0.380952  0.095238     48.000000
 -0.333333  0.380952  0.095238     48.000000
 -0.285714  0.380952  0.095238     24.000000
 -0.476190  0.428571  0.095238     24.000000
 -0.428571  0.428571  0.095238     48.000000
 -0.380952  0.428571  0.095238     48.000000
 -0.333333  0.428571  0.095238     24.000000
 -0.428571  0.476190  0.095238     24.000000
 -0.380952  0.476190  0.095238     24.000000
  0.428571  0.285714  0.142857     24.000000
  0.476190  0.285714  0.142857     48.000000
 -0.476190  0.285714  0.142857     48.000000
 -0.428571  0.285714  0.142857     48.000000
 -0.380952  0.285714  0.142857     48.000000
  0.476190  0.333333  0.142857     24.000000
 -0.476190  0.333333  0.142857     48.000000
 -0.428571  0.333333  0.142857     48.000000
 -0.380952  0.333333  0.142857     48.000000
 -0.333333  0.333333  0.142857     48.000000
 -0.285714  0.333333  0.142857     48.000000
 -0.238095  0.333333  0.142857     48.000000
 -0.190476  0.333333  0.142857     24.000000
 -0.476190  0.380952  0.142857     24.000000
 -0.428571  0.380952  0.142857     48.000000
 -0.380952  0.380952  0.142857     48.000000
 -0.333333  0.380952  0.142857     48.000000
 -0.285714  0.380952  0.142857     48.000000
 -0.238095  0.380952  0.142857     24.000000
 -0.428571  0.428571  0.142857     24.000000
 -0.380952  0.428571  0.142857     48.000000
 -0.333333  0.428571  0.142857     48.000000
 -0.285714  0.428571  0.142857     24.000000
 -0.380952  0.476190  0.142857     24.000000
 -0.333333  0.476190  0.142857     24.000000
 -0.428571  0.380952  0.190476     24.000000
 -0.380952  0.380952  0.190476     48.000000
 -0.333333  0.380952  0.190476     48.000000
 -0.380952  0.428571  0.190476     24.000000
 -0.333333  0.428571  0.190476     48.000000
 -0.285714  0.428571  0.190476     48.000000
 -0.238095  0.428571  0.190476     24.000000
 -0.333333  0.476190  0.190476     24.000000
 -0.285714  0.476190  0.190476     24.000000
 -0.285714  0.476190  0.238095     24.000000
 
 Following cartesian coordinates:
            Coordinates               Weight
  0.000000  0.000000  0.000000      1.000000
 -0.011764  0.011764  0.011764      8.000000
 -0.023527  0.023527  0.023527      8.000000
 -0.035291  0.035291  0.035291      8.000000
 -0.047054  0.047054  0.047054      8.000000
 -0.058818  0.058818  0.058818      8.000000
 -0.070582  0.070582  0.070582      8.000000
 -0.082345  0.082345  0.082345      8.000000
 -0.094109  0.094109  0.094109      8.000000
 -0.105872  0.105872  0.105872      8.000000
 -0.117636  0.117636  0.117636      8.000000
  0.000000  0.000000  0.023527      6.000000
 -0.011764  0.011764  0.035291     24.000000
 -0.023527  0.023527  0.047054     24.000000
 -0.035291  0.035291  0.058818     24.000000
 -0.047054  0.047054  0.070582     24.000000
 -0.058818  0.058818  0.082345     24.000000
 -0.070582  0.070582  0.094109     24.000000
 -0.082345  0.082345  0.105872     24.000000
 -0.094109  0.094109  0.117636     24.000000
 -0.105872  0.105872  0.129400     24.000000
  0.129400 -0.129400 -0.105872     24.000000
  0.117636 -0.117636 -0.094109     24.000000
  0.105872 -0.105872 -0.082345     24.000000
  0.094109 -0.094109 -0.070582     24.000000
  0.082345 -0.082345 -0.058818     24.000000
  0.070582 -0.070582 -0.047054     24.000000
  0.058818 -0.058818 -0.035291     24.000000
  0.047054 -0.047054 -0.023527     24.000000
  0.035291 -0.035291 -0.011764     24.000000
  0.023527 -0.023527  0.000000     12.000000
  0.000000  0.000000  0.047054      6.000000
 -0.011764  0.011764  0.058818     24.000000
 -0.023527  0.023527  0.070582     24.000000
 -0.035291  0.035291  0.082345     24.000000
 -0.047054  0.047054  0.094109     24.000000
 -0.058818  0.058818  0.105872     24.000000
 -0.070582  0.070582  0.117636     24.000000
 -0.082345  0.082345  0.129400     24.000000
 -0.094109  0.094109  0.141163     24.000000
  0.141163 -0.141163 -0.094109     24.000000
  0.129400 -0.129400 -0.082345     24.000000
  0.117636 -0.117636 -0.070582     24.000000
  0.105872 -0.105872 -0.058818     24.000000
  0.094109 -0.094109 -0.047054     24.000000
  0.082345 -0.082345 -0.035291     24.000000
  0.070582 -0.070582 -0.023527     24.000000
  0.058818 -0.058818 -0.011764     24.000000
  0.047054 -0.047054  0.000000     12.000000
  0.000000  0.000000  0.070582      6.000000
 -0.011764  0.011764  0.082345     24.000000
 -0.023527  0.023527  0.094109     24.000000
 -0.035291  0.035291  0.105872     24.000000
 -0.047054  0.047054  0.117636     24.000000
 -0.058818  0.058818  0.129400     24.000000
 -0.070582  0.070582  0.141163     24.000000
 -0.082345  0.082345  0.152927     24.000000
  0.152927 -0.152927 -0.082345     24.000000
  0.141163 -0.141163 -0.070582     24.000000
  0.129400 -0.129400 -0.058818     24.000000
  0.117636 -0.117636 -0.047054     24.000000
  0.105872 -0.105872 -0.035291     24.000000
  0.094109 -0.094109 -0.023527     24.000000
  0.082345 -0.082345 -0.011764     24.000000
  0.070582 -0.070582  0.000000     12.000000
  0.000000  0.000000  0.094109      6.000000
 -0.011764  0.011764  0.105872     24.000000
 -0.023527  0.023527  0.117636     24.000000
 -0.035291  0.035291  0.129400     24.000000
 -0.047054  0.047054  0.141163     24.000000
 -0.058818  0.058818  0.152927     24.000000
 -0.070582  0.070582  0.164690     24.000000
  0.164690 -0.164690 -0.070582     24.000000
  0.152927 -0.152927 -0.058818     24.000000
  0.141163 -0.141163 -0.047054     24.000000
  0.129400 -0.129400 -0.035291     24.000000
  0.117636 -0.117636 -0.023527     24.000000
  0.105872 -0.105872 -0.011764     24.000000
  0.094109 -0.094109  0.000000     12.000000
  0.000000  0.000000  0.117636      6.000000
 -0.011764  0.011764  0.129400     24.000000
 -0.023527  0.023527  0.141163     24.000000
 -0.035291  0.035291  0.152927     24.000000
 -0.047054  0.047054  0.164690     24.000000
 -0.058818  0.058818  0.176454     24.000000
  0.176454 -0.176454 -0.058818     24.000000
  0.164690 -0.164690 -0.047054     24.000000
  0.152927 -0.152927 -0.035291     24.000000
  0.141163 -0.141163 -0.023527     24.000000
  0.129400 -0.129400 -0.011764     24.000000
  0.117636 -0.117636  0.000000     12.000000
  0.000000  0.000000  0.141163      6.000000
 -0.011764  0.011764  0.152927     24.000000
 -0.023527  0.023527  0.164690     24.000000
 -0.035291  0.035291  0.176454     24.000000
 -0.047054  0.047054  0.188218     24.000000
  0.188218 -0.188218 -0.047054     24.000000
  0.176454 -0.176454 -0.035291     24.000000
  0.164690 -0.164690 -0.023527     24.000000
  0.152927 -0.152927 -0.011764     24.000000
  0.141163 -0.141163  0.000000     12.000000
  0.000000  0.000000  0.164690      6.000000
 -0.011764  0.011764  0.176454     24.000000
 -0.023527  0.023527  0.188218     24.000000
 -0.035291  0.035291  0.199981     24.000000
  0.199981 -0.199981 -0.035291     24.000000
  0.188218 -0.188218 -0.023527     24.000000
  0.176454 -0.176454 -0.011764     24.000000
  0.164690 -0.164690  0.000000     12.000000
  0.000000  0.000000  0.188218      6.000000
 -0.011764  0.011764  0.199981     24.000000
 -0.023527  0.023527  0.211745     24.000000
  0.211745 -0.211745 -0.023527     24.000000
  0.199981 -0.199981 -0.011764     24.000000
  0.188218 -0.188218  0.000000     12.000000
  0.000000  0.000000  0.211745      6.000000
 -0.011764  0.011764  0.223508     24.000000
  0.223508 -0.223508 -0.011764     24.000000
  0.211745 -0.211745  0.000000     12.000000
  0.000000  0.000000  0.235272      6.000000
  0.235272 -0.235272  0.000000     12.000000
  0.000000  0.023527  0.047054     24.000000
 -0.011764  0.035291  0.058818     48.000000
 -0.023527  0.047054  0.070582     48.000000
 -0.035291  0.058818  0.082345     48.000000
 -0.047054  0.070582  0.094109     48.000000
 -0.058818  0.082345  0.105872     48.000000
 -0.070582  0.094109  0.117636     48.000000
 -0.082345  0.105872  0.129400     48.000000
  0.152927 -0.129400 -0.105872     48.000000
  0.000000  0.023527  0.070582     24.000000
 -0.011764  0.035291  0.082345     48.000000
 -0.023527  0.047054  0.094109     48.000000
 -0.035291  0.058818  0.105872     48.000000
 -0.047054  0.070582  0.117636     48.000000
 -0.058818  0.082345  0.129400     48.000000
 -0.070582  0.094109  0.141163     48.000000
  0.164690 -0.141163 -0.094109     48.000000
  0.152927 -0.129400 -0.082345     48.000000
  0.141163 -0.117636 -0.070582     48.000000
  0.129400 -0.105872 -0.058818     48.000000
  0.117636 -0.094109 -0.047054     48.000000
  0.105872 -0.082345 -0.035291     48.000000
  0.094109 -0.070582 -0.023527     48.000000
  0.082345 -0.058818 -0.011764     48.000000
  0.070582 -0.047054  0.000000     24.000000
  0.000000  0.023527  0.094109     24.000000
 -0.011764  0.035291  0.105872     48.000000
 -0.023527  0.047054  0.117636     48.000000
 -0.035291  0.058818  0.129400     48.000000
 -0.047054  0.070582  0.141163     48.000000
 -0.058818  0.082345  0.152927     48.000000
  0.176454 -0.152927 -0.082345     48.000000
  0.164690 -0.141163 -0.070582     48.000000
  0.152927 -0.129400 -0.058818     48.000000
  0.141163 -0.117636 -0.047054     48.000000
  0.129400 -0.105872 -0.035291     48.000000
  0.117636 -0.094109 -0.023527     48.000000
  0.105872 -0.082345 -0.011764     48.000000
  0.094109 -0.070582 -0.000000     24.000000
  0.000000  0.023527  0.117636     24.000000
 -0.011764  0.035291  0.129400     48.000000
 -0.023527  0.047054  0.141163     48.000000
 -0.035291  0.058818  0.152927     48.000000
 -0.047054  0.070582  0.164690     48.000000
  0.188218 -0.164690 -0.070582     48.000000
  0.176454 -0.152927 -0.058818     48.000000
  0.164690 -0.141163 -0.047054     48.000000
  0.152927 -0.129400 -0.035291     48.000000
  0.141163 -0.117636 -0.023527     48.000000
  0.129400 -0.105872 -0.011764     48.000000
  0.117636 -0.094109  0.000000     24.000000
  0.000000  0.023527  0.141163     24.000000
 -0.011764  0.035291  0.152927     48.000000
 -0.023527  0.047054  0.164690     48.000000
 -0.035291  0.058818  0.176454     48.000000
  0.199981 -0.176454 -0.058818     48.000000
  0.188218 -0.164690 -0.047054     48.000000
  0.176454 -0.152927 -0.035291     48.000000
  0.164690 -0.141163 -0.023527     48.000000
  0.152927 -0.129400 -0.011764     48.000000
  0.141163 -0.117636 -0.000000     24.000000
  0.000000  0.023527  0.164690     24.000000
 -0.011764  0.035291  0.176454     48.000000
 -0.023527  0.047054  0.188218     48.000000
  0.211745 -0.188218 -0.047054     48.000000
  0.199981 -0.176454 -0.035291     48.000000
  0.188218 -0.164690 -0.023527     48.000000
  0.176454 -0.152927 -0.011764     48.000000
  0.164690 -0.141163  0.000000     24.000000
  0.000000  0.023527  0.188218     24.000000
 -0.011764  0.035291  0.199981     48.000000
  0.223508 -0.199981 -0.035291     48.000000
  0.211745 -0.188218 -0.023527     48.000000
  0.199981 -0.176454 -0.011764     48.000000
  0.188218 -0.164690 -0.000000     24.000000
  0.000000  0.023527  0.211745     24.000000
  0.235272 -0.211745 -0.023527     48.000000
  0.223508 -0.199981 -0.011764     48.000000
  0.211745 -0.188218  0.000000     24.000000
  0.247036 -0.223508 -0.011764     24.000000
  0.235272 -0.211745 -0.000000     24.000000
  0.000000  0.047054  0.094109     24.000000
 -0.011764  0.058818  0.105872     48.000000
 -0.023527  0.070582  0.117636     48.000000
 -0.035291  0.082345  0.129400     48.000000
 -0.047054  0.094109  0.141163     48.000000
  0.188218 -0.141163 -0.094109     48.000000
  0.176454 -0.129400 -0.082345     48.000000
  0.000000  0.047054  0.117636     24.000000
 -0.011764  0.058818  0.129400     48.000000
 -0.023527  0.070582  0.141163     48.000000
 -0.035291  0.082345  0.152927     48.000000
  0.199981 -0.152927 -0.082345     48.000000
  0.188218 -0.141163 -0.070582     48.000000
  0.176454 -0.129400 -0.058818     48.000000
  0.164690 -0.117636 -0.047054     48.000000
  0.152927 -0.105872 -0.035291     48.000000
  0.141163 -0.094109 -0.023527     48.000000
  0.129400 -0.082345 -0.011764     48.000000
  0.117636 -0.070582  0.000000     24.000000
  0.000000  0.047054  0.141163     24.000000
 -0.011764  0.058818  0.152927     48.000000
 -0.023527  0.070582  0.164690     48.000000
  0.211745 -0.164690 -0.070582     48.000000
  0.199981 -0.152927 -0.058818     48.000000
  0.188218 -0.141163 -0.047054     48.000000
  0.176454 -0.129400 -0.035291     48.000000
  0.164690 -0.117636 -0.023527     48.000000
  0.152927 -0.105872 -0.011764     48.000000
  0.141163 -0.094109  0.000000     24.000000
  0.000000  0.047054  0.164690     24.000000
 -0.011764  0.058818  0.176454     48.000000
  0.223508 -0.176454 -0.058818     48.000000
  0.211745 -0.164690 -0.047054     48.000000
  0.199981 -0.152927 -0.035291     48.000000
  0.188218 -0.141163 -0.023527     48.000000
  0.176454 -0.129400 -0.011764     48.000000
  0.164690 -0.117636  0.000000     24.000000
  0.000000  0.047054  0.188218     24.000000
  0.235272 -0.188218 -0.047054     48.000000
  0.223508 -0.176454 -0.035291     48.000000
  0.211745 -0.164690 -0.023527     48.000000
  0.199981 -0.152927 -0.011764     48.000000
  0.188218 -0.141163  0.000000     24.000000
  0.247036 -0.199981 -0.035291     24.000000
  0.235272 -0.188218 -0.023527     48.000000
  0.223508 -0.176454 -0.011764     48.000000
  0.211745 -0.164690  0.000000     24.000000
  0.247036 -0.199981 -0.011764     24.000000
  0.235272 -0.188218  0.000000     24.000000
  0.000000  0.070582  0.141163     24.000000
 -0.011764  0.082345  0.152927     48.000000
  0.223508 -0.152927 -0.082345     48.000000
  0.211745 -0.141163 -0.070582     48.000000
  0.199981 -0.129400 -0.058818     48.000000
  0.000000  0.070582  0.164690     24.000000
  0.235272 -0.164690 -0.070582     48.000000
  0.223508 -0.152927 -0.058818     48.000000
  0.211745 -0.141163 -0.047054     48.000000
  0.199981 -0.129400 -0.035291     48.000000
  0.188218 -0.117636 -0.023527     48.000000
  0.176454 -0.105872 -0.011764     48.000000
  0.164690 -0.094109  0.000000     24.000000
  0.247036 -0.176454 -0.058818     24.000000
  0.235272 -0.164690 -0.047054     48.000000
  0.223508 -0.152927 -0.035291     48.000000
  0.211745 -0.141163 -0.023527     48.000000
  0.199981 -0.129400 -0.011764     48.000000
  0.188218 -0.117636 -0.000000     24.000000
  0.247036 -0.176454 -0.035291     24.000000
  0.235272 -0.164690 -0.023527     48.000000
  0.223508 -0.152927 -0.011764     48.000000
  0.211745 -0.141163  0.000000     24.000000
  0.247036 -0.176454 -0.011764     24.000000
  0.235272 -0.164690 -0.000000     24.000000
  0.247036 -0.152927 -0.058818     24.000000
  0.235272 -0.141163 -0.047054     48.000000
  0.223508 -0.129400 -0.035291     48.000000
  0.247036 -0.152927 -0.035291     24.000000
  0.235272 -0.141163 -0.023527     48.000000
  0.223508 -0.129400 -0.011764     48.000000
  0.211745 -0.117636  0.000000     24.000000
  0.247036 -0.152927 -0.011764     24.000000
  0.235272 -0.141163  0.000000     24.000000
  0.247036 -0.129400 -0.011764     24.000000
 


--------------------------------------------------------------------------------------------------------




 Dimension of arrays:
   k-points           NKPTS =    286   k-points in BZ     NKDIM =    286   number of bands    NBANDS=     48
   number of dos      NEDOS =    301   number of ions     NIONS =      1
   non local maximal  LDIM  =      4   non local SUM 2l+1 LMDIM =      8
   total plane-waves  NPLWV =  13824
   max r-space proj   IRMAX =      1   max aug-charges    IRDMAX=  32640
   dimension x,y,z NGX =    24 NGY =   24 NGZ =   24
   dimension x,y,z NGXF=    48 NGYF=   48 NGZF=   48
   support grid    NGXF=    48 NGYF=   48 NGZF=   48
   ions per type =               1
   NGX,Y,Z   is equivalent  to a cutoff of  13.94, 13.94, 13.94 a.u.
   NGXF,Y,Z  is equivalent  to a cutoff of  27.88, 27.88, 27.88 a.u.

 SYSTEM =  unknown system                          
 POSCAR =  # Generated by Masgent for k-point conve

 Startparameter for this run:
   NWRITE =      2    write-flag & timer
   PREC   = accura    normal or accurate (medium, high low for compatibility)
   ISTART =      0    job   : 0-new  1-cont  2-samecut
   ICHARG =      2    charge: 1-file 2-atom 10-const
   ISPIN  =      2    spin polarized calculation?
   LNONCOLLINEAR =      F non collinear calculations
   LSORBIT =      F    spin-orbit coupling
   INIWAV =      1    electr: 0-lowe 1-rand  2-diag
   LASPH  =      T    aspherical Exc in radial PAW
 Electronic Relaxation 1
   ENCUT  =  520.0 eV  38.22 Ry    6.18 a.u.   5.32  5.32  5.32*2*pi/ulx,y,z
   ENINI  =  520.0     initial cutoff
   ENAUG  =  291.1 eV  augmentation charge cutoff
   NELM   =    100;   NELMIN=  2; NELMDL= -5     # of ELM steps 
   EDIFF  = 0.5E-04   stopping-criterion for ELM
   LREAL  =      F    real-space projection
   NLSPLINE    = F    spline interpolate recip. space projectors
   LCOMPAT=      F    compatible to vasp.4.4
   GGA_COMPAT  = T    GGA compatible to vasp.4.4-vasp.4.6
   LMAXPAW     = -100 max onsite density
   LMAXMIX     =    2 max onsite mixed and CHGCAR
   VOSKOWN=      0    Vosko Wilk Nusair interpolation
   ROPT   =    0.00000
 Ionic relaxation
   EDIFFG = 0.5E-03   stopping-criterion for IOM
   NSW    =      0    number of steps for IOM
   NBLOCK =      1;   KBLOCK =      1    inner block; outer block 
   IBRION =     -1    ionic relax: 0-MD 1-quasi-New 2-CG
   NFREE  =      0    steps in history (QN), initial steepest desc. (CG)
   ISIF   =      2    stress and relaxation
   IWAVPR =     10    prediction:  0-non 1-charg 2-wave 3-comb
   ISYM   =      2    0-nonsym 1-usesym 2-fastsym
   LCORR  =      T    Harris-Foulkes like correction to forces

   POTIM  = 0.5000    time-step for ionic-motion
   TEIN   =    0.0    initial temperature
   TEBEG  =    0.0;   TEEND  =   0.0 temperature during run
   SMASS  =  -3.00    Nose mass-parameter (am)
   estimated Nose-frequenzy (Omega)   =  0.10E-29 period in steps = 0.13E+47 mass=  -0.187E-27a.u.
   SCALEE = 1.0000    scale energy and forces
   NPACO  =    256;   APACO  = 16.0  distance and # of slots for P.C.
   PSTRESS=    0.0 pullay stress

  Mass of Ions in am
   POMASS =  26.98
  Ionic Valenz
   ZVAL   =   3.00
  Atomic Wigner-Seitz radii
   RWIGS  =  -1.00
  virtual crystal weights 
   VCA    =   1.00
   NELECT =       3.0000    total number of electrons
   NUPDOWN=      -1.0000    fix difference up-down

 DOS related values:
   EMIN   =  10.00;   EMAX   =-10.00  energy-range for DOS
   EFERMI =   0.00
   ISMEAR =    -5;   SIGMA  =   0.05  broadening in eV -4-tet -1-fermi 0-gaus

 Electronic relaxation 2 (details)
   IALGO  =     68    algorithm
   LDIAG  =      T    sub-space diagonalisation (order eigenvalues)
   LSUBROT=      F    optimize rotation matrix (better conditioning)
   TURBO    =      0    0=normal 1=particle mesh
   IRESTART =      0    0=no restart 2=restart with 2 vectors
   NREBOOT  =      0    no. of reboots
   NMIN     =      0    reboot dimension
   EREF     =   0.00    reference energy to select bands
   IMIX   =      4    mixing-type and parameters
     AMIX     =   0.40;   BMIX     =  1.00
     AMIX_MAG =   1.60;   BMIX_MAG =  1.00
     AMIN     =   0.10
     WC   =   100.;   INIMIX=   1;  MIXPRE=   1;  MAXMIX= -45

 Intra band minimization:
   WEIMIN = 0.0000     energy-eigenvalue tresh-hold
   EBREAK =  0.26E-06  absolut break condition
   DEPER  =   0.30     relativ break condition  

   TIME   =   0.40     timestep for ELM

  volume/ion in A,a.u.               =      16.58       111.91
  Fermi-wavevector in a.u.,A,eV,Ry     =   0.925894  1.749687 11.664006  0.857280
  Thomas-Fermi vector in A             =   2.051798

 Write flags
   LWAVE        =      F    write WAVECAR
   LDOWNSAMPLE  =      F    k-point downsampling of WAVECAR
   LCHARG       =      T    write CHGCAR
   LVTOT        =      F    write LOCPOT, total local potential
   LVHAR        =      F    write LOCPOT, Hartree potential only
   LELF         =      F    write electronic localiz. function (ELF)
   LORBIT       =     11    0 simple, 1 ext, 2 COOP (PROOUT), +10 PAW based schemes


 Dipole corrections
   LMONO  =      F    monopole corrections only (constant potential shift)
   LDIPOL =      F    correct potential (dipole corrections)
   IDIPOL =      0    1-x, 2-y, 3-z, 4-all directions 
   EPSILON=  1.0000000 bulk dielectric constant

 Exchange correlation treatment:
   GGA     =    --    GGA type
   LEXCH   =     8    internal setting for exchange type
   VOSKOWN=      0    Vosko Wilk Nusair interpolation
   LHFCALC =     F    Hartree Fock is set to
   LHFONE  =     F    Hartree Fock one center treatment
   AEXX    =    0.0000 exact exchange contribution

 Linear response parameters
   LEPSILON=     F    determine dielectric tensor
   LRPA    =     F    only Hartree local field effects (RPA)
   LNABLA  =     F    use nabla operator in PAW spheres
   LVEL    =     F    velocity operator in full k-point grid
   LINTERFAST=   F  fast interpolation
   KINTER  =     0    interpolate to denser k-point grid
   CSHIFT  =0.1000    complex shift for real part using Kramers Kronig
   OMEGAMAX=  -1.0    maximum frequency
   DEG_THRESHOLD= 0.2000000E-02 threshold for treating states as degnerate
   RTIME   =   -0.100 relaxation time in fs
  (WPLASMAI=    0.000 imaginary part of plasma frequency in eV, 0.658/RTIME)
   DFIELD  = 0.0000000 0.0000000 0.0000000 field for delta impulse in time

 Orbital magnetization related:
   ORBITALMAG=     F  switch on orbital magnetization
   LCHIMAG   =     F  perturbation theory with respect to B field
   DQ        =  0.001000  dq finite difference perturbation B field
   LLRAUG    =     F  two centre corrections for induced B field



--------------------------------------------------------------------------------------------------------


 Static calculation
 charge density and potential will be updated during run
 spin polarized calculation
 RMM-DIIS sequential band-by-band and
  variant of blocked Davidson during initial phase
 perform sub-space diagonalisation
    before iterative eigenvector-optimisation
 modified Broyden-mixing scheme, WC =      100.0
 initial mixing is a Kerker type mixing with AMIX =  0.4000 and BMIX =      1.0000
 Hartree-type preconditioning will be used
 using additional bands           46
 reciprocal scheme for non local part
 use partial core corrections
 calculate Harris-corrections to forces   (improved forces if not selfconsistent)
 use gradient corrections 
 use of overlap-Matrix (Vanderbilt PP)
 Fermi weights with tetrahedron method with Bloechl corrections


--------------------------------------------------------------------------------------------------------


  energy-cutoff  :      520.00
  volume of cell :       16.58
      direct lattice vectors                 reciprocal lattice vectors
     0.000000000  2.024000000  2.024000000    -0.247035573  0.247035573  0.247035573
     2.024000000  0.000000000  2.024000000     0.247035573 -0.247035573  0.247035573
     2.024000000  2.024000000  0.000000000     0.247035573  0.247035573 -0.247035573

  length of vectors
     2.862368250  2.862368250  2.862368250     0.427878164  0.427878164  0.427878164



 k-points in units of 2pi/SCALE and weight: # Generated by Masgent for k-point conve
   0.00000000  0.00000000  0.00000000       0.000
  -0.01176360  0.01176360  0.01176360       0.001
  -0.02352720  0.02352720  0.02352720       0.001
  -0.03529080  0.03529080  0.03529080       0.001
  -0.04705439  0.04705439  0.04705439       0.001
  -0.05881799  0.05881799  0.05881799       0.001
  -0.07058159  0.07058159  0.07058159       0.001
  -0.08234519  0.08234519  0.08234519       0.001
  -0.09410879  0.09410879  0.09410879       0.001
  -0.10587239  0.10587239  0.10587239       0.001
  -0.11763599  0.11763599  0.11763599       0.001
   0.00000000  0.00000000  0.02352720       0.001
  -0.01176360  0.01176360  0.03529080       0.003
  -0.02352720  0.02352720  0.04705439       0.003
  -0.03529080  0.03529080  0.05881799       0.003
  -0.04705439  0.04705439  0.07058159       0.003
  -0.05881799  0.05881799  0.08234519       0.003
  -0.07058159  0.07058159  0.09410879       0.003
  -0.08234519  0.08234519  0.10587239       0.003
  -0.09410879  0.09410879  0.11763599       0.003
  -0.10587239  0.10587239  0.12939959       0.003
   0.12939959 -0.12939959 -0.10587239       0.003
   0.11763599 -0.11763599 -0.09410879       0.003
   0.10587239 -0.10587239 -0.08234519       0.003
   0.09410879 -0.09410879 -0.07058159       0.003
   0.08234519 -0.08234519 -0.05881799       0.003
   0.07058159 -0.07058159 -0.04705439       0.003
   0.05881799 -0.05881799 -0.03529080       0.003
   0.04705439 -0.04705439 -0.02352720       0.003
   0.03529080 -0.03529080 -0.01176360       0.003
   0.02352720 -0.02352720  0.00000000       0.001
   0.00000000  0.00000000  0.04705439       0.001
  -0.01176360  0.01176360  0.05881799       0.003
  -0.02352720  0.02352720  0.07058159       0.003
  -0.03529080  0.03529080  0.08234519       0.003
  -0.04705439  0.04705439  0.09410879       0.003
  -0.05881799  0.05881799  0.10587239       0.003
  -0.07058159  0.07058159  0.11763599       0.003
  -0.08234519  0.08234519  0.12939959       0.003
  -0.09410879  0.09410879  0.14116318       0.003
   0.14116318 -0.14116318 -0.09410879       0.003
   0.12939959 -0.12939959 -0.08234519       0.003
   0.11763599 -0.11763599 -0.07058159       0.003
   0.10587239 -0.10587239 -0.05881799       0.003
   0.09410879 -0.09410879 -0.04705439       0.003
   0.08234519 -0.08234519 -0.03529080       0.003
   0.07058159 -0.07058159 -0.02352720       0.003
   0.05881799 -0.05881799 -0.01176360       0.003
   0.04705439 -0.04705439  0.00000000       0.001
   0.00000000  0.00000000  0.07058159       0.001
  -0.01176360  0.01176360  0.08234519       0.003
  -0.02352720  0.02352720  0.09410879       0.003
  -0.03529080  0.03529080  0.10587239       0.003
  -0.04705439  0.04705439  0.11763599       0.003
  -0.05881799  0.05881799  0.12939959       0.003
  -0.07058159  0.07058159  0.14116318       0.003
  -0.08234519  0.08234519  0.15292678       0.003
   0.15292678 -0.15292678 -0.08234519       0.003
   0.14116318 -0.14116318 -0.07058159       0.003
   0.12939959 -0.12939959 -0.05881799       0.003
   0.11763599 -0.11763599 -0.04705439       0.003
   0.10587239 -0.10587239 -0.03529080       0.003
   0.09410879 -0.09410879 -0.02352720       0.003
   0.08234519 -0.08234519 -0.01176360       0.003
   0.07058159 -0.07058159  0.00000000       0.001
   0.00000000  0.00000000  0.09410879       0.001
  -0.01176360  0.01176360  0.10587239       0.003
  -0.02352720  0.02352720  0.11763599       0.003
  -0.03529080  0.03529080  0.12939959       0.003
  -0.04705439  0.04705439  0.14116318       0.003
  -0.05881799  0.05881799  0.15292678       0.003
  -0.07058159  0.07058159  0.16469038       0.003
   0.16469038 -0.16469038 -0.07058159       0.003
   0.15292678 -0.15292678 -0.05881799       0.003
   0.14116318 -0.14116318 -0.04705439       0.003
   0.12939959 -0.12939959 -0.03529080       0.003
   0.11763599 -0.11763599 -0.02352720       0.003
   0.10587239 -0.10587239 -0.01176360       0.003
   0.09410879 -0.09410879  0.00000000       0.001
   0.00000000  0.00000000  0.11763599       0.001
  -0.01176360  0.01176360  0.12939959       0.003
  -0.02352720  0.02352720  0.14116318       0.003
  -0.03529080  0.03529080  0.15292678       0.003
  -0.04705439  0.04705439  0.16469038       0.003
  -0.05881799  0.05881799  0.17645398       0.003
   0.17645398 -0.17645398 -0.05881799       0.003
   0.16469038 -0.16469038 -0.04705439       0.003
   0.15292678 -0.15292678 -0.03529080       0.003
   0.14116318 -0.14116318 -0.02352720       0.003
   0.12939959 -0.12939959 -0.01176360       0.003
   0.11763599 -0.11763599  0.00000000       0.001
   0.00000000  0.00000000  0.14116318       0.001
  -0.01176360  0.01176360  0.15292678       0.003
  -0.02352720  0.02352720  0.16469038       0.003
  -0.03529080  0.03529080  0.17645398       0.003
  -0.04705439  0.04705439  0.18821758       0.003
   0.18821758 -0.18821758 -0.04705439       0.003
   0.17645398 -0.17645398 -0.03529080       0.003
   0.16469038 -0.16469038 -0.02352720       0.003
   0.15292678 -0.15292678 -0.01176360       0.003
   0.14116318 -0.14116318  0.00000000       0.001
   0.00000000  0.00000000  0.16469038       0.001
  -0.01176360  0.01176360  0.17645398       0.003
  -0.02352720  0.02352720  0.18821758       0.003
  -0.03529080  0.03529080  0.19998118       0.003
   0.19998118 -0.19998118 -0.03529080       0.003
   0.18821758 -0.18821758 -0.02352720       0.003
   0.17645398 -0.17645398 -0.01176360       0.003
   0.16469038 -0.16469038  0.00000000       0.001
   0.00000000  0.00000000  0.18821758       0.001
  -0.01176360  0.01176360  0.19998118       0.003
  -0.02352720  0.02352720  0.21174478       0.003
   0.21174478 -0.21174478 -0.02352720       0.003
   0.19998118 -0.19998118 -0.01176360       0.003
   0.18821758 -0.18821758  0.00000000       0.001
   0.00000000  0.00000000  0.21174478       0.001
  -0.01176360  0.01176360  0.22350838       0.003
   0.22350838 -0.22350838 -0.01176360       0.003
   0.21174478 -0.21174478  0.00000000       0.001
   0.00000000  0.00000000  0.23527197       0.001
   0.23527197 -0.23527197  0.00000000       0.001
   0.00000000  0.02352720  0.04705439       0.003
  -0.01176360  0.03529080  0.05881799       0.005
  -0.02352720  0.04705439  0.07058159       0.005
  -0.03529080  0.05881799  0.08234519       0.005
  -0.04705439  0.07058159  0.09410879       0.005
  -0.05881799  0.08234519  0.10587239       0.005
  -0.07058159  0.09410879  0.11763599       0.005
  -0.08234519  0.10587239  0.12939959       0.005
   0.15292678 -0.12939959 -0.10587239       0.005
   0.00000000  0.02352720  0.07058159       0.003
  -0.01176360  0.03529080  0.08234519       0.005
  -0.02352720  0.04705439  0.09410879       0.005
  -0.03529080  0.05881799  0.10587239       0.005
  -0.04705439  0.07058159  0.11763599       0.005
  -0.05881799  0.08234519  0.12939959       0.005
  -0.07058159  0.09410879  0.14116318       0.005
   0.16469038 -0.14116318 -0.09410879       0.005
   0.15292678 -0.12939959 -0.08234519       0.005
   0.14116318 -0.11763599 -0.07058159       0.005
   0.12939959 -0.10587239 -0.05881799       0.005
   0.11763599 -0.09410879 -0.04705439       0.005
   0.10587239 -0.08234519 -0.03529080       0.005
   0.09410879 -0.07058159 -0.02352720       0.005
   0.08234519 -0.05881799 -0.01176360       0.005
   0.07058159 -0.04705439  0.00000000       0.003
   0.00000000  0.02352720  0.09410879       0.003
  -0.01176360  0.03529080  0.10587239       0.005
  -0.02352720  0.04705439  0.11763599       0.005
  -0.03529080  0.05881799  0.12939959       0.005
  -0.04705439  0.07058159  0.14116318       0.005
  -0.05881799  0.08234519  0.15292678       0.005
   0.17645398 -0.15292678 -0.08234519       0.005
   0.16469038 -0.14116318 -0.07058159       0.005
   0.15292678 -0.12939959 -0.05881799       0.005
   0.14116318 -0.11763599 -0.04705439       0.005
   0.12939959 -0.10587239 -0.03529080       0.005
   0.11763599 -0.09410879 -0.02352720       0.005
   0.10587239 -0.08234519 -0.01176360       0.005
   0.09410879 -0.07058159 -0.00000000       0.003
   0.00000000  0.02352720  0.11763599       0.003
  -0.01176360  0.03529080  0.12939959       0.005
  -0.02352720  0.04705439  0.14116318       0.005
  -0.03529080  0.05881799  0.15292678       0.005
  -0.04705439  0.07058159  0.16469038       0.005
   0.18821758 -0.16469038 -0.07058159       0.005
   0.17645398 -0.15292678 -0.05881799       0.005
   0.16469038 -0.14116318 -0.04705439       0.005
   0.15292678 -0.12939959 -0.03529080       0.005
   0.14116318 -0.11763599 -0.02352720       0.005
   0.12939959 -0.10587239 -0.01176360       0.005
   0.11763599 -0.09410879  0.00000000       0.003
   0.00000000  0.02352720  0.14116318       0.003
  -0.01176360  0.03529080  0.15292678       0.005
  -0.02352720  0.04705439  0.16469038       0.005
  -0.03529080  0.05881799  0.17645398       0.005
   0.19998118 -0.17645398 -0.05881799       0.005
   0.18821758 -0.16469038 -0.04705439       0.005
   0.17645398 -0.15292678 -0.03529080       0.005
   0.16469038 -0.14116318 -0.02352720       0.005
   0.15292678 -0.12939959 -0.01176360       0.005
   0.14116318 -0.11763599 -0.00000000       0.003
   0.00000000  0.02352720  0.16469038       0.003
  -0.01176360  0.03529080  0.17645398       0.005
  -0.02352720  0.04705439  0.18821758       0.005
   0.21174478 -0.18821758 -0.04705439       0.005
   0.19998118 -0.17645398 -0.03529080       0.005
   0.18821758 -0.16469038 -0.02352720       0.005
   0.17645398 -0.15292678 -0.01176360       0.005
   0.16469038 -0.14116318  0.00000000       0.003
   0.00000000  0.02352720  0.18821758       0.003
  -0.01176360  0.03529080  0.19998118       0.005
   0.22350838 -0.19998118 -0.03529080       0.005
   0.21174478 -0.18821758 -0.02352720       0.005
   0.19998118 -0.17645398 -0.01176360       0.005
   0.18821758 -0.16469038 -0.00000000       0.003
   0.00000000  0.02352720  0.21174478       0.003
   0.23527197 -0.21174478 -0.02352720       0.005
   0.22350838 -0.19998118 -0.01176360       0.005
   0.21174478 -0.18821758  0.00000000       0.003
   0.24703557 -0.22350838 -0.01176360       0.003
   0.23527197 -0.21174478 -0.00000000       0.003
   0.00000000  0.04705439  0.09410879       0.003
  -0.01176360  0.05881799  0.10587239       0.005
  -0.02352720  0.07058159  0.11763599       0.005
  -0.03529080  0.08234519  0.12939959       0.005
  -0.04705439  0.09410879  0.14116318       0.005
   0.18821758 -0.14116318 -0.09410879       0.005
   0.17645398 -0.12939959 -0.08234519       0.005
   0.00000000  0.04705439  0.11763599       0.003
  -0.01176360  0.05881799  0.12939959       0.005
  -0.02352720  0.07058159  0.14116318       0.005
  -0.03529080  0.08234519  0.15292678       0.005
   0.19998118 -0.15292678 -0.08234519       0.005
   0.18821758 -0.14116318 -0.07058159       0.005
   0.17645398 -0.12939959 -0.05881799       0.005
   0.16469038 -0.11763599 -0.04705439       0.005
   0.15292678 -0.10587239 -0.03529080       0.005
   0.14116318 -0.09410879 -0.02352720       0.005
   0.12939959 -0.08234519 -0.01176360       0.005
   0.11763599 -0.07058159  0.00000000       0.003
   0.00000000  0.04705439  0.14116318       0.003
  -0.01176360  0.05881799  0.15292678       0.005
  -0.02352720  0.07058159  0.16469038       0.005
   0.21174478 -0.16469038 -0.07058159       0.005
   0.19998118 -0.15292678 -0.05881799       0.005
   0.18821758 -0.14116318 -0.04705439       0.005
   0.17645398 -0.12939959 -0.03529080       0.005
   0.16469038 -0.11763599 -0.02352720       0.005
   0.15292678 -0.10587239 -0.01176360       0.005
   0.14116318 -0.09410879  0.00000000       0.003
   0.00000000  0.04705439  0.16469038       0.003
  -0.01176360  0.05881799  0.17645398       0.005
   0.22350838 -0.17645398 -0.05881799       0.005
   0.21174478 -0.16469038 -0.04705439       0.005
   0.19998118 -0.15292678 -0.03529080       0.005
   0.18821758 -0.14116318 -0.02352720       0.005
   0.17645398 -0.12939959 -0.01176360       0.005
   0.16469038 -0.11763599  0.00000000       0.003
   0.00000000  0.04705439  0.18821758       0.003
   0.23527197 -0.18821758 -0.04705439       0.005
   0.22350838 -0.17645398 -0.03529080       0.005
   0.21174478 -0.16469038 -0.02352720       0.005
   0.19998118 -0.15292678 -0.01176360       0.005
   0.18821758 -0.14116318  0.00000000       0.003
   0.24703557 -0.19998118 -0.03529080       0.003
   0.23527197 -0.18821758 -0.02352720       0.005
   0.22350838 -0.17645398 -0.01176360       0.005
   0.21174478 -0.16469038  0.00000000       0.003
   0.24703557 -0.19998118 -0.01176360       0.003
   0.23527197 -0.18821758  0.00000000       0.003
   0.00000000  0.07058159  0.14116318       0.003
  -0.01176360  0.08234519  0.15292678       0.005
   0.22350838 -0.15292678 -0.08234519       0.005
   0.21174478 -0.14116318 -0.07058159       0.005
   0.19998118 -0.12939959 -0.05881799       0.005
   0.00000000  0.07058159  0.16469038       0.003
   0.23527197 -0.16469038 -0.07058159       0.005
   0.22350838 -0.15292678 -0.05881799       0.005
   0.21174478 -0.14116318 -0.04705439       0.005
   0.19998118 -0.12939959 -0.03529080       0.005
   0.18821758 -0.11763599 -0.02352720       0.005
   0.17645398 -0.10587239 -0.01176360       0.005
   0.16469038 -0.09410879  0.00000000       0.003
   0.24703557 -0.17645398 -0.05881799       0.003
   0.23527197 -0.16469038 -0.04705439       0.005
   0.22350838 -0.15292678 -0.03529080       0.005
   0.21174478 -0.14116318 -0.02352720       0.005
   0.19998118 -0.12939959 -0.01176360       0.005
   0.18821758 -0.11763599 -0.00000000       0.003
   0.24703557 -0.17645398 -0.03529080       0.003
   0.23527197 -0.16469038 -0.02352720       0.005
   0.22350838 -0.15292678 -0.01176360       0.005
   0.21174478 -0.14116318  0.00000000       0.003
   0.24703557 -0.17645398 -0.01176360       0.003
   0.23527197 -0.16469038 -0.00000000       0.003
   0.24703557 -0.15292678 -0.05881799       0.003
   0.23527197 -0.14116318 -0.04705439       0.005
   0.22350838 -0.12939959 -0.03529080       0.005
   0.24703557 -0.15292678 -0.03529080       0.003
   0.23527197 -0.14116318 -0.02352720       0.005
   0.22350838 -0.12939959 -0.01176360       0.005
   0.21174478 -0.11763599  0.00000000       0.003
   0.24703557 -0.15292678 -0.01176360       0.003
   0.23527197 -0.14116318  0.00000000       0.003
   0.24703557 -0.12939959 -0.01176360       0.003

 k-points in reciprocal lattice and weights: # Generated by Masgent for k-point conve
   0.00000000  0.00000000  0.00000000       0.000
   0.04761905  0.00000000  0.00000000       0.001
   0.09523810  0.00000000  0.00000000       0.001
   0.14285714  0.00000000  0.00000000       0.001
   0.19047619  0.00000000  0.00000000       0.001
   0.23809524  0.00000000  0.00000000       0.001
   0.28571429  0.00000000  0.00000000       0.001
   0.33333333  0.00000000  0.00000000       0.001
   0.38095238  0.00000000  0.00000000       0.001
   0.42857143  0.00000000  0.00000000       0.001
   0.47619048  0.00000000  0.00000000       0.001
   0.04761905  0.04761905  0.00000000       0.001
   0.09523810  0.04761905  0.00000000       0.003
   0.14285714  0.04761905  0.00000000       0.003
   0.19047619  0.04761905  0.00000000       0.003
   0.23809524  0.04761905  0.00000000       0.003
   0.28571429  0.04761905  0.00000000       0.003
   0.33333333  0.04761905  0.00000000       0.003
   0.38095238  0.04761905  0.00000000       0.003
   0.42857143  0.04761905  0.00000000       0.003
   0.47619048  0.04761905  0.00000000       0.003
  -0.47619048  0.04761905  0.00000000       0.003
  -0.42857143  0.04761905  0.00000000       0.003
  -0.38095238  0.04761905  0.00000000       0.003
  -0.33333333  0.04761905  0.00000000       0.003
  -0.28571429  0.04761905  0.00000000       0.003
  -0.23809524  0.04761905  0.00000000       0.003
  -0.19047619  0.04761905  0.00000000       0.003
  -0.14285714  0.04761905  0.00000000       0.003
  -0.09523810  0.04761905  0.00000000       0.003
  -0.04761905  0.04761905  0.00000000       0.001
   0.09523810  0.09523810  0.00000000       0.001
   0.14285714  0.09523810  0.00000000       0.003
   0.19047619  0.09523810  0.00000000       0.003
   0.23809524  0.09523810  0.00000000       0.003
   0.28571429  0.09523810  0.00000000       0.003
   0.33333333  0.09523810  0.00000000       0.003
   0.38095238  0.09523810  0.00000000       0.003
   0.42857143  0.09523810  0.00000000       0.003
   0.47619048  0.09523810  0.00000000       0.003
  -0.47619048  0.09523810  0.00000000       0.003
  -0.42857143  0.09523810  0.00000000       0.003
  -0.38095238  0.09523810  0.00000000       0.003
  -0.33333333  0.09523810  0.00000000       0.003
  -0.28571429  0.09523810  0.00000000       0.003
  -0.23809524  0.09523810  0.00000000       0.003
  -0.19047619  0.09523810  0.00000000       0.003
  -0.14285714  0.09523810  0.00000000       0.003
  -0.09523810  0.09523810  0.00000000       0.001
   0.14285714  0.14285714  0.00000000       0.001
   0.19047619  0.14285714  0.00000000       0.003
   0.23809524  0.14285714  0.00000000       0.003
   0.28571429  0.14285714  0.00000000       0.003
   0.33333333  0.14285714  0.00000000       0.003
   0.38095238  0.14285714  0.00000000       0.003
   0.42857143  0.14285714  0.00000000       0.003
   0.47619048  0.14285714  0.00000000       0.003
  -0.47619048  0.14285714  0.00000000       0.003
  -0.42857143  0.14285714  0.00000000       0.003
  -0.38095238  0.14285714  0.00000000       0.003
  -0.33333333  0.14285714  0.00000000       0.003
  -0.28571429  0.14285714  0.00000000       0.003
  -0.23809524  0.14285714  0.00000000       0.003
  -0.19047619  0.14285714  0.00000000       0.003
  -0.14285714  0.14285714  0.00000000       0.001
   0.19047619  0.19047619  0.00000000       0.001
   0.23809524  0.19047619  0.00000000       0.003
   0.28571429  0.19047619  0.00000000       0.003
   0.33333333  0.19047619  0.00000000       0.003
   0.38095238  0.19047619  0.00000000       0.003
   0.42857143  0.19047619  0.00000000       0.003
   0.47619048  0.19047619  0.00000000       0.003
  -0.47619048  0.19047619  0.00000000       0.003
  -0.42857143  0.19047619  0.00000000       0.003
  -0.38095238  0.19047619  0.00000000       0.003
  -0.33333333  0.19047619  0.00000000       0.003
  -0.28571429  0.19047619  0.00000000       0.003
  -0.23809524  0.19047619  0.00000000       0.003
  -0.19047619  0.19047619  0.00000000       0.001
   0.23809524  0.23809524  0.00000000       0.001
   0.28571429  0.23809524  0.00000000       0.003
   0.33333333  0.23809524  0.00000000       0.003
   0.38095238  0.23809524  0.00000000       0.003
   0.42857143  0.23809524  0.00000000       0.003
   0.47619048  0.23809524  0.00000000       0.003
  -0.47619048  0.23809524  0.00000000       0.003
  -0.42857143  0.23809524  0.00000000       0.003
  -0.38095238  0.23809524  0.00000000       0.003
  -0.33333333  0.23809524  0.00000000       0.003
  -0.28571429  0.23809524  0.00000000       0.003
  -0.23809524  0.23809524  0.00000000       0.001
   0.28571429  0.28571429  0.00000000       0.001
   0.33333333  0.28571429  0.00000000       0.003
   0.38095238  0.28571429  0.00000000       0.003
   0.42857143  0.28571429  0.00000000       0.003
   0.47619048  0.28571429  0.00000000       0.003
  -0.47619048  0.28571429  0.00000000       0.003
  -0.42857143  0.28571429  0.00000000       0.003
  -0.38095238  0.28571429  0.00000000       0.003
  -0.33333333  0.28571429  0.00000000       0.003
  -0.28571429  0.28571429  0.00000000       0.001
   0.33333333  0.33333333  0.00000000       0.001
   0.38095238  0.33333333  0.00000000       0.003
   0.42857143  0.33333333  0.00000000       0.003
   0.47619048  0.33333333  0.00000000       0.003
  -0.47619048  0.33333333  0.00000000       0.003
  -0.42857143  0.33333333  0.00000000       0.003
  -0.38095238  0.33333333  0.00000000       0.003
  -0.33333333  0.33333333  0.00000000       0.001
   0.38095238  0.38095238  0.00000000       0.001
   0.42857143  0.38095238  0.00000000       0.003
   0.47619048  0.38095238  0.00000000       0.003
  -0.47619048  0.38095238  0.00000000       0.003
  -0.42857143  0.38095238  0.00000000       0.003
  -0.38095238  0.38095238  0.00000000       0.001
   0.42857143  0.42857143  0.00000000       0.001
   0.47619048  0.42857143  0.00000000       0.003
  -0.47619048  0.42857143  0.00000000       0.003
  -0.42857143  0.42857143  0.00000000       0.001
   0.47619048  0.47619048  0.00000000       0.001
  -0.47619048  0.47619048  0.00000000       0.001
   0.14285714  0.09523810  0.04761905       0.003
   0.19047619  0.09523810  0.04761905       0.005
   0.23809524  0.09523810  0.04761905       0.005
   0.28571429  0.09523810  0.04761905       0.005
   0.33333333  0.09523810  0.04761905       0.005
   0.38095238  0.09523810  0.04761905       0.005
   0.42857143  0.09523810  0.04761905       0.005
   0.47619048  0.09523810  0.04761905       0.005
  -0.47619048  0.09523810  0.04761905       0.005
   0.19047619  0.14285714  0.04761905       0.003
   0.23809524  0.14285714  0.04761905       0.005
   0.28571429  0.14285714  0.04761905       0.005
   0.33333333  0.14285714  0.04761905       0.005
   0.38095238  0.14285714  0.04761905       0.005
   0.42857143  0.14285714  0.04761905       0.005
   0.47619048  0.14285714  0.04761905       0.005
  -0.47619048  0.14285714  0.04761905       0.005
  -0.42857143  0.14285714  0.04761905       0.005
  -0.38095238  0.14285714  0.04761905       0.005
  -0.33333333  0.14285714  0.04761905       0.005
  -0.28571429  0.14285714  0.04761905       0.005
  -0.23809524  0.14285714  0.04761905       0.005
  -0.19047619  0.14285714  0.04761905       0.005
  -0.14285714  0.14285714  0.04761905       0.005
  -0.09523810  0.14285714  0.04761905       0.003
   0.23809524  0.19047619  0.04761905       0.003
   0.28571429  0.19047619  0.04761905       0.005
   0.33333333  0.19047619  0.04761905       0.005
   0.38095238  0.19047619  0.04761905       0.005
   0.42857143  0.19047619  0.04761905       0.005
   0.47619048  0.19047619  0.04761905       0.005
  -0.47619048  0.19047619  0.04761905       0.005
  -0.42857143  0.19047619  0.04761905       0.005
  -0.38095238  0.19047619  0.04761905       0.005
  -0.33333333  0.19047619  0.04761905       0.005
  -0.28571429  0.19047619  0.04761905       0.005
  -0.23809524  0.19047619  0.04761905       0.005
  -0.19047619  0.19047619  0.04761905       0.005
  -0.14285714  0.19047619  0.04761905       0.003
   0.28571429  0.23809524  0.04761905       0.003
   0.33333333  0.23809524  0.04761905       0.005
   0.38095238  0.23809524  0.04761905       0.005
   0.42857143  0.23809524  0.04761905       0.005
   0.47619048  0.23809524  0.04761905       0.005
  -0.47619048  0.23809524  0.04761905       0.005
  -0.42857143  0.23809524  0.04761905       0.005
  -0.38095238  0.23809524  0.04761905       0.005
  -0.33333333  0.23809524  0.04761905       0.005
  -0.28571429  0.23809524  0.04761905       0.005
  -0.23809524  0.23809524  0.04761905       0.005
  -0.19047619  0.23809524  0.04761905       0.003
   0.33333333  0.28571429  0.04761905       0.003
   0.38095238  0.28571429  0.04761905       0.005
   0.42857143  0.28571429  0.04761905       0.005
   0.47619048  0.28571429  0.04761905       0.005
  -0.47619048  0.28571429  0.04761905       0.005
  -0.42857143  0.28571429  0.04761905       0.005
  -0.38095238  0.28571429  0.04761905       0.005
  -0.33333333  0.28571429  0.04761905       0.005
  -0.28571429  0.28571429  0.04761905       0.005
  -0.23809524  0.28571429  0.04761905       0.003
   0.38095238  0.33333333  0.04761905       0.003
   0.42857143  0.33333333  0.04761905       0.005
   0.47619048  0.33333333  0.04761905       0.005
  -0.47619048  0.33333333  0.04761905       0.005
  -0.42857143  0.33333333  0.04761905       0.005
  -0.38095238  0.33333333  0.04761905       0.005
  -0.33333333  0.33333333  0.04761905       0.005
  -0.28571429  0.33333333  0.04761905       0.003
   0.42857143  0.38095238  0.04761905       0.003
   0.47619048  0.38095238  0.04761905       0.005
  -0.47619048  0.38095238  0.04761905       0.005
  -0.42857143  0.38095238  0.04761905       0.005
  -0.38095238  0.38095238  0.04761905       0.005
  -0.33333333  0.38095238  0.04761905       0.003
   0.47619048  0.42857143  0.04761905       0.003
  -0.47619048  0.42857143  0.04761905       0.005
  -0.42857143  0.42857143  0.04761905       0.005
  -0.38095238  0.42857143  0.04761905       0.003
  -0.47619048  0.47619048  0.04761905       0.003
  -0.42857143  0.47619048  0.04761905       0.003
   0.28571429  0.19047619  0.09523810       0.003
   0.33333333  0.19047619  0.09523810       0.005
   0.38095238  0.19047619  0.09523810       0.005
   0.42857143  0.19047619  0.09523810       0.005
   0.47619048  0.19047619  0.09523810       0.005
  -0.47619048  0.19047619  0.09523810       0.005
  -0.42857143  0.19047619  0.09523810       0.005
   0.33333333  0.23809524  0.09523810       0.003
   0.38095238  0.23809524  0.09523810       0.005
   0.42857143  0.23809524  0.09523810       0.005
   0.47619048  0.23809524  0.09523810       0.005
  -0.47619048  0.23809524  0.09523810       0.005
  -0.42857143  0.23809524  0.09523810       0.005
  -0.38095238  0.23809524  0.09523810       0.005
  -0.33333333  0.23809524  0.09523810       0.005
  -0.28571429  0.23809524  0.09523810       0.005
  -0.23809524  0.23809524  0.09523810       0.005
  -0.19047619  0.23809524  0.09523810       0.005
  -0.14285714  0.23809524  0.09523810       0.003
   0.38095238  0.28571429  0.09523810       0.003
   0.42857143  0.28571429  0.09523810       0.005
   0.47619048  0.28571429  0.09523810       0.005
  -0.47619048  0.28571429  0.09523810       0.005
  -0.42857143  0.28571429  0.09523810       0.005
  -0.38095238  0.28571429  0.09523810       0.005
  -0.33333333  0.28571429  0.09523810       0.005
  -0.28571429  0.28571429  0.09523810       0.005
  -0.23809524  0.28571429  0.09523810       0.005
  -0.19047619  0.28571429  0.09523810       0.003
   0.42857143  0.33333333  0.09523810       0.003
   0.47619048  0.33333333  0.09523810       0.005
  -0.47619048  0.33333333  0.09523810       0.005
  -0.42857143  0.33333333  0.09523810       0.005
  -0.38095238  0.33333333  0.09523810       0.005
  -0.33333333  0.33333333  0.09523810       0.005
  -0.28571429  0.33333333  0.09523810       0.005
  -0.23809524  0.33333333  0.09523810       0.003
   0.47619048  0.38095238  0.09523810       0.003
  -0.47619048  0.38095238  0.09523810       0.005
  -0.42857143  0.38095238  0.09523810       0.005
  -0.38095238  0.38095238  0.09523810       0.005
  -0.33333333  0.38095238  0.09523810       0.005
  -0.28571429  0.38095238  0.09523810       0.003
  -0.47619048  0.42857143  0.09523810       0.003
  -0.42857143  0.42857143  0.09523810       0.005
  -0.38095238  0.42857143  0.09523810       0.005
  -0.33333333  0.42857143  0.09523810       0.003
  -0.42857143  0.47619048  0.09523810       0.003
  -0.38095238  0.47619048  0.09523810       0.003
   0.42857143  0.28571429  0.14285714       0.003
   0.47619048  0.28571429  0.14285714       0.005
  -0.47619048  0.28571429  0.14285714       0.005
  -0.42857143  0.28571429  0.14285714       0.005
  -0.38095238  0.28571429  0.14285714       0.005
   0.47619048  0.33333333  0.14285714       0.003
  -0.47619048  0.33333333  0.14285714       0.005
  -0.42857143  0.33333333  0.14285714       0.005
  -0.38095238  0.33333333  0.14285714       0.005
  -0.33333333  0.33333333  0.14285714       0.005
  -0.28571429  0.33333333  0.14285714       0.005
  -0.23809524  0.33333333  0.14285714       0.005
  -0.19047619  0.33333333  0.14285714       0.003
  -0.47619048  0.38095238  0.14285714       0.003
  -0.42857143  0.38095238  0.14285714       0.005
  -0.38095238  0.38095238  0.14285714       0.005
  -0.33333333  0.38095238  0.14285714       0.005
  -0.28571429  0.38095238  0.14285714       0.005
  -0.23809524  0.38095238  0.14285714       0.003
  -0.42857143  0.42857143  0.14285714       0.003
  -0.38095238  0.42857143  0.14285714       0.005
  -0.33333333  0.42857143  0.14285714       0.005
  -0.28571429  0.42857143  0.14285714       0.003
  -0.38095238  0.47619048  0.14285714       0.003
  -0.33333333  0.47619048  0.14285714       0.003
  -0.42857143  0.38095238  0.19047619       0.003
  -0.38095238  0.38095238  0.19047619       0.005
  -0.33333333  0.38095238  0.19047619       0.005
  -0.38095238  0.42857143  0.19047619       0.003
  -0.33333333  0.42857143  0.19047619       0.005
  -0.28571429  0.42857143  0.19047619       0.005
  -0.23809524  0.42857143  0.19047619       0.003
  -0.33333333  0.47619048  0.19047619       0.003
  -0.28571429  0.47619048  0.19047619       0.003
  -0.28571429  0.47619048  0.23809524       0.003

 position of ions in fractional coordinates (direct lattice) 
   0.00000000  0.00000000  0.00000000

 position of ions in cartesian coordinates  (Angst):
   0.00000000  0.00000000  0.00000000



--------------------------------------------------------------------------------------------------------


 k-point   1 :   0.0000 0.0000 0.0000  plane waves:     459
 k-point   2 :   0.0476 0.0000 0.0000  plane waves:     447
 k-point   3 :   0.0952 0.0000 0.0000  plane waves:     444
 k-point   4 :   0.1429 0.0000 0.0000  plane waves:     456
 k-point   5 :   0.1905 0.0000 0.0000  plane waves:     459
 k-point   6 :   0.2381 0.0000 0.0000  plane waves:     453
 k-point   7 :   0.2857 0.0000 0.0000  plane waves:     456
 k-point   8 :   0.3333 0.0000 0.0000  plane waves:     450
 k-point   9 :   0.3810 0.0000 0.0000  plane waves:     443
 k-point  10 :   0.4286 0.0000 0.0000  plane waves:     449
 k-point  11 :   0.4762 0.0000 0.0000  plane waves:     437
 k-point  12 :   0.0476 0.0476 0.0000  plane waves:     443
 k-point  13 :   0.0952 0.0476 0.0000  plane waves:     443
 k-point  14 :   0.1429 0.0476 0.0000  plane waves:     448
 k-point  15 :   0.1905 0.0476 0.0000  plane waves:     456
 k-point  16 :   0.2381 0.0476 0.0000  plane waves:     452
 k-point  17 :   0.2857 0.0476 0.0000  plane waves:     449
 k-point  18 :   0.3333 0.0476 0.0000  plane waves:     449
 k-point  19 :   0.3810 0.0476 0.0000  plane waves:     445
 k-point  20 :   0.4286 0.0476 0.0000  plane waves:     441
 k-point  21 :   0.4762 0.0476 0.0000  plane waves:     449
 k-point  22 :  -0.4762 0.0476 0.0000  plane waves:     449
 k-point  23 :  -0.4286 0.0476 0.0000  plane waves:     449
 k-point  24 :  -0.3810 0.0476 0.0000  plane waves:     443
 k-point  25 :  -0.3333 0.0476 0.0000  plane waves:     443
 k-point  26 :  -0.2857 0.0476 0.0000  plane waves:     447
 k-point  27 :  -0.2381 0.0476 0.0000  plane waves:     454
 k-point  28 :  -0.1905 0.0476 0.0000  plane waves:     453
 k-point  29 :  -0.1429 0.0476 0.0000  plane waves:     455
 k-point  30 :  -0.0952 0.0476 0.0000  plane waves:     449
 k-point  31 :  -0.0476 0.0476 0.0000  plane waves:     443
 k-point  32 :   0.0952 0.0952 0.0000  plane waves:     443
 k-point  33 :   0.1429 0.0952 0.0000  plane waves:     449
 k-point  34 :   0.1905 0.0952 0.0000  plane waves:     456
 k-point  35 :   0.2381 0.0952 0.0000  plane waves:     456
 k-point  36 :   0.2857 0.0952 0.0000  plane waves:     453
 k-point  37 :   0.3333 0.0952 0.0000  plane waves:     446
 k-point  38 :   0.3810 0.0952 0.0000  plane waves:     445
 k-point  39 :   0.4286 0.0952 0.0000  plane waves:     446
 k-point  40 :   0.4762 0.0952 0.0000  plane waves:     449
 k-point  41 :  -0.4762 0.0952 0.0000  plane waves:     447
 k-point  42 :  -0.4286 0.0952 0.0000  plane waves:     448
 k-point  43 :  -0.3810 0.0952 0.0000  plane waves:     443
 k-point  44 :  -0.3333 0.0952 0.0000  plane waves:     444
 k-point  45 :  -0.2857 0.0952 0.0000  plane waves:     447
 k-point  46 :  -0.2381 0.0952 0.0000  plane waves:     453
 k-point  47 :  -0.1905 0.0952 0.0000  plane waves:     453
 k-point  48 :  -0.1429 0.0952 0.0000  plane waves:     455
 k-point  49 :  -0.0952 0.0952 0.0000  plane waves:     449
 k-point  50 :   0.1429 0.1429 0.0000  plane waves:     451
 k-point  51 :   0.1905 0.1429 0.0000  plane waves:     458
 k-point  52 :   0.2381 0.1429 0.0000  plane waves:     455
 k-point  53 :   0.2857 0.1429 0.0000  plane waves:     444
 k-point  54 :   0.3333 0.1429 0.0000  plane waves:     448
 k-point  55 :   0.3810 0.1429 0.0000  plane waves:     446
 k-point  56 :   0.4286 0.1429 0.0000  plane waves:     446
 k-point  57 :   0.4762 0.1429 0.0000  plane waves:     442
 k-point  58 :  -0.4762 0.1429 0.0000  plane waves:     449
 k-point  59 :  -0.4286 0.1429 0.0000  plane waves:     446
 k-point  60 :  -0.3810 0.1429 0.0000  plane waves:     445
 k-point  61 :  -0.3333 0.1429 0.0000  plane waves:     440
 k-point  62 :  -0.2857 0.1429 0.0000  plane waves:     449
 k-point  63 :  -0.2381 0.1429 0.0000  plane waves:     449
 k-point  64 :  -0.1905 0.1429 0.0000  plane waves:     451
 k-point  65 :  -0.1429 0.1429 0.0000  plane waves:     449
 k-point  66 :   0.1905 0.1905 0.0000  plane waves:     447
 k-point  67 :   0.2381 0.1905 0.0000  plane waves:     450
 k-point  68 :   0.2857 0.1905 0.0000  plane waves:     449
 k-point  69 :   0.3333 0.1905 0.0000  plane waves:     447
 k-point  70 :   0.3810 0.1905 0.0000  plane waves:     445
 k-point  71 :   0.4286 0.1905 0.0000  plane waves:     446
 k-point  72 :   0.4762 0.1905 0.0000  plane waves:     445
 k-point  73 :  -0.4762 0.1905 0.0000  plane waves:     446
 k-point  74 :  -0.4286 0.1905 0.0000  plane waves:     445
 k-point  75 :  -0.3810 0.1905 0.0000  plane waves:     444
 k-point  76 :  -0.3333 0.1905 0.0000  plane waves:     444
 k-point  77 :  -0.2857 0.1905 0.0000  plane waves:     442
 k-point  78 :  -0.2381 0.1905 0.0000  plane waves:     447
 k-point  79 :  -0.1905 0.1905 0.0000  plane waves:     449
 k-point  80 :   0.2381 0.2381 0.0000  plane waves:     456
 k-point  81 :   0.2857 0.2381 0.0000  plane waves:     445
 k-point  82 :   0.3333 0.2381 0.0000  plane waves:     447
 k-point  83 :   0.3810 0.2381 0.0000  plane waves:     447
 k-point  84 :   0.4286 0.2381 0.0000  plane waves:     444
 k-point  85 :   0.4762 0.2381 0.0000  plane waves:     447
 k-point  86 :  -0.4762 0.2381 0.0000  plane waves:     443
 k-point  87 :  -0.4286 0.2381 0.0000  plane waves:     447
[...]
     15      45.5754      0.00000
     16      47.6522      0.00000
     17      51.1519      0.00000
     18      52.8542      0.00000
     19      54.2757      0.00000
     20      54.8862      0.00000
     21      55.2347      0.00000
     22      56.2981      0.00000
     23      57.9949      0.00000
     24      59.3227      0.00000
     25      60.5764      0.00000
     26      61.2219      0.00000
     27      62.3970      0.00000
     28      63.6227      0.00000
     29      64.9329      0.00000
     30      65.1219      0.00000
     31      67.1477      0.00000
     32      72.1440      0.00000
     33      74.2422      0.00000
     34      78.0828      0.00000
     35      80.6625      0.00000
     36      83.5143      0.00000
     37      87.9555      0.00000
     38      88.7699      0.00000
     39      91.7449      0.00000
     40      93.0862      0.00000
     41      94.5078      0.00000
     42      95.6698      0.00000
     43      97.0708      0.00000
     44      97.7371      0.00000
     45     100.1502      0.00000
     46     100.4799      0.00000
     47     102.6936      0.00000
     48     105.2148      0.00000

 k-point   282 :      -0.2857    0.4286    0.1905
  band No.  band energies     occupation 
      1       6.3126      1.00000
      2       6.6619      1.00000
      3       8.7466     -0.00021
      4      10.0277      0.00000
      5      22.2869      0.00000
      6      24.0389      0.00000
      7      25.1367      0.00000
      8      26.8017      0.00000
      9      34.2646      0.00000
     10      38.1089      0.00000
     11      41.0048      0.00000
     12      42.0570      0.00000
     13      42.7459      0.00000
     14      44.0392      0.00000
     15      45.4422      0.00000
     16      47.3360      0.00000
     17      51.8173      0.00000
     18      52.4407      0.00000
     19      54.4412      0.00000
     20      54.9731      0.00000
     21      56.6856      0.00000
     22      56.8241      0.00000
     23      58.4778      0.00000
     24      59.2808      0.00000
     25      59.4606      0.00000
     26      60.1342      0.00000
     27      62.6096      0.00000
     28      63.4554      0.00000
     29      64.3941      0.00000
     30      65.6636      0.00000
     31      66.1521      0.00000
     32      72.7189      0.00000
     33      73.4164      0.00000
     34      77.9815      0.00000
     35      80.5667      0.00000
     36      83.6932      0.00000
     37      88.4140      0.00000
     38      88.5719      0.00000
     39      91.7154      0.00000
     40      93.3787      0.00000
     41      94.8694      0.00000
     42      96.0704      0.00000
     43      97.7018      0.00000
     44      98.8538      0.00000
     45      99.6187      0.00000
     46     100.5330      0.00000
     47     103.0572      0.00000
     48     103.7358      0.00000

 k-point   283 :      -0.2381    0.4286    0.1905
  band No.  band energies     occupation 
      1       5.2412      1.00000
      2       7.4793      1.00827
      3       8.8840      0.00000
      4      10.4372      0.00000
      5      22.7443      0.00000
      6      23.3066      0.00000
      7      24.7473      0.00000
      8      27.6623      0.00000
      9      33.8174      0.00000
     10      37.5100      0.00000
     11      40.3341      0.00000
     12      40.7558      0.00000
     13      43.3117      0.00000
     14      44.5903      0.00000
     15      46.3863      0.00000
     16      48.5621      0.00000
     17      51.4923      0.00000
     18      52.2093      0.00000
     19      54.5962      0.00000
     20      54.8585      0.00000
     21      54.9990      0.00000
     22      57.0166      0.00000
     23      57.6634      0.00000
     24      59.6654      0.00000
     25      59.8631      0.00000
     26      61.0818      0.00000
     27      63.0812      0.00000
     28      64.3613      0.00000
     29      64.5505      0.00000
     30      65.4345      0.00000
     31      66.4113      0.00000
     32      71.1496      0.00000
     33      74.2387      0.00000
     34      78.9571      0.00000
     35      79.4521      0.00000
     36      85.2193      0.00000
     37      87.7660      0.00000
     38      88.6030      0.00000
     39      91.5312      0.00000
     40      93.1932      0.00000
     41      94.4497      0.00000
     42      94.6427      0.00000
     43      96.7980      0.00000
     44      98.2603      0.00000
     45      99.8643      0.00000
     46     101.0618      0.00000
     47     103.2466      0.00000
     48     105.3051      0.00000

 k-point   284 :      -0.3333    0.4762    0.1905
  band No.  band energies     occupation 
      1       5.8754      1.00000
      2       7.9581      0.82856
      3       8.2332     -0.00314
      4       9.8276      0.00000
      5      20.9303      0.00000
      6      22.5904      0.00000
      7      26.4294      0.00000
      8      28.3216      0.00000
      9      34.8537      0.00000
     10      39.4552      0.00000
     11      41.8678      0.00000
     12      42.0047      0.00000
     13      42.8186      0.00000
     14      43.3981      0.00000
     15      44.6433      0.00000
     16      46.2115      0.00000
     17      50.6695      0.00000
     18      53.6001      0.00000
     19      53.8481      0.00000
     20      54.6403      0.00000
     21      55.6566      0.00000
     22      55.7436      0.00000
     23      57.8447      0.00000
     24      57.8949      0.00000
     25      59.7128      0.00000
     26      61.7629      0.00000
     27      62.6939      0.00000
     28      63.4859      0.00000
     29      65.3248      0.00000
     30      65.8074      0.00000
     31      68.3994      0.00000
     32      72.5752      0.00000
     33      75.3286      0.00000
     34      79.2358      0.00000
     35      79.3051      0.00000
     36      82.0146      0.00000
     37      87.9245      0.00000
     38      88.8837      0.00000
     39      90.4195      0.00000
     40      92.3196      0.00000
     41      94.8203      0.00000
     42      95.6406      0.00000
     43      96.9659      0.00000
     44      99.2214      0.00000
     45     100.2575      0.00000
     46     101.7514      0.00000
     47     102.0635      0.00000
     48     104.3882      0.00000

 k-point   285 :      -0.2857    0.4762    0.1905
  band No.  band energies     occupation 
      1       6.5756      1.00000
      2       7.3541      1.00000
      3       7.9692      0.00961
      4       9.7034      0.00000
      5      21.7342      0.00000
      6      23.7491      0.00000
      7      25.5180      0.00000
      8      27.1302      0.00000
      9      34.8105      0.00000
     10      39.3201      0.00000
     11      42.1045      0.00000
     12      42.2692      0.00000
     13      42.6190      0.00000
     14      43.7506      0.00000
     15      44.4021      0.00000
     16      45.6212      0.00000
     17      51.4244      0.00000
     18      53.2054      0.00000
     19      54.1275      0.00000
     20      54.9904      0.00000
     21      56.5868      0.00000
     22      57.4103      0.00000
     23      57.9189      0.00000
     24      58.1924      0.00000
     25      60.1356      0.00000
     26      60.8981      0.00000
     27      61.9971      0.00000
     28      62.5995      0.00000
     29      64.8760      0.00000
     30      65.3643      0.00000
     31      66.8399      0.00000
     32      72.9767      0.00000
     33      74.5637      0.00000
     34      79.1052      0.00000
     35      79.2776      0.00000
     36      82.0437      0.00000
     37      88.4611      0.00000
     38      88.9619      0.00000
     39      92.3512      0.00000
     40      92.5173      0.00000
     41      96.2840      0.00000
     42      96.3858      0.00000
     43      97.5297      0.00000
     44      98.0870      0.00000
     45     100.5318      0.00000
     46     100.9372      0.00000
     47     101.9678      0.00000
     48     103.0558      0.00000

 k-point   286 :      -0.2857    0.4762    0.2381
  band No.  band energies     occupation 
      1       6.5549      1.00000
      2       7.3286      1.00000
      3       8.3740     -0.00397
      4       9.1992      0.00000
      5      23.1659      0.00000
      6      23.8045      0.00000
      7      24.4901      0.00000
      8      26.5975      0.00000
      9      34.8547      0.00000
     10      39.4125      0.00000
     11      42.0604      0.00000
     12      42.1548      0.00000
     13      42.8498      0.00000
     14      43.2553      0.00000
     15      44.3867      0.00000
     16      45.7396      0.00000
     17      52.0639      0.00000
     18      52.7757      0.00000
     19      54.2396      0.00000
     20      54.8333      0.00000
     21      56.9757      0.00000
     22      57.8181      0.00000
     23      58.1956      0.00000
     24      59.5577      0.00000
     25      59.8464      0.00000
     26      60.7542      0.00000
     27      61.8792      0.00000
     28      62.7731      0.00000
     29      64.4494      0.00000
     30      64.9918      0.00000
     31      65.1518      0.00000
     32      72.9418      0.00000
     33      74.5195      0.00000
     34      79.0812      0.00000
     35      79.3622      0.00000
     36      81.8348      0.00000
     37      88.8924      0.00000
     38      89.3091      0.00000
     39      93.8943      0.00000
     40      94.2213      0.00000
     41      95.3484      0.00000
     42      96.2808      0.00000
     43      97.4378      0.00000
     44      97.5079      0.00000
     45      99.4035      0.00000
     46      99.5849      0.00000
     47     102.5695      0.00000
     48     103.1850      0.00000


--------------------------------------------------------------------------------------------------------


 soft charge-density along one line, spin component           1
         0         1         2         3         4         5         6         7         8         9
 total charge-density along one line

 soft charge-density along one line, spin component           2
         0         1         2         3         4         5         6         7         8         9
 total charge-density along one line

 pseudopotential strength for first ion, spin component:           1
  8.445  14.393   0.000   0.000   0.000   0.000   0.000   0.000
 14.393  24.530   0.000   0.000   0.000   0.000   0.000   0.000
  0.000   0.000   1.987  -0.000  -0.000   5.730  -0.000  -0.000
  0.000   0.000  -0.000   1.987  -0.000  -0.000   5.730  -0.000
  0.000   0.000  -0.000  -0.000   1.987  -0.000  -0.000   5.730
  0.000   0.000   5.730  -0.000  -0.000  16.434  -0.000  -0.000
  0.000   0.000  -0.000   5.730  -0.000  -0.000  16.434  -0.000
  0.000   0.000  -0.000  -0.000   5.730  -0.000  -0.000  16.434
 pseudopotential strength for first ion, spin component:           2
  8.445  14.393   0.000   0.000   0.000   0.000   0.000   0.000
 14.393  24.530   0.000   0.000   0.000   0.000   0.000   0.000
  0.000   0.000   1.987  -0.000  -0.000   5.730  -0.000  -0.000
  0.000   0.000  -0.000   1.987  -0.000  -0.000   5.730  -0.000
  0.000   0.000  -0.000  -0.000   1.987  -0.000  -0.000   5.730
  0.000   0.000   5.730  -0.000  -0.000  16.434  -0.000  -0.000
  0.000   0.000  -0.000   5.730  -0.000  -0.000  16.434  -0.000
  0.000   0.000  -0.000  -0.000   5.730  -0.000  -0.000  16.434
 total augmentation occupancy for first ion, spin component:           1
  3.360  -0.828   0.000   0.000   0.000   0.000   0.000   0.000
 -0.828   0.270   0.000   0.000   0.000   0.000   0.000   0.000
  0.000   0.000   1.098   0.000   0.000  -0.070  -0.000   0.000
  0.000   0.000   0.000   1.098   0.000  -0.000  -0.070   0.000
  0.000   0.000   0.000   0.000   1.098   0.000   0.000  -0.070
  0.000   0.000  -0.070  -0.000  -0.000   0.005   0.000  -0.000
  0.000   0.000   0.000  -0.070   0.000  -0.000   0.005   0.000
  0.000   0.000   0.000  -0.000  -0.070   0.000   0.000   0.005
 total augmentation occupancy for first ion, spin component:           2
  0.017  -0.006   0.000   0.000   0.000   0.000   0.000   0.000
 -0.006   0.002   0.000   0.000   0.000   0.000   0.000   0.000
  0.000   0.000   0.002   0.000   0.000  -0.000   0.000   0.000
  0.000   0.000   0.000   0.002   0.000   0.000  -0.000   0.000
  0.000   0.000   0.000   0.000   0.002   0.000   0.000  -0.000
  0.000   0.000  -0.000   0.000   0.000   0.000   0.000   0.000
  0.000   0.000   0.000  -0.000   0.000   0.000   0.000   0.000
  0.000   0.000   0.000   0.000  -0.000   0.000   0.000   0.000


------------------------ aborting loop because EDIFF is reached ----------------------------------------





 total charge

# of ion       s       p       d       tot
------------------------------------------
    1        0.427   0.338   0.000   0.765



 magnetization (x)

# of ion       s       p       d       tot
------------------------------------------
    1       -0.000  -0.000   0.000  -0.000

    CHARGE:  cpu time    0.1847: real time    0.1847
    FORLOC:  cpu time    0.0001: real time    0.0002
    FORNL :  cpu time    0.0303: real time    0.0303
    STRESS:  cpu time    0.4846: real time    0.4848
    FORCOR:  cpu time    0.0061: real time    0.0061
    FORHAR:  cpu time    0.0009: real time    0.0010
    MIXING:  cpu time    0.0003: real time    0.0003
    OFIELD:  cpu time    0.0000: real time    0.0000

  FORCE on cell =-STRESS in cart. coord.  units (eV):
  Direction    XX          YY          ZZ          XY          YZ          ZX
  --------------------------------------------------------------------------------------
  Alpha Z    -0.20255    -0.20255    -0.20255
  Ewald     -24.46432   -24.46432   -24.46432    -0.00000    -0.00000     0.00000
  Hartree     0.03480     0.03480     0.03480     0.00000     0.00000     0.00000
  E(xc)      -8.55050    -8.55050    -8.55050     0.00000     0.00000     0.00000
  Local       0.33637     0.33637     0.33637    -0.00000    -0.00000    -0.00000
  n-local    18.91234    18.59596    18.99927     0.47725    -0.58876     0.52056
  augment    -1.02958    -1.02958    -1.02958     0.00000     0.00000     0.00000
  Kinetic    12.31982    10.93015    21.65120    -9.62944     8.36671    -6.22055
  Fock        0.00000     0.00000     0.00000     0.00000     0.00000     0.00000
  -------------------------------------------------------------------------------------
  Total      -0.07285    -0.07285    -0.07285     0.00000     0.00000     0.00000
  in kB      -7.03881    -7.03881    -7.03881     0.00000     0.00000     0.00000
  external pressure =       -7.04 kB  Pullay stress =        0.00 kB


 VOLUME and BASIS-vectors are now :
 -----------------------------------------------------------------------------
  energy-cutoff  :      520.00
  volume of cell :       16.58
      direct lattice vectors                 reciprocal lattice vectors
     0.000000000  2.024000000  2.024000000    -0.247035573  0.247035573  0.247035573
     2.024000000  0.000000000  2.024000000     0.247035573 -0.247035573  0.247035573
     2.024000000  2.024000000  0.000000000     0.247035573  0.247035573 -0.247035573

  length of vectors
     2.862368250  2.862368250  2.862368250     0.427878164  0.427878164  0.427878164


 FORCES acting on ions
    electron-ion (+dipol)            ewald-force                    non-local-force                 convergence-correction
 -----------------------------------------------------------------------------------------------
   0.192E-15 0.187E-14 0.278E-14   0.817E-16 0.470E-16 -.229E-15   -.404E-27 -.404E-27 0.000E+00   -.162E-17 0.576E-17 0.194E-17
 -----------------------------------------------------------------------------------------------
   0.192E-15 0.187E-14 0.278E-14   0.817E-16 0.470E-16 -.229E-15   -.404E-27 -.404E-27 0.000E+00   -.162E-17 0.576E-17 0.194E-17


 POSITION                                       TOTAL-FORCE (eV/Angst)
 -----------------------------------------------------------------------------------
      0.00000      0.00000      0.00000        -0.000000      0.000000     -0.000000
 -----------------------------------------------------------------------------------
    total drift:                                0.000000      0.000000      0.000000


--------------------------------------------------------------------------------------------------------



  FREE ENERGIE OF THE ION-ELECTRON SYSTEM (eV)
  ---------------------------------------------------
  free  energy   TOTEN  =        -3.74630987 eV

  energy  without entropy=       -3.74630987  energy(sigma->0) =       -3.74630987



--------------------------------------------------------------------------------------------------------


    POTLOK:  cpu time    0.1758: real time    0.1758


--------------------------------------------------------------------------------------------------------


 stress matrix after NEB project (eV)
     -0.07285      0.00000      0.00000
      0.00000     -0.07285      0.00000
      0.00000      0.00000     -0.07285
  FORCES: max atom, RMS     0.000000    0.000000
  FORCE total and by dimension    0.000000    0.000000
  Stress total and by dimension    0.126186    0.072854
     LOOP+:  cpu time  284.7837: real time  284.8268
 -----------------------------------------------------------------------------
|                                                                             |
|           W    W    AA    RRRRR   N    N  II  N    N   GGGG   !!!           |
|           W    W   A  A   R    R  NN   N  II  NN   N  G    G  !!!           |
|           W    W  A    A  R    R  N N  N  II  N N  N  G       !!!           |
|           W WW W  AAAAAA  RRRRR   N  N N  II  N  N N  G  GGG   !            |
|           WW  WW  A    A  R   R   N   NN  II  N   NN  G    G                |
|           W    W  A    A  R    R  N    N  II  N    N   GGGG   !!!           |
|                                                                             |
|     Tetrahedron method does not include variations of the Fermi             |
|     occupations, so forces and stress will be inaccurate. We suggest        |
|     using a different smearing scheme ISMEAR = 1 or 2 for metals in         |
|     relaxations.                                                            |
|                                                                             |
 -----------------------------------------------------------------------------

    4ORBIT:  cpu time    0.0000: real time    0.0000



 total charge

# of ion       s       p       d       tot
------------------------------------------
    1        0.427   0.338   0.000   0.765



 magnetization (x)

# of ion       s       p       d       tot
------------------------------------------
    1       -0.000  -0.000   0.000  -0.000

 BZINTS: Fermi energy:    7.981087;    3.000000 electrons
         Band energy: 0.106106E+02;  BLOECHL correction:   -0.035997

 total amount of memory used by VASP MPI-rank0    45076. kBytes
=======================================================================

   base      :      30000. kBytes
   nonl-proj :       8793. kBytes
   fftplans  :        150. kBytes
   grid      :       1295. kBytes
   one-center:          6. kBytes
   wavefun   :       4832. kBytes

  
  
 General timing and accounting informations for this job:
 ========================================================
  
                  Total CPU time used (sec):      290.132
                            User time (sec):      287.988
                          System time (sec):        2.144
                         Elapsed time (sec):      290.182
  
                   Maximum memory used (kb):       67488.
                   Average memory used (kb):          N/A
  
                          Minor page faults:        42938
                          Major page faults:          479
                 Voluntary context switches:         1610
