<?xml version="1.0" encoding="ISO-8859-1"?>
<modeling>
 <generator>
  <i name="program" type="string">vasp </i>
  <i name="version" type="string">6.2.1  </i>
  <i name="subversion" type="string">16May21 (build Aug 15 2022 14:47:30) complex                          parallel </i>
  <i name="platform" type="string">LinuxGNU </i>
  <i name="date" type="string">2025 12 11 </i>
  <i name="time" type="string">13:47:18 </i>
 </generator>
 <incar>
  <i type="string" name="PREC">Accurate</i>
  <i type="string" name="ALGO">Fast</i>
  <i type="int" name="ISPIN">     2</i>
  <i type="int" name="NELM">   100</i>
  <i name="EDIFF">      0.00005000</i>
  <i type="int" name="NSW">     0</i>
  <i name="ENCUT">    520.00000000</i>
  <v name="MAGMOM">      0.60000000</v>
  <i type="logical" name="LREAL"> F  </i>
  <i type="int" name="ISMEAR">    -5</i>
  <i name="SIGMA">      0.05000000</i>
  <i type="logical" name="LWAVE"> F  </i>
  <i type="logical" name="LCHARG"> T  </i>
  <i type="int" name="LORBIT">    11</i>
  <i type="logical" name="LASPH"> T  </i>
 </incar>
 <primitive_cell>
  <structure name="primitive_cell" >
   <crystal>
    <varray name="basis" >
     <v>       0.00000000       2.02400000       2.02400000 </v>
     <v>       2.02400000       0.00000000       2.02400000 </v>
     <v>       2.02400000       2.02400000       0.00000000 </v>
    </varray>
    <i name="volume">     16.58293965 </i>
    <varray name="rec_basis" >
     <v>      -0.24703557       0.24703557       0.24703557 </v>
     <v>       0.24703557      -0.24703557       0.24703557 </v>
     <v>       0.24703557       0.24703557      -0.24703557 </v>
    </varray>
   </crystal>
   <varray name="positions" >
    <v>       0.00000000       0.00000000       0.00000000 </v>
   </varray>
  </structure>
  <varray name="primitive_index" >
   <v type="int" >        1 </v>
  </varray>
 </primitive_cell>
 <kpoints>
  <generation param="Gamma">
   <v type="int" name="divisions">      15       15       15 </v>
   <v name="usershift">      0.00000000       0.00000000       0.00000000 </v>
   <v name="genvec1">      0.06666667       0.00000000       0.00000000 </v>
   <v name="genvec2">      0.00000000       0.06666667       0.00000000 </v>
   <v name="genvec3">      0.00000000       0.00000000       0.06666667 </v>
   <v name="shift">      0.00000000       0.00000000       0.00000000 </v>
  </generation>
  <varray name="kpointlist" >
   <v>       0.00000000       0.00000000       0.00000000 </v>
   <v>       0.06666667       0.00000000       0.00000000 </v>
   <v>       0.13333333       0.00000000       0.00000000 </v>
   <v>       0.20000000       0.00000000       0.00000000 </v>
   <v>       0.26666667       0.00000000       0.00000000 </v>
   <v>       0.33333333       0.00000000       0.00000000 </v>
   <v>       0.40000000       0.00000000       0.00000000 </v>
   <v>       0.46666667       0.00000000       0.00000000 </v>
   <v>       0.06666667       0.06666667       0.00000000 </v>
   <v>       0.13333333       0.06666667       0.00000000 </v>
   <v>       0.20000000       0.06666667       0.00000000 </v>
   <v>       0.26666667       0.06666667       0.00000000 </v>
   <v>       0.33333333       0.06666667       0.00000000 </v>
   <v>       0.40000000       0.06666667       0.00000000 </v>
   <v>       0.46666667       0.06666667       0.00000000 </v>
   <v>      -0.46666667       0.06666667       0.00000000 </v>
   <v>      -0.40000000       0.06666667       0.00000000 </v>
   <v>      -0.33333333       0.06666667       0.00000000 </v>
   <v>      -0.26666667       0.06666667       0.00000000 </v>
   <v>      -0.20000000       0.06666667       0.00000000 </v>
   <v>      -0.13333333       0.06666667       0.00000000 </v>
   <v>      -0.06666667       0.06666667       0.00000000 </v>
   <v>       0.13333333       0.13333333       0.00000000 </v>
   <v>       0.20000000       0.13333333       0.00000000 </v>
   <v>       0.26666667       0.13333333       0.00000000 </v>
   <v>       0.33333333       0.13333333       0.00000000 </v>
   <v>       0.40000000       0.13333333       0.00000000 </v>
   <v>       0.46666667       0.13333333       0.00000000 </v>
   <v>      -0.46666667       0.13333333       0.00000000 </v>
   <v>      -0.40000000       0.13333333       0.00000000 </v>
   <v>      -0.33333333       0.13333333       0.00000000 </v>
   <v>      -0.26666667       0.13333333       0.00000000 </v>
   <v>      -0.20000000       0.13333333       0.00000000 </v>
   <v>      -0.13333333       0.13333333       0.00000000 </v>
   <v>       0.20000000       0.20000000       0.00000000 </v>
   <v>       0.26666667       0.20000000       0.00000000 </v>
   <v>       0.33333333       0.20000000       0.00000000 </v>
   <v>       0.40000000       0.20000000       0.00000000 </v>
   <v>       0.46666667       0.20000000       0.00000000 </v>
   <v>      -0.46666667       0.20000000       0.00000000 </v>
   <v>      -0.40000000       0.20000000       0.00000000 </v>
   <v>      -0.33333333       0.20000000       0.00000000 </v>
   <v>      -0.26666667       0.20000000       0.00000000 </v>
   <v>      -0.20000000       0.20000000       0.00000000 </v>
   <v>       0.26666667       0.26666667       0.00000000 </v>
   <v>       0.33333333       0.26666667       0.00000000 </v>
   <v>       0.40000000       0.26666667       0.00000000 </v>
   <v>       0.46666667       0.26666667       0.00000000 </v>
   <v>      -0.46666667       0.26666667       0.00000000 </v>
   <v>      -0.40000000       0.26666667       0.00000000 </v>
   <v>      -0.33333333       0.26666667       0.00000000 </v>
   <v>      -0.26666667       0.26666667       0.00000000 </v>
   <v>       0.33333333       0.33333333       0.00000000 </v>
   <v>       0.40000000       0.33333333       0.00000000 </v>
   <v>       0.46666667       0.33333333       0.00000000 </v>
   <v>      -0.46666667       0.33333333       0.00000000 </v>
   <v>      -0.40000000       0.33333333       0.00000000 </v>
   <v>      -0.33333333       0.33333333       0.00000000 </v>
   <v>       0.40000000       0.40000000       0.00000000 </v>
   <v>       0.46666667       0.40000000       0.00000000 </v>
   <v>      -0.46666667       0.40000000       0.00000000 </v>
   <v>      -0.40000000       0.40000000       0.00000000 </v>
   <v>       0.46666667       0.46666667       0.00000000 </v>
   <v>      -0.46666667       0.46666667       0.00000000 </v>
   <v>       0.20000000       0.13333333       0.06666667 </v>
   <v>       0.26666667       0.13333333       0.06666667 </v>
   <v>       0.33333333       0.13333333       0.06666667 </v>
   <v>       0.40000000       0.13333333       0.06666667 </v>
   <v>       0.46666667       0.13333333       0.06666667 </v>
   <v>      -0.46666667       0.13333333       0.06666667 </v>
   <v>       0.26666667       0.20000000       0.06666667 </v>
   <v>       0.33333333       0.20000000       0.06666667 </v>
   <v>       0.40000000       0.20000000       0.06666667 </v>
   <v>       0.46666667       0.20000000       0.06666667 </v>
   <v>      -0.46666667       0.20000000       0.06666667 </v>
   <v>      -0.40000000       0.20000000       0.06666667 </v>
   <v>      -0.33333333       0.20000000       0.06666667 </v>
   <v>      -0.26666667       0.20000000       0.06666667 </v>
   <v>      -0.20000000       0.20000000       0.06666667 </v>
   <v>      -0.13333333       0.20000000       0.06666667 </v>
   <v>       0.33333333       0.26666667       0.06666667 </v>
   <v>       0.40000000       0.26666667       0.06666667 </v>
   <v>       0.46666667       0.26666667       0.06666667 </v>
   <v>      -0.46666667       0.26666667       0.06666667 </v>
   <v>      -0.40000000       0.26666667       0.06666667 </v>
   <v>      -0.33333333       0.26666667       0.06666667 </v>
   <v>      -0.26666667       0.26666667       0.06666667 </v>
   <v>      -0.20000000       0.26666667       0.06666667 </v>
   <v>       0.40000000       0.33333333       0.06666667 </v>
   <v>       0.46666667       0.33333333       0.06666667 </v>
   <v>      -0.46666667       0.33333333       0.06666667 </v>
   <v>      -0.40000000       0.33333333       0.06666667 </v>
   <v>      -0.33333333       0.33333333       0.06666667 </v>
   <v>      -0.26666667       0.33333333       0.06666667 </v>
   <v>       0.46666667       0.40000000       0.06666667 </v>
   <v>      -0.46666667       0.40000000       0.06666667 </v>
   <v>      -0.40000000       0.40000000       0.06666667 </v>
   <v>      -0.33333333       0.40000000       0.06666667 </v>
   <v>      -0.46666667       0.46666667       0.06666667 </v>
   <v>      -0.40000000       0.46666667       0.06666667 </v>
   <v>       0.40000000       0.26666667       0.13333333 </v>
   <v>       0.46666667       0.26666667       0.13333333 </v>
   <v>      -0.46666667       0.26666667       0.13333333 </v>
   <v>      -0.40000000       0.26666667       0.13333333 </v>
   <v>       0.46666667       0.33333333       0.13333333 </v>
   <v>      -0.46666667       0.33333333       0.13333333 </v>
   <v>      -0.40000000       0.33333333       0.13333333 </v>
   <v>      -0.33333333       0.33333333       0.13333333 </v>
   <v>      -0.26666667       0.33333333       0.13333333 </v>
   <v>      -0.20000000       0.33333333       0.13333333 </v>
   <v>      -0.46666667       0.40000000       0.13333333 </v>
   <v>      -0.40000000       0.40000000       0.13333333 </v>
   <v>      -0.33333333       0.40000000       0.13333333 </v>
   <v>      -0.26666667       0.40000000       0.13333333 </v>
   <v>      -0.40000000       0.46666667       0.13333333 </v>
   <v>      -0.33333333       0.46666667       0.13333333 </v>
   <v>      -0.40000000       0.40000000       0.20000000 </v>
   <v>      -0.33333333       0.40000000       0.20000000 </v>
   <v>      -0.33333333       0.46666667       0.20000000 </v>
   <v>      -0.26666667       0.46666667       0.20000000 </v>
  </varray>
  <varray name="weights" >
   <v>       0.00029630 </v>
   <v>       0.00237037 </v>
   <v>       0.00237037 </v>
   <v>       0.00237037 </v>
   <v>       0.00237037 </v>
   <v>       0.00237037 </v>
   <v>       0.00237037 </v>
   <v>       0.00237037 </v>
   <v>       0.00177778 </v>
   <v>       0.00711111 </v>
   <v>       0.00711111 </v>
   <v>       0.00711111 </v>
   <v>       0.00711111 </v>
   <v>       0.00711111 </v>
   <v>       0.00711111 </v>
   <v>       0.00711111 </v>
   <v>       0.00711111 </v>
   <v>       0.00711111 </v>
   <v>       0.00711111 </v>
   <v>       0.00711111 </v>
   <v>       0.00711111 </v>
   <v>       0.00355556 </v>
   <v>       0.00177778 </v>
   <v>       0.00711111 </v>
   <v>       0.00711111 </v>
   <v>       0.00711111 </v>
   <v>       0.00711111 </v>
   <v>       0.00711111 </v>
   <v>       0.00711111 </v>
   <v>       0.00711111 </v>
   <v>       0.00711111 </v>
   <v>       0.00711111 </v>
   <v>       0.00711111 </v>
   <v>       0.00355556 </v>
   <v>       0.00177778 </v>
   <v>       0.00711111 </v>
   <v>       0.00711111 </v>
   <v>       0.00711111 </v>
   <v>       0.00711111 </v>
   <v>       0.00711111 </v>
   <v>       0.00711111 </v>
   <v>       0.00711111 </v>
   <v>       0.00711111 </v>
   <v>       0.00355556 </v>
   <v>       0.00177778 </v>
   <v>       0.00711111 </v>
   <v>       0.00711111 </v>
   <v>       0.00711111 </v>
   <v>       0.00711111 </v>
   <v>       0.00711111 </v>
   <v>       0.00711111 </v>
   <v>       0.00355556 </v>
   <v>       0.00177778 </v>
   <v>       0.00711111 </v>
   <v>       0.00711111 </v>
   <v>       0.00711111 </v>
   <v>       0.00711111 </v>
   <v>       0.00355556 </v>
   <v>       0.00177778 </v>
   <v>       0.00711111 </v>
   <v>       0.00711111 </v>
   <v>       0.00355556 </v>
   <v>       0.00177778 </v>
   <v>       0.00355556 </v>
   <v>       0.00711111 </v>
   <v>       0.01422222 </v>
   <v>       0.01422222 </v>
   <v>       0.01422222 </v>
   <v>       0.01422222 </v>
   <v>       0.01422222 </v>
   <v>       0.00711111 </v>
   <v>       0.01422222 </v>
   <v>       0.01422222 </v>
   <v>       0.01422222 </v>
   <v>       0.01422222 </v>
   <v>       0.01422222 </v>
   <v>       0.01422222 </v>
   <v>       0.01422222 </v>
   <v>       0.01422222 </v>
   <v>       0.00711111 </v>
   <v>       0.00711111 </v>
   <v>       0.01422222 </v>
   <v>       0.01422222 </v>
   <v>       0.01422222 </v>
   <v>       0.01422222 </v>
   <v>       0.01422222 </v>
   <v>       0.01422222 </v>
   <v>       0.00711111 </v>
   <v>       0.00711111 </v>
   <v>       0.01422222 </v>
   <v>       0.01422222 </v>
   <v>       0.01422222 </v>
   <v>       0.01422222 </v>
   <v>       0.00711111 </v>
   <v>       0.00711111 </v>
   <v>       0.01422222 </v>
   <v>       0.01422222 </v>
   <v>       0.00711111 </v>
   <v>       0.00711111 </v>
   <v>       0.00711111 </v>
   <v>       0.00711111 </v>
   <v>       0.01422222 </v>
   <v>       0.01422222 </v>
   <v>       0.01422222 </v>
   <v>       0.00711111 </v>
   <v>       0.01422222 </v>
   <v>       0.01422222 </v>
   <v>       0.01422222 </v>
   <v>       0.01422222 </v>
   <v>       0.00711111 </v>
   <v>       0.00711111 </v>
   <v>       0.01422222 </v>
   <v>       0.01422222 </v>
   <v>       0.00711111 </v>
   <v>       0.00711111 </v>
   <v>       0.00711111 </v>
   <v>       0.00711111 </v>
   <v>       0.01422222 </v>
   <v>       0.00711111 </v>
   <v>       0.00711111 </v>
  </varray>
  <varray name="tetrahedronlist"  type="int" >
   <v type="int" >       24        1        2        2        9 </v>
   <v type="int" >       48        2        9       10       22 </v>
   <v type="int" >       48        2        3       10       22 </v>
   <v type="int" >       24        2        2        9       22 </v>
   <v type="int" >       48        3       10       11       21 </v>
   <v type="int" >       48        3        4       11       21 </v>
   <v type="int" >       48        3       10       21       22 </v>
   <v type="int" >       48        4       11       12       20 </v>
   <v type="int" >       48        4        5       12       20 </v>
   <v type="int" >       48        4       11       20       21 </v>
   <v type="int" >       48        5       12       13       19 </v>
   <v type="int" >       48        5        6       13       19 </v>
   <v type="int" >       48        5       12       19       20 </v>
   <v type="int" >       48        6       13       14       18 </v>
   <v type="int" >       48        6        7       14       18 </v>
   <v type="int" >       48        6       13       18       19 </v>
   <v type="int" >       48        7       14       15       17 </v>
   <v type="int" >       48        7        8       15       17 </v>
   <v type="int" >       48        7       14       17       18 </v>
   <v type="int" >       48        8       15       16       16 </v>
   <v type="int" >       24        8        8       16       16 </v>
   <v type="int" >       48        8       15       16       17 </v>
   <v type="int" >       24        9       10       10       23 </v>
   <v type="int" >       24        9       10       10       22 </v>
   <v type="int" >       48       10       23       24       65 </v>
   <v type="int" >       48       10       11       24       65 </v>
   <v type="int" >       48       10       11       21       65 </v>
   <v type="int" >       24       10       10       23       65 </v>
   <v type="int" >       24       10       10       22       65 </v>
   <v type="int" >       48       10       21       22       65 </v>
   <v type="int" >       48       11       24       25       66 </v>
   <v type="int" >       48       11       12       25       66 </v>
   <v type="int" >       48       11       12       20       66 </v>
   <v type="int" >       48       11       24       65       66 </v>
   <v type="int" >       48       11       21       65       66 </v>
   <v type="int" >       48       11       20       21       66 </v>
   <v type="int" >       48       12       25       26       67 </v>
   <v type="int" >       48       12       13       26       67 </v>
   <v type="int" >       48       12       13       19       67 </v>
   <v type="int" >       48       12       25       66       67 </v>
   <v type="int" >       48       12       20       66       67 </v>
   <v type="int" >       48       12       19       20       67 </v>
   <v type="int" >       48       13       26       27       68 </v>
   <v type="int" >       48       13       14       27       68 </v>
   <v type="int" >       48       13       14       18       68 </v>
   <v type="int" >       48       13       26       67       68 </v>
   <v type="int" >       48       13       19       67       68 </v>
   <v type="int" >       48       13       18       19       68 </v>
   <v type="int" >       48       14       27       28       69 </v>
   <v type="int" >       48       14       15       28       69 </v>
   <v type="int" >       48       14       15       17       69 </v>
   <v type="int" >       48       14       27       68       69 </v>
   <v type="int" >       48       14       18       68       69 </v>
   <v type="int" >       48       14       17       18       69 </v>
   <v type="int" >       48       15       28       29       70 </v>
   <v type="int" >       48       15       16       29       70 </v>
   <v type="int" >       48       15       16       16       70 </v>
   <v type="int" >       48       15       28       69       70 </v>
   <v type="int" >       48       15       17       69       70 </v>
   <v type="int" >       48       15       16       17       70 </v>
   <v type="int" >       48       16       29       30       70 </v>
   <v type="int" >       48       16       17       30       70 </v>
   <v type="int" >       48       16       29       70       70 </v>
   <v type="int" >       24       16       16       70       70 </v>
   <v type="int" >       48       17       30       31       69 </v>
   <v type="int" >       48       17       18       31       69 </v>
   <v type="int" >       48       17       30       69       70 </v>
   <v type="int" >       48       18       31       32       68 </v>
   <v type="int" >       48       18       19       32       68 </v>
   <v type="int" >       48       18       31       68       69 </v>
   <v type="int" >       48       19       32       33       67 </v>
   <v type="int" >       48       19       20       33       67 </v>
   <v type="int" >       48       19       32       67       68 </v>
   <v type="int" >       48       20       33       34       66 </v>
   <v type="int" >       48       20       21       34       66 </v>
   <v type="int" >       48       20       33       66       67 </v>
   <v type="int" >       24       21       21       34       65 </v>
   <v type="int" >       24       21       21       22       65 </v>
   <v type="int" >       48       21       34       65       66 </v>
   <v type="int" >       24       23       24       24       35 </v>
   <v type="int" >       24       23       24       24       65 </v>
   <v type="int" >       48       24       35       36       71 </v>
   <v type="int" >       48       24       25       36       71 </v>
   <v type="int" >       48       24       25       66       71 </v>
   <v type="int" >       24       24       24       35       71 </v>
   <v type="int" >       24       24       24       65       71 </v>
   <v type="int" >       48       24       65       66       71 </v>
   <v type="int" >       48       25       36       37       72 </v>
   <v type="int" >       48       25       26       37       72 </v>
   <v type="int" >       48       25       26       67       72 </v>
   <v type="int" >       48       25       36       71       72 </v>
   <v type="int" >       48       25       66       71       72 </v>
   <v type="int" >       48       25       66       67       72 </v>
   <v type="int" >       48       26       37       38       73 </v>
   <v type="int" >       48       26       27       38       73 </v>
   <v type="int" >       48       26       27       68       73 </v>
   <v type="int" >       48       26       37       72       73 </v>
   <v type="int" >       48       26       67       72       73 </v>
   <v type="int" >       48       26       67       68       73 </v>
   <v type="int" >       48       27       38       39       74 </v>
   <v type="int" >       48       27       28       39       74 </v>
   <v type="int" >       48       27       28       69       74 </v>
   <v type="int" >       48       27       38       73       74 </v>
   <v type="int" >       48       27       68       73       74 </v>
   <v type="int" >       48       27       68       69       74 </v>
   <v type="int" >       48       28       39       40       75 </v>
   <v type="int" >       48       28       29       40       75 </v>
   <v type="int" >       48       28       29       70       75 </v>
   <v type="int" >       48       28       39       74       75 </v>
   <v type="int" >       48       28       69       74       75 </v>
   <v type="int" >       48       28       69       70       75 </v>
   <v type="int" >       48       29       40       41       76 </v>
   <v type="int" >       48       29       30       41       76 </v>
   <v type="int" >       48       29       30       70       76 </v>
   <v type="int" >       48       29       40       75       76 </v>
   <v type="int" >       48       29       70       75       76 </v>
   <v type="int" >       48       29       70       70       76 </v>
   <v type="int" >       48       30       41       42       77 </v>
   <v type="int" >       48       30       31       42       77 </v>
   <v type="int" >       48       30       31       69       77 </v>
   <v type="int" >       48       30       41       76       77 </v>
   <v type="int" >       48       30       70       76       77 </v>
   <v type="int" >       48       30       69       70       77 </v>
   <v type="int" >       48       31       42       43       78 </v>
   <v type="int" >       48       31       32       43       78 </v>
   <v type="int" >       48       31       32       68       78 </v>
   <v type="int" >       48       31       42       77       78 </v>
   <v type="int" >       48       31       69       77       78 </v>
   <v type="int" >       48       31       68       69       78 </v>
   <v type="int" >       48       32       43       44       79 </v>
   <v type="int" >       48       32       33       44       79 </v>
   <v type="int" >       48       32       33       67       79 </v>
   <v type="int" >       48       32       43       78       79 </v>
   <v type="int" >       48       32       68       78       79 </v>
   <v type="int" >       48       32       67       68       79 </v>
   <v type="int" >       24       33       33       44       80 </v>
   <v type="int" >       24       33       33       34       80 </v>
   <v type="int" >       48       33       34       66       80 </v>
   <v type="int" >       48       33       44       79       80 </v>
   <v type="int" >       48       33       67       79       80 </v>
   <v type="int" >       48       33       66       67       80 </v>
   <v type="int" >       24       34       66       66       80 </v>
   <v type="int" >       24       34       65       66       66 </v>
   <v type="int" >       24       35       36       36       45 </v>
   <v type="int" >       24       35       36       36       71 </v>
   <v type="int" >       48       36       45       46       81 </v>
   <v type="int" >       48       36       37       46       81 </v>
   <v type="int" >       48       36       37       72       81 </v>
   <v type="int" >       24       36       36       45       81 </v>
   <v type="int" >       24       36       36       71       81 </v>
   <v type="int" >       48       36       71       72       81 </v>
   <v type="int" >       48       37       46       47       82 </v>
   <v type="int" >       48       37       38       47       82 </v>
   <v type="int" >       48       37       38       73       82 </v>
   <v type="int" >       48       37       46       81       82 </v>
   <v type="int" >       48       37       72       81       82 </v>
   <v type="int" >       48       37       72       73       82 </v>
   <v type="int" >       48       38       47       48       83 </v>
   <v type="int" >       48       38       39       48       83 </v>
   <v type="int" >       48       38       39       74       83 </v>
   <v type="int" >       48       38       47       82       83 </v>
   <v type="int" >       48       38       73       82       83 </v>
   <v type="int" >       48       38       73       74       83 </v>
   <v type="int" >       48       39       48       49       84 </v>
   <v type="int" >       48       39       40       49       84 </v>
   <v type="int" >       48       39       40       75       84 </v>
   <v type="int" >       48       39       48       83       84 </v>
   <v type="int" >       48       39       74       83       84 </v>
   <v type="int" >       48       39       74       75       84 </v>
   <v type="int" >       48       40       49       50       85 </v>
   <v type="int" >       48       40       41       50       85 </v>
   <v type="int" >       48       40       41       76       85 </v>
   <v type="int" >       48       40       49       84       85 </v>
   <v type="int" >       48       40       75       84       85 </v>
   <v type="int" >       48       40       75       76       85 </v>
   <v type="int" >       48       41       50       51       86 </v>
   <v type="int" >       48       41       42       51       86 </v>
   <v type="int" >       48       41       42       77       86 </v>
   <v type="int" >       48       41       50       85       86 </v>
   <v type="int" >       48       41       76       85       86 </v>
   <v type="int" >       48       41       76       77       86 </v>
   <v type="int" >       48       42       51       52       87 </v>
   <v type="int" >       48       42       43       52       87 </v>
   <v type="int" >       48       42       43       78       87 </v>
   <v type="int" >       48       42       51       86       87 </v>
   <v type="int" >       48       42       77       86       87 </v>
   <v type="int" >       48       42       77       78       87 </v>
   <v type="int" >       24       43       43       52       88 </v>
   <v type="int" >       24       43       43       44       88 </v>
   <v type="int" >       48       43       44       79       88 </v>
   <v type="int" >       48       43       52       87       88 </v>
   <v type="int" >       48       43       78       87       88 </v>
   <v type="int" >       48       43       78       79       88 </v>
   <v type="int" >       24       44       79       79       88 </v>
   <v type="int" >       24       44       79       79       80 </v>
   <v type="int" >       24       45       46       46       53 </v>
   <v type="int" >       24       45       46       46       81 </v>
   <v type="int" >       48       46       53       54       89 </v>
   <v type="int" >       48       46       47       54       89 </v>
   <v type="int" >       48       46       47       82       89 </v>
   <v type="int" >       24       46       46       53       89 </v>
   <v type="int" >       24       46       46       81       89 </v>
   <v type="int" >       48       46       81       82       89 </v>
   <v type="int" >       48       47       54       55       90 </v>
   <v type="int" >       48       47       48       55       90 </v>
   <v type="int" >       48       47       48       83       90 </v>
   <v type="int" >       48       47       54       89       90 </v>
   <v type="int" >       48       47       82       89       90 </v>
   <v type="int" >       48       47       82       83       90 </v>
   <v type="int" >       48       48       55       56       91 </v>
   <v type="int" >       48       48       49       56       91 </v>
   <v type="int" >       48       48       49       84       91 </v>
   <v type="int" >       48       48       55       90       91 </v>
   <v type="int" >       48       48       83       90       91 </v>
   <v type="int" >       48       48       83       84       91 </v>
   <v type="int" >       48       49       56       57       92 </v>
   <v type="int" >       48       49       50       57       92 </v>
   <v type="int" >       48       49       50       85       92 </v>
   <v type="int" >       48       49       56       91       92 </v>
   <v type="int" >       48       49       84       91       92 </v>
   <v type="int" >       48       49       84       85       92 </v>
   <v type="int" >       48       50       57       58       93 </v>
   <v type="int" >       48       50       51       58       93 </v>
   <v type="int" >       48       50       51       86       93 </v>
   <v type="int" >       48       50       57       92       93 </v>
   <v type="int" >       48       50       85       92       93 </v>
   <v type="int" >       48       50       85       86       93 </v>
   <v type="int" >       24       51       51       58       94 </v>
   <v type="int" >       24       51       51       52       94 </v>
   <v type="int" >       48       51       52       87       94 </v>
   <v type="int" >       48       51       58       93       94 </v>
   <v type="int" >       48       51       86       93       94 </v>
   <v type="int" >       48       51       86       87       94 </v>
   <v type="int" >       24       52       87       87       94 </v>
   <v type="int" >       24       52       87       87       88 </v>
   <v type="int" >       24       53       54       54       59 </v>
   <v type="int" >       24       53       54       54       89 </v>
   <v type="int" >       48       54       59       60       95 </v>
   <v type="int" >       48       54       55       60       95 </v>
   <v type="int" >       48       54       55       90       95 </v>
   <v type="int" >       24       54       54       59       95 </v>
   <v type="int" >       24       54       54       89       95 </v>
   <v type="int" >       48       54       89       90       95 </v>
   <v type="int" >       48       55       60       61       96 </v>
   <v type="int" >       48       55       56       61       96 </v>
   <v type="int" >       48       55       56       91       96 </v>
   <v type="int" >       48       55       60       95       96 </v>
   <v type="int" >       48       55       90       95       96 </v>
   <v type="int" >       48       55       90       91       96 </v>
   <v type="int" >       48       56       61       62       97 </v>
   <v type="int" >       48       56       57       62       97 </v>
   <v type="int" >       48       56       57       92       97 </v>
   <v type="int" >       48       56       61       96       97 </v>
   <v type="int" >       48       56       91       96       97 </v>
   <v type="int" >       48       56       91       92       97 </v>
   <v type="int" >       24       57       57       62       98 </v>
   <v type="int" >       24       57       57       58       98 </v>
   <v type="int" >       48       57       58       93       98 </v>
   <v type="int" >       48       57       62       97       98 </v>
   <v type="int" >       48       57       92       97       98 </v>
   <v type="int" >       48       57       92       93       98 </v>
   <v type="int" >       24       58       93       93       98 </v>
   <v type="int" >       24       58       93       93       94 </v>
   <v type="int" >       24       59       60       60       63 </v>
   <v type="int" >       24       59       60       60       95 </v>
   <v type="int" >       48       60       63       64       99 </v>
   <v type="int" >       48       60       61       64       99 </v>
   <v type="int" >       48       60       61       96       99 </v>
   <v type="int" >       24       60       60       63       99 </v>
   <v type="int" >       24       60       60       95       99 </v>
   <v type="int" >       48       60       95       96       99 </v>
   <v type="int" >       24       61       61       64      100 </v>
   <v type="int" >       24       61       61       62      100 </v>
   <v type="int" >       48       61       62       97      100 </v>
   <v type="int" >       48       61       64       99      100 </v>
   <v type="int" >       48       61       96       99      100 </v>
   <v type="int" >       48       61       96       97      100 </v>
   <v type="int" >       24       62       97       97      100 </v>
   <v type="int" >       24       62       97       97       98 </v>
   <v type="int" >       12       63       63       64       64 </v>
   <v type="int" >       24       63       64       64       99 </v>
   <v type="int" >       12       64       64       99       99 </v>
   <v type="int" >       24       64       99       99      100 </v>
   <v type="int" >       24       65       66       66       71 </v>
   <v type="int" >       48       66       71       72       80 </v>
   <v type="int" >       48       66       67       72       80 </v>
   <v type="int" >       24       66       66       71       80 </v>
   <v type="int" >       48       67       72       73       79 </v>
   <v type="int" >       48       67       68       73       79 </v>
   <v type="int" >       48       67       72       79       80 </v>
   <v type="int" >       48       68       73       74       78 </v>
   <v type="int" >       48       68       69       74       78 </v>
   <v type="int" >       48       68       73       78       79 </v>
   <v type="int" >       48       69       74       75       77 </v>
   <v type="int" >       48       69       70       75       77 </v>
   <v type="int" >       48       69       74       77       78 </v>
   <v type="int" >       48       70       75       76       76 </v>
   <v type="int" >       24       70       70       76       76 </v>
   <v type="int" >       48       70       75       76       77 </v>
   <v type="int" >       24       71       72       72       81 </v>
   <v type="int" >       24       71       72       72       80 </v>
   <v type="int" >       48       72       81       82      101 </v>
   <v type="int" >       48       72       73       82      101 </v>
   <v type="int" >       48       72       73       79      101 </v>
   <v type="int" >       24       72       72       81      101 </v>
   <v type="int" >       24       72       72       80      101 </v>
   <v type="int" >       48       72       79       80      101 </v>
   <v type="int" >       48       73       82       83      102 </v>
   <v type="int" >       48       73       74       83      102 </v>
   <v type="int" >       48       73       74       78      102 </v>
   <v type="int" >       48       73       82      101      102 </v>
   <v type="int" >       48       73       79      101      102 </v>
   <v type="int" >       48       73       78       79      102 </v>
   <v type="int" >       48       74       83       84      103 </v>
   <v type="int" >       48       74       75       84      103 </v>
   <v type="int" >       48       74       75       77      103 </v>
   <v type="int" >       48       74       83      102      103 </v>
   <v type="int" >       48       74       78      102      103 </v>
   <v type="int" >       48       74       77       78      103 </v>
   <v type="int" >       48       75       84       85      104 </v>
   <v type="int" >       48       75       76       85      104 </v>
   <v type="int" >       48       75       76       76      104 </v>
   <v type="int" >       48       75       84      103      104 </v>
   <v type="int" >       48       75       77      103      104 </v>
   <v type="int" >       48       75       76       77      104 </v>
   <v type="int" >       48       76       85       86      104 </v>
   <v type="int" >       48       76       77       86      104 </v>
   <v type="int" >       48       76       85      104      104 </v>
   <v type="int" >       24       76       76      104      104 </v>
   <v type="int" >       48       77       86       87      103 </v>
   <v type="int" >       48       77       78       87      103 </v>
   <v type="int" >       48       77       86      103      104 </v>
   <v type="int" >       48       78       87       88      102 </v>
   <v type="int" >       48       78       79       88      102 </v>
   <v type="int" >       48       78       87      102      103 </v>
   <v type="int" >       24       79       79       88      101 </v>
   <v type="int" >       24       79       79       80      101 </v>
   <v type="int" >       48       79       88      101      102 </v>
   <v type="int" >       24       81       82       82       89 </v>
   <v type="int" >       24       81       82       82      101 </v>
   <v type="int" >       48       82       89       90      105 </v>
   <v type="int" >       48       82       83       90      105 </v>
   <v type="int" >       48       82       83      102      105 </v>
   <v type="int" >       24       82       82       89      105 </v>
   <v type="int" >       24       82       82      101      105 </v>
   <v type="int" >       48       82      101      102      105 </v>
   <v type="int" >       48       83       90       91      106 </v>
   <v type="int" >       48       83       84       91      106 </v>
   <v type="int" >       48       83       84      103      106 </v>
   <v type="int" >       48       83       90      105      106 </v>
   <v type="int" >       48       83      102      105      106 </v>
   <v type="int" >       48       83      102      103      106 </v>
   <v type="int" >       48       84       91       92      107 </v>
   <v type="int" >       48       84       85       92      107 </v>
   <v type="int" >       48       84       85      104      107 </v>
   <v type="int" >       48       84       91      106      107 </v>
   <v type="int" >       48       84      103      106      107 </v>
   <v type="int" >       48       84      103      104      107 </v>
   <v type="int" >       48       85       92       93      108 </v>
   <v type="int" >       48       85       86       93      108 </v>
   <v type="int" >       48       85       86      104      108 </v>
   <v type="int" >       48       85       92      107      108 </v>
   <v type="int" >       48       85      104      107      108 </v>
   <v type="int" >       48       85      104      104      108 </v>
   <v type="int" >       48       86       93       94      109 </v>
   <v type="int" >       48       86       87       94      109 </v>
   <v type="int" >       48       86       87      103      109 </v>
   <v type="int" >       48       86       93      108      109 </v>
   <v type="int" >       48       86      104      108      109 </v>
   <v type="int" >       48       86      103      104      109 </v>
   <v type="int" >       24       87       87       94      110 </v>
   <v type="int" >       24       87       87       88      110 </v>
   <v type="int" >       48       87       88      102      110 </v>
   <v type="int" >       48       87       94      109      110 </v>
   <v type="int" >       48       87      103      109      110 </v>
   <v type="int" >       48       87      102      103      110 </v>
   <v type="int" >       24       88      102      102      110 </v>
   <v type="int" >       24       88      101      102      102 </v>
   <v type="int" >       24       89       90       90       95 </v>
   <v type="int" >       24       89       90       90      105 </v>
   <v type="int" >       48       90       95       96      111 </v>
   <v type="int" >       48       90       91       96      111 </v>
   <v type="int" >       48       90       91      106      111 </v>
   <v type="int" >       24       90       90       95      111 </v>
   <v type="int" >       24       90       90      105      111 </v>
   <v type="int" >       48       90      105      106      111 </v>
   <v type="int" >       48       91       96       97      112 </v>
   <v type="int" >       48       91       92       97      112 </v>
   <v type="int" >       48       91       92      107      112 </v>
   <v type="int" >       48       91       96      111      112 </v>
   <v type="int" >       48       91      106      111      112 </v>
   <v type="int" >       48       91      106      107      112 </v>
   <v type="int" >       48       92       97       98      113 </v>
   <v type="int" >       48       92       93       98      113 </v>
   <v type="int" >       48       92       93      108      113 </v>
   <v type="int" >       48       92       97      112      113 </v>
   <v type="int" >       48       92      107      112      113 </v>
   <v type="int" >       48       92      107      108      113 </v>
   <v type="int" >       24       93       93       98      114 </v>
   <v type="int" >       24       93       93       94      114 </v>
   <v type="int" >       48       93       94      109      114 </v>
   <v type="int" >       48       93       98      113      114 </v>
   <v type="int" >       48       93      108      113      114 </v>
   <v type="int" >       48       93      108      109      114 </v>
   <v type="int" >       24       94      109      109      114 </v>
   <v type="int" >       24       94      109      109      110 </v>
   <v type="int" >       24       95       96       96       99 </v>
   <v type="int" >       24       95       96       96      111 </v>
   <v type="int" >       48       96       99      100      115 </v>
   <v type="int" >       48       96       97      100      115 </v>
   <v type="int" >       48       96       97      112      115 </v>
   <v type="int" >       24       96       96       99      115 </v>
   <v type="int" >       24       96       96      111      115 </v>
   <v type="int" >       48       96      111      112      115 </v>
   <v type="int" >       24       97       97      100      116 </v>
   <v type="int" >       24       97       97       98      116 </v>
   <v type="int" >       48       97       98      113      116 </v>
   <v type="int" >       48       97      100      115      116 </v>
   <v type="int" >       48       97      112      115      116 </v>
   <v type="int" >       48       97      112      113      116 </v>
   <v type="int" >       24       98      113      113      116 </v>
   <v type="int" >       24       98      113      113      114 </v>
   <v type="int" >       12       99       99      100      100 </v>
   <v type="int" >       24       99      100      100      115 </v>
   <v type="int" >       12      100      100      115      115 </v>
   <v type="int" >       24      100      115      115      116 </v>
   <v type="int" >       24      101      102      102      105 </v>
   <v type="int" >       48      102      105      106      110 </v>
   <v type="int" >       48      102      103      106      110 </v>
   <v type="int" >       24      102      102      105      110 </v>
   <v type="int" >       48      103      106      107      109 </v>
   <v type="int" >       48      103      104      107      109 </v>
   <v type="int" >       48      103      106      109      110 </v>
   <v type="int" >       48      104      107      108      108 </v>
   <v type="int" >       24      104      104      108      108 </v>
   <v type="int" >       48      104      107      108      109 </v>
   <v type="int" >       24      105      106      106      111 </v>
   <v type="int" >       24      105      106      106      110 </v>
   <v type="int" >       48      106      111      112      117 </v>
   <v type="int" >       48      106      107      112      117 </v>
   <v type="int" >       48      106      107      109      117 </v>
   <v type="int" >       24      106      106      111      117 </v>
   <v type="int" >       24      106      106      110      117 </v>
   <v type="int" >       48      106      109      110      117 </v>
   <v type="int" >       48      107      112      113      118 </v>
   <v type="int" >       48      107      108      113      118 </v>
   <v type="int" >       48      107      108      108      118 </v>
   <v type="int" >       48      107      112      117      118 </v>
   <v type="int" >       48      107      109      117      118 </v>
   <v type="int" >       48      107      108      109      118 </v>
   <v type="int" >       48      108      113      114      118 </v>
   <v type="int" >       48      108      109      114      118 </v>
   <v type="int" >       48      108      113      118      118 </v>
   <v type="int" >       24      108      108      118      118 </v>
   <v type="int" >       24      109      109      114      117 </v>
   <v type="int" >       24      109      109      110      117 </v>
   <v type="int" >       48      109      114      117      118 </v>
   <v type="int" >       24      111      112      112      115 </v>
   <v type="int" >       24      111      112      112      117 </v>
   <v type="int" >       48      112      115      116      119 </v>
   <v type="int" >       48      112      113      116      119 </v>
   <v type="int" >       48      112      113      118      119 </v>
   <v type="int" >       24      112      112      115      119 </v>
   <v type="int" >       24      112      112      117      119 </v>
   <v type="int" >       48      112      117      118      119 </v>
   <v type="int" >       24      113      113      116      120 </v>
   <v type="int" >       24      113      113      114      120 </v>
   <v type="int" >       48      113      114      118      120 </v>
   <v type="int" >       48      113      116      119      120 </v>
   <v type="int" >       48      113      118      119      120 </v>
   <v type="int" >       48      113      118      118      120 </v>
   <v type="int" >       24      114      118      118      120 </v>
   <v type="int" >       24      114      117      118      118 </v>
   <v type="int" >       12      115      115      116      116 </v>
   <v type="int" >       24      115      116      116      119 </v>
   <v type="int" >       12      116      116      119      119 </v>
   <v type="int" >       24      116      119      119      120 </v>
   <v type="int" >       24      117      118      118      119 </v>
   <v type="int" >       48      118      119      120      120 </v>
   <v type="int" >       24      118      118      120      120 </v>
   <v type="int" >       24      118      118      119      120 </v>
   <v type="int" >       12      119      119      120      120 </v>
   <v type="int" >       24      119      120      120      120 </v>
   <v type="int" >        6      120      120      120      120 </v>
  </varray>
  <i name="volumeweight">      0.00004938 </i>
 </kpoints>
 <parameters>
  <separator name="general" >
   <i type="string" name="SYSTEM">unknown system</i>
   <i type="logical" name="LCOMPAT"> F  </i>
  </separator>
  <separator name="electronic" >
   <i type="string" name="PREC">accura</i>
   <i name="ENMAX">    520.00000000</i>
   <i name="ENAUG">    291.05200000</i>
   <i name="EDIFF">      0.00005000</i>
   <i type="int" name="IALGO">    68</i>
   <i type="int" name="IWAVPR">    10</i>
   <i type="int" name="NBANDS">    48</i>
   <i type="int" name="NBANDSLOW">    -1</i>
   <i type="int" name="NBANDSHIGH">    -1</i>
   <i name="NELECT">      3.00000000</i>
   <i type="int" name="TURBO">     0</i>
   <i type="int" name="IRESTART">     0</i>
   <i type="int" name="NREBOOT">     0</i>
   <i type="int" name="NMIN">     0</i>
   <i name="EREF">      0.00000000</i>
   <separator name="electronic smearing" >
    <i type="int" name="ISMEAR">    -5</i>
    <i name="SIGMA">      0.05000000</i>
    <i name="KSPACING">      0.50000000</i>
    <i type="logical" name="KGAMMA"> T  </i>
    <i type="logical" name="KBLOWUP"> T  </i>
   </separator>
   <separator name="electronic projectors" >
    <i type="logical" name="LREAL"> F  </i>
    <v name="ROPT">      0.00000000</v>
    <i type="int" name="LMAXPAW">  -100</i>
    <i type="int" name="LMAXMIX">     2</i>
    <i type="logical" name="NLSPLINE"> F  </i>
   </separator>
   <separator name="electronic startup" >
    <i type="int" name="ISTART">     0</i>
    <i type="int" name="ICHARG">     2</i>
    <i type="int" name="INIWAV">     1</i>
   </separator>
   <separator name="electronic spin" >
    <i type="int" name="ISPIN">     2</i>
    <i type="logical" name="LNONCOLLINEAR"> F  </i>
    <v name="MAGMOM">      0.60000000</v>
    <i name="NUPDOWN">     -1.00000000</i>
    <i type="logical" name="LSORBIT"> F  </i>
    <v name="SAXIS">      0.00000000      0.00000000      1.00000000</v>
    <i type="logical" name="LSPIRAL"> F  </i>
    <v name="QSPIRAL">      0.00000000      0.00000000      0.00000000</v>
    <i type="logical" name="LZEROZ"> F  </i>
   </separator>
   <separator name="electronic exchange-correlation" >
    <i type="logical" name="LASPH"> T  </i>
    <i type="logical" name="LMETAGGA"> F  </i>
   </separator>
   <separator name="electronic convergence" >
    <i type="int" name="NELM">   100</i>
    <i type="int" name="NELMDL">    -5</i>
    <i type="int" name="NELMIN">     2</i>
    <i name="ENINI">    520.00000000</i>
    <separator name="electronic convergence detail" >
     <i type="logical" name="LDIAG"> T  </i>
     <i type="logical" name="LSUBROT"> F  </i>
     <i name="WEIMIN">      0.00000000</i>
     <i name="EBREAK">      0.00000026</i>
     <i name="DEPER">      0.30000000</i>
     <i type="int" name="NRMM">     4</i>
     <i name="TIME">      0.40000000</i>
    </separator>
   </separator>
   <separator name="electronic mixer" >
    <i name="AMIX">      0.40000000</i>
    <i name="BMIX">      1.00000000</i>
    <i name="AMIN">      0.10000000</i>
    <i name="AMIX_MAG">      1.60000000</i>
    <i name="BMIX_MAG">      1.00000000</i>
    <separator name="electronic mixer details" >
     <i type="int" name="IMIX">     4</i>
     <i type="logical" name="MIXFIRST"> F  </i>
     <i type="int" name="MAXMIX">   -45</i>
     <i name="WC">    100.00000000</i>
     <i type="int" name="INIMIX">     1</i>
     <i type="int" name="MIXPRE">     1</i>
     <i type="int" name="MREMOVE">     5</i>
    </separator>
   </separator>
   <separator name="electronic dipolcorrection" >
    <i type="logical" name="LDIPOL"> F  </i>
    <i type="logical" name="LMONO"> F  </i>
    <i type="int" name="IDIPOL">     0</i>
    <i name="EPSILON">      1.00000000</i>
    <v name="DIPOL">   -100.00000000   -100.00000000   -100.00000000</v>
    <i name="EFIELD">      0.00000000</i>
   </separator>
  </separator>
  <separator name="grids" >
   <i type="int" name="NGX">    24</i>
   <i type="int" name="NGY">    24</i>
   <i type="int" name="NGZ">    24</i>
   <i type="int" name="NGXF">    48</i>
   <i type="int" name="NGYF">    48</i>
   <i type="int" name="NGZF">    48</i>
   <i type="logical" name="ADDGRID"> F  </i>
  </separator>
  <separator name="ionic" >
   <i type="int" name="NSW">     0</i>
   <i type="int" name="IBRION">    -1</i>
   <i type="int" name="MDALGO">     0</i>
   <i type="int" name="ISIF">     2</i>
   <i name="PSTRESS">      0.00000000</i>
   <i name="EDIFFG">      0.00050000</i>
   <i type="int" name="NFREE">     0</i>
   <i name="POTIM">      0.50000000</i>
   <i name="SMASS">     -3.00000000</i>
   <i name="SCALEE">      1.00000000</i>
  </separator>
  <separator name="ionic md" >
   <i name="TEBEG">      0.00010000</i>
   <i name="TEEND">      0.00010000</i>
   <i type="int" name="NBLOCK">     1</i>
   <i type="int" name="KBLOCK">     1</i>
   <i type="int" name="NPACO">   256</i>
   <i name="APACO">     16.00000000</i>
  </separator>
  <separator name="symmetry" >
   <i type="int" name="ISYM">     2</i>
   <i name="SYMPREC">      0.00001000</i>
  </separator>
  <separator name="dos" >
   <i type="int" name="LORBIT">    11</i>
   <v name="RWIGS">     -1.00000000</v>
   <i type="int" name="NEDOS">   301</i>
   <i name="EMIN">     10.00000000</i>
   <i name="EMAX">    -10.00000000</i>
   <i name="EFERMI">      0.00000000</i>
  </separator>
  <separator name="writing" >
   <i type="int" name="NWRITE">     2</i>
   <i type="logical" name="LWAVE"> F  </i>
   <i type="logical" name="LDOWNSAMPLE"> F  </i>
   <i type="logical" name="LCHARG"> T  </i>
   <i type="logical" name="LPARD"> F  </i>
   <i type="logical" name="LVTOT"> F  </i>
   <i type="logical" name="LVHAR"> F  </i>
   <i type="logical" name="LELF"> F  </i>
   <i type="logical" name="LOPTICS"> F  </i>
   <v name="STM">      0.00000000      0.00000000      0.00000000      0.00000000      0.00000000      0.00000000      0.00000000</v>
  </separator>
  <separator name="performance" >
   <i type="int" name="NPAR">    48</i>
   <i type="int" name="NSIM">     4</i>
   <i type="int" name="NBLK">    -1</i>
   <i type="logical" name="LPLANE"> T  </i>
   <i type="logical" name="LSCALAPACK"> T  </i>
   <i type="logical" name="LSCAAWARE"> T  </i>
   <i type="logical" name="LSCALU"> F  </i>
   <i type="logical" name="LASYNC"> F  </i>
   <i type="logical" name="LORBITALREAL"> F  </i>
  </separator>
  <separator name="miscellaneous" >
   <i type="int" name="IDIOT">     3</i>
   <i type="int" name="PHON_NSTRUCT">    -1</i>
   <i type="logical" name="LMUSIC"> F  </i>
   <v name="POMASS">     26.98100000</v>
   <v name="DARWINR">      0.00000000</v>
   <v name="DARWINV">      1.00000000</v>
   <i type="logical" name="LCORR"> T  </i>
  </separator>
  <i type="logical" name="GGA_COMPAT"> T  </i>
  <i type="logical" name="LBERRY"> F  </i>
  <i type="int" name="ICORELEVEL">     0</i>
  <i type="logical" name="LDAU"> F  </i>
  <i type="int" name="I_CONSTRAINED_M">     0</i>
  <separator name="electronic exchange-correlation" >
   <i type="string" name="GGA">--</i>
   <i type="int" name="VOSKOWN">     0</i>
   <i type="logical" name="LHFCALC"> F  </i>
   <i type="string" name="PRECFOCK"></i>
   <i type="logical" name="LSYMGRAD"> F  </i>
   <i type="logical" name="LHFONE"> F  </i>
   <i type="logical" name="LRHFCALC"> F  </i>
   <i type="logical" name="LTHOMAS"> F  </i>
   <i type="logical" name="LMODELHF"> F  </i>
   <i type="logical" name="LFOCKACE"> F  </i>
   <i name="ENCUT4O">     -1.00000000</i>
   <i type="int" name="EXXOEP">     0</i>
   <i type="int" name="FOURORBIT">     0</i>
   <i name="AEXX">      0.00000000</i>
   <i name="HFALPHA">      0.00000000</i>
   <i name="MCALPHA">      0.00000000</i>
   <i name="ALDAX">      1.00000000</i>
   <i name="AGGAX">      1.00000000</i>
   <i name="ALDAC">      1.00000000</i>
   <i name="AGGAC">      1.00000000</i>
   <i type="int" name="NKREDX">     1</i>
   <i type="int" name="NKREDY">     1</i>
   <i type="int" name="NKREDZ">     1</i>
   <i type="logical" name="SHIFTRED"> F  </i>
   <i type="logical" name="ODDONLY"> F  </i>
   <i type="logical" name="EVENONLY"> F  </i>
   <i type="int" name="LMAXFOCK">     0</i>
   <i type="int" name="NMAXFOCKAE">     0</i>
   <i type="logical" name="LFOCKAEDFT"> F  </i>
   <i name="HFSCREEN">      0.00000000</i>
   <i name="HFSCREENC">      0.00000000</i>
   <i type="int" name="NBANDSGWLOW">     0</i>
  </separator>
  <separator name="vdW DFT" >
   <i type="logical" name="LUSE_VDW"> F  </i>
   <i name="Zab_VDW">     -0.84910000</i>
   <i name="PARAM1">      0.12340000</i>
   <i name="PARAM2">      1.00000000</i>
   <i name="PARAM3">      0.00000000</i>
  </separator>
  <separator name="model GW" >
   <i type="int" name="MODEL_GW">     0</i>
   <i name="MODEL_EPS0">      9.94976379</i>
   <i name="MODEL_ALPHA">      1.00000000</i>
  </separator>
  <separator name="linear response parameters" >
   <i type="logical" name="LEPSILON"> F  </i>
   <i type="logical" name="LRPA"> F  </i>
   <i type="logical" name="LNABLA"> F  </i>
   <i type="logical" name="LVEL"> F  </i>
   <i type="int" name="KINTER">     0</i>
   <i name="CSHIFT">      0.10000000</i>
   <i name="OMEGAMAX">     -1.00000000</i>
   <i name="DEG_THRESHOLD">      0.00200000</i>
   <i name="RTIME">     -0.10000000</i>
   <i name="WPLASMAI">      0.00000000</i>
   <v name="DFIELD">      0.00000000      0.00000000      0.00000000</v>
   <v name="WPLASMA">      0.00000000      0.00000000      0.00000000      0.00000000      0.00000000      0.00000000      0.00000000      0.00000000      0.00000000</v>
  </separator>
  <separator name="orbital magnetization" >
   <i type="logical" name="NUCIND"> F  </i>
   <v name="MAGPOS">      0.00000000      0.00000000      0.00000000</v>
   <i type="logical" name="LNICSALL"> T  </i>
   <i type="logical" name="ORBITALMAG"> F  </i>
   <i type="logical" name="LMAGBLOCH"> F  </i>
   <i type="logical" name="LCHIMAG"> F  </i>
   <i type="logical" name="LGAUGE"> T  </i>
   <i type="int" name="MAGATOM">     0</i>
   <v name="MAGDIPOL">      0.00000000      0.00000000      0.00000000</v>
   <v name="AVECCONST">      0.00000000      0.00000000      0.00000000</v>
  </separator>
  <separator name="response functions" >
   <i type="logical" name="LFINITE_TEMPERATURE"> F  </i>
   <i type="logical" name="LADDER"> F  </i>
   <i type="logical" name="LRPAFORCE"> F  </i>
   <i type="logical" name="LFXC"> F  </i>
   <i type="logical" name="LHARTREE"> T  </i>
   <i type="int" name="IBSE">     0</i>
   <v type="int" name="KPOINT">    -1     0     0     0</v>
   <i type="logical" name="LTCTC"> F  </i>
   <i type="logical" name="LTCTE"> F  </i>
   <i type="logical" name="LTETE"> F  </i>
   <i type="logical" name="LTRIPLET"> F  </i>
   <i type="logical" name="LFXCEPS"> F  </i>
   <i type="logical" name="LFXHEG"> F  </i>
   <i type="int" name="NATURALO">     2</i>
   <i type="logical" name="LHOLEGF"> F  </i>
   <i type="logical" name="L2ORDER"> F  </i>
   <i type="logical" name="LDMP1"> F  </i>
   <i type="logical" name="LMP2LT"> F  </i>
   <i type="logical" name="LSMP2LT"> F  </i>
   <i type="logical" name="LGWLF"> F  </i>
   <i name="ENCUTGW">     -2.00000000</i>
   <i name="ENCUTGWSOFT">     -2.00000000</i>
   <i name="ENCUTLF">     -1.00000000</i>
   <i type="logical" name="LESF_SPLINES"> F  </i>
   <i type="int" name="LMAXMP2">    -1</i>
   <i name="SCISSOR">      0.00000000</i>
   <i type="int" name="NOMEGA">     0</i>
   <i type="int" name="NOMEGAR">     0</i>
   <i type="int" name="NBANDSGW">    -1</i>
   <i type="int" name="NBANDSO">    -1</i>
   <i type="int" name="NBANDSV">    -1</i>
   <i type="int" name="NELM">   100</i>
   <i type="int" name="NELMHF">     1</i>
   <i type="int" name="DIM">     3</i>
   <i type="int" name="IESPILON">     4</i>
   <i type="int" name="ANTIRES">     0</i>
   <i name="OMEGAMAX">    -30.00000000</i>
   <i name="OMEGAMIN">    -30.00000000</i>
   <i name="OMEGATL">   -200.00000000</i>
   <i type="int" name="OMEGAGRID">     0</i>
   <i name="CSHIFT">     -0.10000000</i>
   <i type="logical" name="LSELFENERGY"> F  </i>
   <i type="logical" name="LSPECTRAL"> F  </i>
   <i type="logical" name="LSPECTRALGW"> F  </i>
   <i type="logical" name="LSINGLES"> F  </i>
   <i type="logical" name="LFERMIGW"> F  </i>
   <i type="logical" name="ODDONLYGW"> F  </i>
   <i type="logical" name="EVENONLYGW"> F  </i>
   <i type="int" name="NKREDLFX">     1</i>
   <i type="int" name="NKREDLFY">     1</i>
   <i type="int" name="NKREDLFZ">     1</i>
   <i type="int" name="MAXMEM">  2800</i>
   <i type="int" name="TELESCOPE">     0</i>
   <i type="int" name="NTAUPAR">    -1</i>
   <i type="int" name="NOMEGAPAR">    -1</i>
   <i name="DAMP_NEWTON">      0.80000001</i>
   <i name="LAMBDA">      1.00000000</i>
  </separator>
  <separator name="External order field" >
   <i name="OFIELD_KAPPA">      0.00000000</i>
   <v name="OFIELD_K">      0.00000000      0.00000000      0.00000000</v>
   <i name="OFIELD_Q6_NEAR">      0.00000000</i>
   <i name="OFIELD_Q6_FAR">      0.00000000</i>
   <i name="OFIELD_A">      0.00000000</i>
  </separator>
 </parameters>
 <atominfo>
  <atoms>       1 </atoms>
  <types>       1 </types>
  <array name="atoms" >
   <dimension dim="1">ion</dimension>
   <field type="string">element</field>
   <field type="int">atomtype</field>
   <set>
    <rc><c>Al</c><c>   1</c></rc>
   </set>
  </array>
  <array name="atomtypes" >
   <dimension dim="1">type</dimension>
   <field type="int">atomspertype</field>
   <field type="string">element</field>
   <field>mass</field>
   <field>valence</field>
   <field type="string">pseudopotential</field>
   <set>
    <rc><c>   1</c><c>Al</c><c>     26.98100000</c><c>      3.00000000</c><c>  PAW_PBE Al 04Jan2001                  </c></rc>
   </set>
  </array>
 </atominfo>
 <structure name="initialpos" >
  <crystal>
   <varray name="basis" >
    <v>       0.00000000       2.02400000       2.02400000 </v>
    <v>       2.02400000       0.00000000       2.02400000 </v>
    <v>       2.02400000       2.02400000       0.00000000 </v>
   </varray>
   <i name="volume">     16.58293965 </i>
   <varray name="rec_basis" >
    <v>      -0.24703557       0.24703557       0.24703557 </v>
    <v>       0.24703557      -0.24703557       0.24703557 </v>
    <v>       0.24703557       0.24703557      -0.24703557 </v>
   </varray>
  </crystal>
  <varray name="positions" >
   <v>       0.00000000       0.00000000       0.00000000 </v>
  </varray>
 </structure>
 <calculation>
  <scstep>
   <time name="dav">   18.67   18.67</time>
   <time name="total">   18.94   18.94</time>
   <energy>
    <i name="alphaZ">     -0.20254611 </i>
    <i name="ewald">    -73.39295237 </i>
    <i name="hartreedc">     -0.10329695 </i>
    <i name="XCdc">    -26.19545267 </i>
    <i name="pawpsdc">     66.16230985 </i>
    <i name="pawaedc">    -34.20858819 </i>
    <i name="eentropy">      0.00000000 </i>
    <i name="bandstr">     10.76627452 </i>
    <i name="atom">     53.53845706 </i>
    <i name="e_fr_energy">     -3.63579486 </i>
    <i name="e_wo_entrp">     -3.63579486 </i>
    <i name="e_0_energy">     -3.63579486 </i>
   </energy>
  </scstep>
  <scstep>
   <time name="dav">   16.58   16.58</time>
   <time name="total">   16.69   16.69</time>
   <energy>
    <i name="e_fr_energy">     -3.68317637 </i>
    <i name="e_wo_entrp">     -3.68317637 </i>
    <i name="e_0_energy">     -3.68317637 </i>
   </energy>
  </scstep>
  <scstep>
   <time name="dav">   24.37   24.37</time>
   <time name="total">   24.50   24.50</time>
   <energy>
    <i name="e_fr_energy">     -3.68317839 </i>
    <i name="e_wo_entrp">     -3.68317839 </i>
    <i name="e_0_energy">     -3.68317839 </i>
   </energy>
  </scstep>
  <scstep>
   <time name="dav">   24.58   24.58</time>
   <time name="total">   24.70   24.70</time>
   <energy>
    <i name="e_fr_energy">     -3.68317839 </i>
    <i name="e_wo_entrp">     -3.68317839 </i>
    <i name="e_0_energy">     -3.68317839 </i>
   </energy>
  </scstep>
  <scstep>
   <time name="dav">   24.22   24.22</time>
   <time name="total">   24.44   24.44</time>
   <energy>
    <i name="e_fr_energy">     -3.68317838 </i>
    <i name="e_wo_entrp">     -3.68317838 </i>
    <i name="e_0_energy">     -3.68317838 </i>
   </energy>
  </scstep>
  <scstep>
   <time name="diag">    0.80    0.80</time>
   <time name="diis">    0.47    0.47</time>
   <time name="orth">    0.10    0.10</time>
   <time name="total">    1.75    1.75</time>
   <energy>
    <i name="e_fr_energy">     -3.75083544 </i>
    <i name="e_wo_entrp">     -3.75083544 </i>
    <i name="e_0_energy">     -3.75083544 </i>
   </energy>
  </scstep>
  <scstep>
   <time name="diag">    0.79    0.79</time>
   <time name="diis">    0.55    0.55</time>
   <time name="orth">    0.10    0.10</time>
   <time name="total">    1.82    1.82</time>
   <energy>
    <i name="e_fr_energy">     -3.74222057 </i>
    <i name="e_wo_entrp">     -3.74222057 </i>
    <i name="e_0_energy">     -3.74222057 </i>
   </energy>
  </scstep>
  <scstep>
   <time name="diag">    0.79    0.79</time>
   <time name="diis">    0.56    0.56</time>
   <time name="orth">    0.10    0.10</time>
   <time name="total">    1.84    1.84</time>
   <energy>
    <i name="e_fr_energy">     -3.74201986 </i>
    <i name="e_wo_entrp">     -3.74201986 </i>
    <i name="e_0_energy">     -3.74201986 </i>
   </energy>
  </scstep>
  <scstep>
   <time name="diag">    0.79    0.79</time>
   <time name="diis">    0.67    0.67</time>
   <time name="orth">    0.10    0.10</time>
   <time name="total">    1.86    1.86</time>
   <energy>
    <i name="alphaZ">     -0.20254611 </i>
    <i name="ewald">    -73.39295237 </i>
    <i name="hartreedc">     -0.10347263 </i>
    <i name="XCdc">    -26.14090977 </i>
    <i name="pawpsdc">    145.18549395 </i>
    <i name="pawaedc">   -113.24052770 </i>
    <i name="eentropy">      0.00000000 </i>
    <i name="bandstr">     10.61445176 </i>
    <i name="atom">     53.53845706 </i>
    <i name="e_fr_energy">     -3.74200581 </i>
    <i name="e_wo_entrp">     -3.74200581 </i>
    <i name="e_0_energy">     -3.74200581 </i>
   </energy>
  </scstep>
  <structure>
   <crystal>
    <varray name="basis" >
     <v>       0.00000000       2.02400000       2.02400000 </v>
     <v>       2.02400000       0.00000000       2.02400000 </v>
     <v>       2.02400000       2.02400000       0.00000000 </v>
    </varray>
    <i name="volume">     16.58293965 </i>
    <varray name="rec_basis" >
     <v>      -0.24703557       0.24703557       0.24703557 </v>
     <v>       0.24703557      -0.24703557       0.24703557 </v>
     <v>       0.24703557       0.24703557      -0.24703557 </v>
    </varray>
   </crystal>
   <varray name="positions" >
    <v>       0.00000000       0.00000000       0.00000000 </v>
   </varray>
  </structure>
  <varray name="forces" >
   <v>      -0.00000000       0.00000000       0.00000000 </v>
  </varray>
  <varray name="stress" >
   <v>      -9.05941412      -0.00000000       0.00000000 </v>
   <v>      -0.00000000      -9.05941412       0.00000000 </v>
   <v>      -0.00000000      -0.00000000      -9.05941412 </v>
  </varray>
  <energy>
   <i name="e_fr_energy">     -3.74200581 </i>
   <i name="e_wo_entrp">     -3.74200581 </i>
   <i name="e_0_energy">     -3.74200581 </i>
  </energy>
  <time name="totalsc">  117.36  117.37</time>
  <eigenvalues>
   <array>
    <dimension dim="1">band</dimension>
    <dimension dim="2">kpoint</dimension>
    <dimension dim="3">spin</dimension>
    <field>eigene</field>
    <field>occ</field>
    <set>
     <set comment="spin 1">
      <set comment="kpoint 1">
       <r>   -3.1518    1.0000 </r>
       <r>   20.5397    0.0000 </r>
       <r>   20.5397    0.0000 </r>
       <r>   20.5397    0.0000 </r>
       <r>   21.9945    0.0000 </r>
       <r>   21.9945    0.0000 </r>
       <r>   21.9945    0.0000 </r>
       <r>   24.3766    0.0000 </r>
       <r>   27.3144    0.0000 </r>
       <r>   27.3144    0.0000 </r>
       <r>   30.1609    0.0000 </r>
       <r>   32.5108    0.0000 </r>
       <r>   32.5108    0.0000 </r>
       <r>   32.5108    0.0000 </r>
       <r>   41.0617    0.0000 </r>
       <r>   56.0177    0.0000 </r>
       <r>   56.0177    0.0000 </r>
       <r>   56.0177    0.0000 </r>
       <r>   56.0537    0.0000 </r>
       <r>   59.2134    0.0000 </r>
       <r>   59.2134    0.0000 </r>
       <r>   59.2134    0.0000 </r>
       <r>   62.8333    0.0000 </r>
       <r>   62.8333    0.0000 </r>
       <r>   65.0769    0.0000 </r>
       <r>   65.0769    0.0000 </r>
       <r>   65.0769    0.0000 </r>
       <r>   73.1775    0.0000 </r>
       <r>   73.1775    0.0000 </r>
       <r>   73.1775    0.0000 </r>
       <r>   80.8188    0.0000 </r>
       <r>   83.0778    0.0000 </r>
       <r>   83.0778    0.0000 </r>
       <r>   87.2057    0.0000 </r>
       <r>   87.2057    0.0000 </r>
       <r>   87.2057    0.0000 </r>
       <r>   90.0885    0.0000 </r>
       <r>   90.0885    0.0000 </r>
       <r>   90.0885    0.0000 </r>
       <r>   90.8966    0.0000 </r>
       <r>   93.4600    0.0000 </r>
       <r>   93.4600    0.0000 </r>
       <r>   93.4600    0.0000 </r>
       <r>   93.9349    0.0000 </r>
       <r>   93.9349    0.0000 </r>
       <r>   93.9349    0.0000 </r>
       <r>   96.3737    0.0000 </r>
       <r>   96.3737    0.0000 </r>
      </set>
      <set comment="kpoint 2">
       <r>   -3.0314    1.0000 </r>
       <r>   18.5869    0.0000 </r>
       <r>   20.1209    0.0000 </r>
       <r>   20.1209    0.0000 </r>
       <r>   22.5994    0.0000 </r>
       <r>   22.5994    0.0000 </r>
       <r>   22.6330    0.0000 </r>
       <r>   25.6062    0.0000 </r>
       <r>   26.6436    0.0000 </r>
       <r>   26.6436    0.0000 </r>
       <r>   29.7248    0.0000 </r>
       <r>   33.1209    0.0000 </r>
       <r>   33.4242    0.0000 </r>
       <r>   33.4242    0.0000 </r>
       <r>   41.5444    0.0000 </r>
       <r>   55.5523    0.0000 </r>
       <r>   55.8724    0.0000 </r>
       <r>   55.8724    0.0000 </r>
       <r>   56.2993    0.0000 </r>
       <r>   57.9556    0.0000 </r>
       <r>   57.9556    0.0000 </r>
       <r>   59.2196    0.0000 </r>
       <r>   61.7411    0.0000 </r>
       <r>   61.7411    0.0000 </r>
       <r>   65.1849    0.0000 </r>
       <r>   67.6664    0.0000 </r>
       <r>   67.6664    0.0000 </r>
       <r>   72.1893    0.0000 </r>
       <r>   73.0663    0.0000 </r>
       <r>   73.0663    0.0000 </r>
       <r>   81.9345    0.0000 </r>
       <r>   82.4271    0.0000 </r>
       <r>   82.4271    0.0000 </r>
       <r>   84.8255    0.0000 </r>
       <r>   86.3315    0.0000 </r>
       <r>   86.3315    0.0000 </r>
       <r>   88.8244    0.0000 </r>
       <r>   88.8244    0.0000 </r>
       <r>   90.2057    0.0000 </r>
       <r>   90.2450    0.0000 </r>
       <r>   91.8626    0.0000 </r>
       <r>   91.8626    0.0000 </r>
       <r>   92.4048    0.0000 </r>
       <r>   95.2663    0.0000 </r>
       <r>   95.2663    0.0000 </r>
       <r>   96.1387    0.0000 </r>
       <r>   96.1387    0.0000 </r>
       <r>   96.9701    0.0000 </r>
      </set>
      <set comment="kpoint 3">
       <r>   -2.6708    1.0000 </r>
       <r>   15.9033    0.0000 </r>
       <r>   19.5172    0.0000 </r>
       <r>   19.5172    0.0000 </r>
       <r>   22.5911    0.0000 </r>
       <r>   23.6678    0.0000 </r>
       <r>   23.6678    0.0000 </r>
       <r>   25.4305    0.0000 </r>
       <r>   25.4305    0.0000 </r>
       <r>   28.1055    0.0000 </r>
       <r>   28.7453    0.0000 </r>
       <r>   34.7334    0.0000 </r>
       <r>   35.4506    0.0000 </r>
       <r>   35.4506    0.0000 </r>
       <r>   42.8435    0.0000 </r>
       <r>   54.0907    0.0000 </r>
       <r>   54.0907    0.0000 </r>
       <r>   54.7114    0.0000 </r>
       <r>   56.4501    0.0000 </r>
       <r>   56.5409    0.0000 </r>
       <r>   56.5409    0.0000 </r>
       <r>   59.1181    0.0000 </r>
       <r>   61.5583    0.0000 </r>
       <r>   61.5583    0.0000 </r>
       <r>   65.5063    0.0000 </r>
       <r>   70.2919    0.0000 </r>
       <r>   70.8509    0.0000 </r>
       <r>   70.8509    0.0000 </r>
       <r>   72.9252    0.0000 </r>
       <r>   72.9252    0.0000 </r>
       <r>   80.4349    0.0000 </r>
       <r>   80.4349    0.0000 </r>
       <r>   80.8976    0.0000 </r>
       <r>   84.5882    0.0000 </r>
       <r>   84.5882    0.0000 </r>
       <r>   85.1608    0.0000 </r>
       <r>   86.8894    0.0000 </r>
       <r>   86.8894    0.0000 </r>
       <r>   86.9899    0.0000 </r>
       <r>   89.7488    0.0000 </r>
       <r>   90.3226    0.0000 </r>
       <r>   90.5597    0.0000 </r>
       <r>   90.5597    0.0000 </r>
       <r>   93.9871    0.0000 </r>
       <r>   96.6115    0.0000 </r>
       <r>   96.6115    0.0000 </r>
       <r>   98.4472    0.0000 </r>
       <r>   98.4472    0.0000 </r>
      </set>
      <set comment="kpoint 4">
       <r>   -2.0717    1.0000 </r>
       <r>   13.2660    0.0000 </r>
       <r>   19.0501    0.0000 </r>
       <r>   19.0501    0.0000 </r>
       <r>   22.3794    0.0000 </r>
       <r>   23.5411    0.0000 </r>
       <r>   23.5411    0.0000 </r>
       <r>   25.6257    0.0000 </r>
       <r>   25.6257    0.0000 </r>
       <r>   27.5612    0.0000 </r>
       <r>   30.6648    0.0000 </r>
       <r>   37.1669    0.0000 </r>
       <r>   37.9437    0.0000 </r>
       <r>   37.9437    0.0000 </r>
       <r>   44.6863    0.0000 </r>
       <r>   50.7974    0.0000 </r>
       <r>   50.7974    0.0000 </r>
       <r>   53.5191    0.0000 </r>
       <r>   56.3852    0.0000 </r>
       <r>   56.3852    0.0000 </r>
       <r>   56.5917    0.0000 </r>
       <r>   58.7260    0.0000 </r>
       <r>   61.8065    0.0000 </r>
       <r>   61.8065    0.0000 </r>
       <r>   66.0302    0.0000 </r>
       <r>   68.3838    0.0000 </r>
       <r>   70.6583    0.0000 </r>
       <r>   70.6584    0.0000 </r>
       <r>   74.3488    0.0000 </r>
       <r>   74.3488    0.0000 </r>
       <r>   78.1649    0.0000 </r>
       <r>   78.7283    0.0000 </r>
       <r>   78.7283    0.0000 </r>
       <r>   82.1364    0.0000 </r>
       <r>   82.1364    0.0000 </r>
       <r>   84.0477    0.0000 </r>
       <r>   84.1183    0.0000 </r>
       <r>   86.6741    0.0000 </r>
       <r>   86.6741    0.0000 </r>
       <r>   88.1567    0.0000 </r>
       <r>   89.3955    0.0000 </r>
       <r>   89.8724    0.0000 </r>
       <r>   89.8724    0.0000 </r>
       <r>   93.7514    0.0000 </r>
       <r>   97.3349    0.0000 </r>
       <r>   97.3349    0.0000 </r>
       <r>  100.0191    0.0000 </r>
       <r>  100.0191    0.0000 </r>
      </set>
      <set comment="kpoint 5">
       <r>   -1.2373    1.0000 </r>
       <r>   10.7678    0.0000 </r>
       <r>   18.7673    0.0000 </r>
       <r>   18.7673    0.0000 </r>
       <r>   22.2313    0.0000 </r>
       <r>   22.3629    0.0000 </r>
       <r>   22.3629    0.0000 </r>
       <r>   26.3535    0.0000 </r>
       <r>   27.2015    0.0000 </r>
       <r>   27.2015    0.0000 </r>
       <r>   33.0979    0.0000 </r>
       <r>   40.2180    0.0000 </r>
       <r>   40.6132    0.0000 </r>
       <r>   40.6132    0.0000 </r>
       <r>   46.8312    0.0000 </r>
       <r>   47.6269    0.0000 </r>
       <r>   47.6269    0.0000 </r>
       <r>   52.0464    0.0000 </r>
       <r>   56.3550    0.0000 </r>
       <r>   56.3550    0.0000 </r>
       <r>   56.7616    0.0000 </r>
       <r>   58.0053    0.0000 </r>
       <r>   62.1433    0.0000 </r>
       <r>   62.1433    0.0000 </r>
       <r>   66.5056    0.0000 </r>
       <r>   66.7346    0.0000 </r>
       <r>   68.1187    0.0000 </r>
       <r>   68.1187    0.0000 </r>
       <r>   74.4283    0.0000 </r>
       <r>   74.4283    0.0000 </r>
       <r>   75.9805    0.0000 </r>
       <r>   78.7612    0.0000 </r>
       <r>   79.1487    0.0000 </r>
       <r>   79.1487    0.0000 </r>
       <r>   80.0401    0.0000 </r>
       <r>   80.0401    0.0000 </r>
       <r>   81.4061    0.0000 </r>
       <r>   87.9693    0.0000 </r>
       <r>   87.9693    0.0000 </r>
       <r>   88.7614    0.0000 </r>
       <r>   89.5101    0.0000 </r>
       <r>   89.5100    0.0000 </r>
       <r>   90.9836    0.0000 </r>
       <r>   93.0457    0.0000 </r>
       <r>   97.4724    0.0000 </r>
       <r>   97.4724    0.0000 </r>
       <r>  101.4709    0.0000 </r>
       <r>  102.2507    0.0000 </r>
      </set>
      <set comment="kpoint 6">
       <r>   -0.1714    1.0000 </r>
       <r>    8.4419    0.2149 </r>
       <r>   18.6807    0.0000 </r>
       <r>   18.6807    0.0000 </r>
       <r>   21.2683    0.0000 </r>
       <r>   21.2683    0.0000 </r>
       <r>   22.2333    0.0000 </r>
       <r>   25.2266    0.0000 </r>
       <r>   29.0266    0.0000 </r>
       <r>   29.0266    0.0000 </r>
       <r>   35.4265    0.0000 </r>
       <r>   42.3830    0.0000 </r>
       <r>   42.3830    0.0000 </r>
       <r>   43.5623    0.0000 </r>
       <r>   45.8094    0.0000 </r>
       <r>   45.8094    0.0000 </r>
       <r>   48.5020    0.0000 </r>
       <r>   51.1132    0.0000 </r>
       <r>   56.3226    0.0000 </r>
       <r>   56.3226    0.0000 </r>
       <r>   56.9600    0.0000 </r>
       <r>   56.9755    0.0000 </r>
       <r>   62.0504    0.0000 </r>
       <r>   62.0504    0.0000 </r>
       <r>   64.5806    0.0000 </r>
       <r>   65.1570    0.0000 </r>
       <r>   65.1570    0.0000 </r>
       <r>   67.5708    0.0000 </r>
       <r>   71.9553    0.0000 </r>
       <r>   73.9804    0.0000 </r>
       <r>   73.9804    0.0000 </r>
       <r>   76.6544    0.0000 </r>
       <r>   77.6891    0.0000 </r>
       <r>   77.6891    0.0000 </r>
       <r>   79.1170    0.0000 </r>
       <r>   80.3081    0.0000 </r>
       <r>   80.3081    0.0000 </r>
       <r>   88.5829    0.0000 </r>
       <r>   89.2337    0.0000 </r>
       <r>   89.2337    0.0000 </r>
       <r>   90.6446    0.0000 </r>
       <r>   90.6446    0.0000 </r>
       <r>   90.9461    0.0000 </r>
       <r>   93.8717    0.0000 </r>
       <r>   98.2835    0.0000 </r>
       <r>   98.2835    0.0000 </r>
       <r>  101.8237    0.0000 </r>
       <r>  103.8620    0.0000 </r>
      </set>
      <set comment="kpoint 7">
       <r>    1.1207    1.0000 </r>
       <r>    6.3054    1.0335 </r>
       <r>   18.7942    0.0000 </r>
       <r>   18.7942    0.0000 </r>
       <r>   20.3520    0.0000 </r>
       <r>   20.3520    0.0000 </r>
       <r>   22.4248    0.0000 </r>
       <r>   24.2421    0.0000 </r>
       <r>   30.9080    0.0000 </r>
       <r>   30.9080    0.0000 </r>
       <r>   37.5983    0.0000 </r>
       <r>   40.7812    0.0000 </r>
       <r>   40.7812    0.0000 </r>
       <r>   46.3385    0.0000 </r>
       <r>   47.8929    0.0000 </r>
       <r>   47.8929    0.0000 </r>
       <r>   47.9995    0.0000 </r>
       <r>   53.1359    0.0000 </r>
       <r>   55.6098    0.0000 </r>
       <r>   56.1585    0.0000 </r>
       <r>   56.1585    0.0000 </r>
       <r>   57.2113    0.0000 </r>
       <r>   59.8965    0.0000 </r>
       <r>   59.8965    0.0000 </r>
       <r>   62.8610    0.0000 </r>
       <r>   64.1720    0.0000 </r>
       <r>   64.1720    0.0000 </r>
       <r>   67.0069    0.0000 </r>
       <r>   68.4233    0.0000 </r>
       <r>   73.7046    0.0000 </r>
       <r>   73.7046    0.0000 </r>
       <r>   76.2465    0.0000 </r>
       <r>   76.2465    0.0000 </r>
       <r>   76.6404    0.0000 </r>
       <r>   77.2957    0.0000 </r>
       <r>   80.5132    0.0000 </r>
       <r>   80.5132    0.0000 </r>
       <r>   88.5295    0.0000 </r>
       <r>   89.0040    0.0000 </r>
       <r>   89.0040    0.0000 </r>
       <r>   89.8971    0.0000 </r>
       <r>   93.5213    0.0000 </r>
       <r>   93.5213    0.0000 </r>
       <r>   94.3431    0.0000 </r>
       <r>   99.9948    0.0000 </r>
       <r>   99.9950    0.0000 </r>
       <r>  103.4068    0.0000 </r>
       <r>  104.1572    0.0000 </r>
      </set>
      <set comment="kpoint 8">
       <r>    2.6310    1.0000 </r>
       <r>    4.3719    1.0000 </r>
       <r>   19.1083    0.0000 </r>
       <r>   19.1083    0.0000 </r>
       <r>   19.6336    0.0000 </r>
       <r>   19.6336    0.0000 </r>
       <r>   22.8196    0.0000 </r>
       <r>   23.4393    0.0000 </r>
       <r>   32.4146    0.0000 </r>
       <r>   32.4146    0.0000 </r>
       <r>   38.9880    0.0000 </r>
       <r>   38.9880    0.0000 </r>
       <r>   39.2194    0.0000 </r>
       <r>   45.6347    0.0000 </r>
       <r>   50.0130    0.0000 </r>
       <r>   50.8024    0.0000 </r>
       <r>   50.8024    0.0000 </r>
       <r>   53.9245    0.0000 </r>
       <r>   55.1861    0.0000 </r>
       <r>   55.1861    0.0000 </r>
       <r>   55.8219    0.0000 </r>
       <r>   57.7307    0.0000 </r>
       <r>   57.7307    0.0000 </r>
       <r>   57.8631    0.0000 </r>
       <r>   61.3444    0.0000 </r>
       <r>   63.1427    0.0000 </r>
[...]
        <r>  0.0626  0.0184  0.0000  0.1567  0.0000  0.0000  0.0000  0.0000  0.0000 </r>
       </set>
       <set comment="band 3">
        <r>  0.0397  0.0860  0.0117  0.0462  0.0000  0.0000  0.0000  0.0000  0.0000 </r>
       </set>
       <set comment="band 4">
        <r>  0.2770  0.0031  0.0913  0.0140  0.0000  0.0000  0.0000  0.0000  0.0000 </r>
       </set>
       <set comment="band 5">
        <r>  0.0075  0.1111  0.0083  0.0706  0.0000  0.0000  0.0000  0.0000  0.0000 </r>
       </set>
       <set comment="band 6">
        <r>  0.0244  0.0855  0.0424  0.0095  0.0000  0.0000  0.0000  0.0000  0.0000 </r>
       </set>
       <set comment="band 7">
        <r>  0.0389  0.1419  0.0019  0.0264  0.0000  0.0000  0.0000  0.0000  0.0000 </r>
       </set>
       <set comment="band 8">
        <r>  0.0423  0.0379  0.0584  0.0052  0.0000  0.0000  0.0000  0.0000  0.0000 </r>
       </set>
       <set comment="band 9">
        <r>  0.0036  0.0001  0.0092  0.0393  0.0000  0.0000  0.0000  0.0000  0.0000 </r>
       </set>
       <set comment="band 10">
        <r>  0.0005  0.0022  0.0123  0.0055  0.0000  0.0000  0.0000  0.0000  0.0000 </r>
       </set>
       <set comment="band 11">
        <r>  0.0661  0.0022  0.0602  0.0019  0.0000  0.0000  0.0000  0.0000  0.0000 </r>
       </set>
       <set comment="band 12">
        <r>  0.0418  0.0013  0.0002  0.0197  0.0000  0.0000  0.0000  0.0000  0.0000 </r>
       </set>
       <set comment="band 13">
        <r>  0.0004  0.0008  0.0491  0.1151  0.0000  0.0000  0.0000  0.0000  0.0000 </r>
       </set>
       <set comment="band 14">
        <r>  0.0020  0.0030  0.0060  0.0393  0.0000  0.0000  0.0000  0.0000  0.0000 </r>
       </set>
       <set comment="band 15">
        <r>  0.1170  0.0001  0.0954  0.0271  0.0000  0.0000  0.0000  0.0000  0.0000 </r>
       </set>
       <set comment="band 16">
        <r>  0.0055  0.0110  0.0169  0.0376  0.0000  0.0000  0.0000  0.0000  0.0000 </r>
       </set>
       <set comment="band 17">
        <r>  0.1439  0.1390  0.4218  0.0218  0.0000  0.0000  0.0000  0.0000  0.0000 </r>
       </set>
       <set comment="band 18">
        <r>  0.3492  0.0025  0.1215  0.3955  0.0000  0.0000  0.0000  0.0000  0.0000 </r>
       </set>
       <set comment="band 19">
        <r>  0.0243  2.4482  0.1656  0.0492  0.0000  0.0000  0.0000  0.0000  0.0000 </r>
       </set>
       <set comment="band 20">
        <r>  8.3170  0.0039  0.1335  0.0022  0.0000  0.0000  0.0000  0.0000  0.0000 </r>
       </set>
       <set comment="band 21">
        <r>  0.1941  0.2748  0.0250  1.4270  0.0000  0.0000  0.0000  0.0000  0.0000 </r>
       </set>
       <set comment="band 22">
        <r>  0.6674  0.0138  0.3865  0.1444  0.0000  0.0000  0.0000  0.0000  0.0000 </r>
       </set>
       <set comment="band 23">
        <r>  0.0064  0.2621  1.8325  0.0340  0.0000  0.0000  0.0000  0.0000  0.0000 </r>
       </set>
       <set comment="band 24">
        <r>  0.1627  0.0024  0.6261  2.2179  0.0000  0.0000  0.0000  0.0000  0.0000 </r>
       </set>
       <set comment="band 25">
        <r>  0.0317  0.1390  0.7311  0.1082  0.0000  0.0000  0.0000  0.0000  0.0000 </r>
       </set>
       <set comment="band 26">
        <r>  0.0490  0.1832  0.2778  0.3259  0.0000  0.0000  0.0000  0.0000  0.0000 </r>
       </set>
       <set comment="band 27">
        <r>  0.0027  0.0361  0.0113  0.0308  0.0000  0.0000  0.0000  0.0000  0.0000 </r>
       </set>
       <set comment="band 28">
        <r>  0.0363  0.8379  0.0760  0.0341  0.0000  0.0000  0.0000  0.0000  0.0000 </r>
       </set>
       <set comment="band 29">
        <r>  0.0374  0.1446  0.0935  0.1596  0.0000  0.0000  0.0000  0.0000  0.0000 </r>
       </set>
       <set comment="band 30">
        <r>  0.1692  0.7424  0.0624  0.0029  0.0000  0.0000  0.0000  0.0000  0.0000 </r>
       </set>
       <set comment="band 31">
        <r>  0.0869  0.1038  0.0017  0.1944  0.0000  0.0000  0.0000  0.0000  0.0000 </r>
       </set>
       <set comment="band 32">
        <r>  0.0114  0.0097  0.3802  0.0003  0.0000  0.0000  0.0000  0.0000  0.0000 </r>
       </set>
       <set comment="band 33">
        <r>  0.2719  0.0275  0.0213  0.1136  0.0000  0.0000  0.0000  0.0000  0.0000 </r>
       </set>
       <set comment="band 34">
        <r>  0.5854  0.0014  0.0231  0.0019  0.0000  0.0000  0.0000  0.0000  0.0000 </r>
       </set>
       <set comment="band 35">
        <r>  0.0276  0.0430  0.0005  0.0202  0.0000  0.0000  0.0000  0.0000  0.0000 </r>
       </set>
       <set comment="band 36">
        <r>  0.0309  0.0304  0.0517  0.0190  0.0000  0.0000  0.0000  0.0000  0.0000 </r>
       </set>
       <set comment="band 37">
        <r>  0.0458  0.0000  0.0006  0.1870  0.0000  0.0000  0.0000  0.0000  0.0000 </r>
       </set>
       <set comment="band 38">
        <r>  0.0373  0.0579  0.1223  0.0268  0.0000  0.0000  0.0000  0.0000  0.0000 </r>
       </set>
       <set comment="band 39">
        <r>  0.0142  0.0031  0.0131  0.0026  0.0000  0.0000  0.0000  0.0000  0.0000 </r>
       </set>
       <set comment="band 40">
        <r>  0.0005  0.0294  0.0126  0.0038  0.0000  0.0000  0.0000  0.0000  0.0000 </r>
       </set>
       <set comment="band 41">
        <r>  0.0159  0.0042  0.0164  0.0313  0.0000  0.0000  0.0000  0.0000  0.0000 </r>
       </set>
       <set comment="band 42">
        <r>  0.0003  0.0002  0.0193  0.0507  0.0000  0.0000  0.0000  0.0000  0.0000 </r>
       </set>
       <set comment="band 43">
        <r>  0.0385  0.0010  0.0012  0.0257  0.0000  0.0000  0.0000  0.0000  0.0000 </r>
       </set>
       <set comment="band 44">
        <r>  0.0036  0.1080  0.0000  0.0146  0.0000  0.0000  0.0000  0.0000  0.0000 </r>
       </set>
       <set comment="band 45">
        <r>  0.0196  0.0398  0.0044  0.0158  0.0000  0.0000  0.0000  0.0000  0.0000 </r>
       </set>
       <set comment="band 46">
        <r>  0.0114  0.0657  0.0450  0.0011  0.0000  0.0000  0.0000  0.0000  0.0000 </r>
       </set>
       <set comment="band 47">
        <r>  0.0363  0.0420  0.0261  0.0000  0.0000  0.0000  0.0000  0.0000  0.0000 </r>
       </set>
       <set comment="band 48">
        <r>  0.0095  0.0030  0.0121  0.0567  0.0000  0.0000  0.0000  0.0000  0.0000 </r>
       </set>
      </set>
      <set comment="kpoint 119">
       <set comment="band 1">
        <r>  0.0604  0.0145  0.1647  0.0000  0.0000  0.0000  0.0000  0.0000  0.0000 </r>
       </set>
       <set comment="band 2">
        <r>  0.0000  0.0000  0.0000  0.2116  0.0000  0.0000  0.0000  0.0000  0.0000 </r>
       </set>
       <set comment="band 3">
        <r>  0.0693  0.0689  0.0574  0.0000  0.0000  0.0000  0.0000  0.0000  0.0000 </r>
       </set>
       <set comment="band 4">
        <r>  0.3364  0.0589  0.0079  0.0000  0.0000  0.0000  0.0000  0.0000  0.0000 </r>
       </set>
       <set comment="band 5">
        <r>  0.0000  0.0000  0.0000  0.1205  0.0000  0.0000  0.0000  0.0000  0.0000 </r>
       </set>
       <set comment="band 6">
        <r>  0.0630  0.2697  0.0029  0.0000  0.0000  0.0000  0.0000  0.0000  0.0000 </r>
       </set>
       <set comment="band 7">
        <r>  0.0230  0.0192  0.0606  0.0000  0.0000  0.0000  0.0000  0.0000  0.0000 </r>
       </set>
       <set comment="band 8">
        <r>  0.0401  0.0784  0.0284  0.0000  0.0000  0.0000  0.0000  0.0000  0.0000 </r>
       </set>
       <set comment="band 9">
        <r>  0.0000  0.0000  0.0000  0.0131  0.0000  0.0000  0.0000  0.0000  0.0000 </r>
       </set>
       <set comment="band 10">
        <r>  0.0023  0.0001  0.0033  0.0000  0.0000  0.0000  0.0000  0.0000  0.0000 </r>
       </set>
       <set comment="band 11">
        <r>  0.0583  0.0091  0.1225  0.0000  0.0000  0.0000  0.0000  0.0000  0.0000 </r>
       </set>
       <set comment="band 12">
        <r>  0.0000  0.0000  0.0000  0.1084  0.0000  0.0000  0.0000  0.0000  0.0000 </r>
       </set>
       <set comment="band 13">
        <r>  0.0000  0.0000  0.0000  0.1436  0.0000  0.0000  0.0000  0.0000  0.0000 </r>
       </set>
       <set comment="band 14">
        <r>  0.0173  0.0044  0.0274  0.0000  0.0000  0.0000  0.0000  0.0000  0.0000 </r>
       </set>
       <set comment="band 15">
        <r>  0.1375  0.0089  0.0364  0.0000  0.0000  0.0000  0.0000  0.0000  0.0000 </r>
       </set>
       <set comment="band 16">
        <r>  0.0000  0.0000  0.0000  0.0162  0.0000  0.0000  0.0000  0.0000  0.0000 </r>
       </set>
       <set comment="band 17">
        <r>  0.0862  0.0278  0.6592  0.0000  0.0000  0.0000  0.0000  0.0000  0.0000 </r>
       </set>
       <set comment="band 18">
        <r>  0.0000  0.0000  0.0000  0.4348  0.0000  0.0000  0.0000  0.0000  0.0000 </r>
       </set>
       <set comment="band 19">
        <r>  2.9452  1.6591  0.0783  0.0000  0.0000  0.0000  0.0000  0.0000  0.0000 </r>
       </set>
       <set comment="band 20">
        <r>  3.7681  0.6770  0.0106  0.0000  0.0000  0.0000  0.0000  0.0000  0.0000 </r>
       </set>
       <set comment="band 21">
        <r>  0.0000  0.0000  0.0000  2.0646  0.0000  0.0000  0.0000  0.0000  0.0000 </r>
       </set>
       <set comment="band 22">
        <r>  2.8826  0.5561  0.0503  0.0000  0.0000  0.0000  0.0000  0.0000  0.0000 </r>
       </set>
       <set comment="band 23">
        <r>  0.0004  0.0736  3.4972  0.0000  0.0000  0.0000  0.0000  0.0000  0.0000 </r>
       </set>
       <set comment="band 24">
        <r>  0.0000  0.0000  0.0000  1.3196  0.0000  0.0000  0.0000  0.0000  0.0000 </r>
       </set>
       <set comment="band 25">
        <r>  0.0746  0.0239  0.2498  0.0000  0.0000  0.0000  0.0000  0.0000  0.0000 </r>
       </set>
       <set comment="band 26">
        <r>  0.2126  1.0769  0.1382  0.0000  0.0000  0.0000  0.0000  0.0000  0.0000 </r>
       </set>
       <set comment="band 27">
        <r>  0.0000  0.0000  0.0000  0.5771  0.0000  0.0000  0.0000  0.0000  0.0000 </r>
       </set>
       <set comment="band 28">
        <r>  0.0000  0.0000  0.0000  0.6897  0.0000  0.0000  0.0000  0.0000  0.0000 </r>
       </set>
       <set comment="band 29">
        <r>  0.2200  0.3903  0.4623  0.0000  0.0000  0.0000  0.0000  0.0000  0.0000 </r>
       </set>
       <set comment="band 30">
        <r>  0.0104  0.7834  0.0992  0.0000  0.0000  0.0000  0.0000  0.0000  0.0000 </r>
       </set>
       <set comment="band 31">
        <r>  0.0000  0.0000  0.0000  0.0911  0.0000  0.0000  0.0000  0.0000  0.0000 </r>
       </set>
       <set comment="band 32">
        <r>  0.3480  0.0000  0.1886  0.0000  0.0000  0.0000  0.0000  0.0000  0.0000 </r>
       </set>
       <set comment="band 33">
        <r>  0.3155  0.1184  0.0049  0.0000  0.0000  0.0000  0.0000  0.0000  0.0000 </r>
       </set>
       <set comment="band 34">
        <r>  0.2305  0.0021  0.0602  0.0000  0.0000  0.0000  0.0000  0.0000  0.0000 </r>
       </set>
       <set comment="band 35">
        <r>  0.0000  0.0000  0.0000  0.0207  0.0000  0.0000  0.0000  0.0000  0.0000 </r>
       </set>
       <set comment="band 36">
        <r>  0.1647  0.0702  0.0841  0.0000  0.0000  0.0000  0.0000  0.0000  0.0000 </r>
       </set>
       <set comment="band 37">
        <r>  0.0000  0.0000  0.0000  0.4237  0.0000  0.0000  0.0000  0.0000  0.0000 </r>
       </set>
       <set comment="band 38">
        <r>  0.0036  0.0219  0.0552  0.0000  0.0000  0.0000  0.0000  0.0000  0.0000 </r>
       </set>
       <set comment="band 39">
        <r>  0.0000  0.0000  0.0000  0.0004  0.0000  0.0000  0.0000  0.0000  0.0000 </r>
       </set>
       <set comment="band 40">
        <r>  0.0025  0.0370  0.0059  0.0000  0.0000  0.0000  0.0000  0.0000  0.0000 </r>
       </set>
       <set comment="band 41">
        <r>  0.0000  0.0000  0.0000  0.0120  0.0000  0.0000  0.0000  0.0000  0.0000 </r>
       </set>
       <set comment="band 42">
        <r>  0.0639  0.0267  0.0704  0.0000  0.0000  0.0000  0.0000  0.0000  0.0000 </r>
       </set>
       <set comment="band 43">
        <r>  0.0006  0.0724  0.0582  0.0000  0.0000  0.0000  0.0000  0.0000  0.0000 </r>
       </set>
       <set comment="band 44">
        <r>  0.0000  0.0000  0.0000  0.0479  0.0000  0.0000  0.0000  0.0000  0.0000 </r>
       </set>
       <set comment="band 45">
        <r>  0.0635  0.1135  0.0015  0.0000  0.0000  0.0000  0.0000  0.0000  0.0000 </r>
       </set>
       <set comment="band 46">
        <r>  0.0000  0.0000  0.0000  0.0000  0.0000  0.0000  0.0000  0.0000  0.0000 </r>
       </set>
       <set comment="band 47">
        <r>  0.0567  0.0016  0.0224  0.0000  0.0000  0.0000  0.0000  0.0000  0.0000 </r>
       </set>
       <set comment="band 48">
        <r>  0.0766  0.0018  0.0186  0.0000  0.0000  0.0000  0.0000  0.0000  0.0000 </r>
       </set>
      </set>
      <set comment="kpoint 120">
       <set comment="band 1">
        <r>  0.0360  0.0298  0.0000  0.1560  0.0000  0.0000  0.0000  0.0000  0.0000 </r>
       </set>
       <set comment="band 2">
        <r>  0.0000  0.0000  0.2238  0.0000  0.0000  0.0000  0.0000  0.0000  0.0000 </r>
       </set>
       <set comment="band 3">
        <r>  0.1450  0.0794  0.0000  0.0084  0.0000  0.0000  0.0000  0.0000  0.0000 </r>
       </set>
       <set comment="band 4">
        <r>  0.2908  0.0275  0.0000  0.0553  0.0000  0.0000  0.0000  0.0000  0.0000 </r>
       </set>
       <set comment="band 5">
        <r>  0.0152  0.0748  0.0000  0.0790  0.0000  0.0000  0.0000  0.0000  0.0000 </r>
       </set>
       <set comment="band 6">
        <r>  0.0041  0.2824  0.0000  0.0231  0.0000  0.0000  0.0000  0.0000  0.0000 </r>
       </set>
       <set comment="band 7">
        <r>  0.0000  0.0000  0.0995  0.0000  0.0000  0.0000  0.0000  0.0000  0.0000 </r>
       </set>
       <set comment="band 8">
        <r>  0.1006  0.0241  0.0000  0.0113  0.0000  0.0000  0.0000  0.0000  0.0000 </r>
       </set>
       <set comment="band 9">
        <r>  0.0000  0.0000  0.0136  0.0000  0.0000  0.0000  0.0000  0.0000  0.0000 </r>
       </set>
       <set comment="band 10">
        <r>  0.0046  0.0005  0.0000  0.0211  0.0000  0.0000  0.0000  0.0000  0.0000 </r>
       </set>
       <set comment="band 11">
        <r>  0.0604  0.0001  0.0000  0.1416  0.0000  0.0000  0.0000  0.0000  0.0000 </r>
       </set>
       <set comment="band 12">
        <r>  0.0000  0.0000  0.0024  0.0000  0.0000  0.0000  0.0000  0.0000  0.0000 </r>
       </set>
       <set comment="band 13">
        <r>  0.0000  0.0000  0.2031  0.0000  0.0000  0.0000  0.0000  0.0000  0.0000 </r>
       </set>
       <set comment="band 14">
        <r>  0.0034  0.0005  0.0000  0.0075  0.0000  0.0000  0.0000  0.0000  0.0000 </r>
       </set>
       <set comment="band 15">
        <r>  0.1591  0.0027  0.0000  0.0842  0.0000  0.0000  0.0000  0.0000  0.0000 </r>
       </set>
       <set comment="band 16">
        <r>  0.0000  0.0000  0.0088  0.0000  0.0000  0.0000  0.0000  0.0000  0.0000 </r>
       </set>
       <set comment="band 17">
        <r>  0.0000  0.0000  0.7836  0.0000  0.0000  0.0000  0.0000  0.0000  0.0000 </r>
       </set>
       <set comment="band 18">
        <r>  0.0737  0.2181  0.0000  0.7177  0.0000  0.0000  0.0000  0.0000  0.0000 </r>
       </set>
       <set comment="band 19">
        <r>  1.8598  2.0635  0.0000  0.1053  0.0000  0.0000  0.0000  0.0000  0.0000 </r>
       </set>
       <set comment="band 20">
        <r>  7.6051  0.4860  0.0000  0.1324  0.0000  0.0000  0.0000  0.0000  0.0000 </r>
       </set>
       <set comment="band 21">
        <r>  0.1143  0.1325  0.0000  2.1172  0.0000  0.0000  0.0000  0.0000  0.0000 </r>
       </set>
       <set comment="band 22">
        <r>  0.0000  0.0000  2.6313  0.0000  0.0000  0.0000  0.0000  0.0000  0.0000 </r>
       </set>
       <set comment="band 23">
        <r>  0.0763  0.1943  0.0000  0.7574  0.0000  0.0000  0.0000  0.0000  0.0000 </r>
       </set>
       <set comment="band 24">
        <r>  0.0000  0.0000  0.0762  0.0000  0.0000  0.0000  0.0000  0.0000  0.0000 </r>
       </set>
       <set comment="band 25">
        <r>  0.2053  0.2904  0.0000  0.0299  0.0000  0.0000  0.0000  0.0000  0.0000 </r>
       </set>
       <set comment="band 26">
        <r>  0.0000  0.0000  0.9973  0.0000  0.0000  0.0000  0.0000  0.0000  0.0000 </r>
       </set>
       <set comment="band 27">
        <r>  0.0000  0.0000  0.1390  0.0000  0.0000  0.0000  0.0000  0.0000  0.0000 </r>
       </set>
       <set comment="band 28">
        <r>  0.0536  0.0331  0.0000  1.0647  0.0000  0.0000  0.0000  0.0000  0.0000 </r>
       </set>
       <set comment="band 29">
        <r>  0.0657  1.5130  0.0000  0.0517  0.0000  0.0000  0.0000  0.0000  0.0000 </r>
       </set>
       <set comment="band 30">
        <r>  0.0000  0.0000  0.6728  0.0000  0.0000  0.0000  0.0000  0.0000  0.0000 </r>
       </set>
       <set comment="band 31">
        <r>  0.0183  0.4321  0.0000  0.1956  0.0000  0.0000  0.0000  0.0000  0.0000 </r>
       </set>
       <set comment="band 32">
        <r>  0.6774  0.0031  0.0000  0.0828  0.0000  0.0000  0.0000  0.0000  0.0000 </r>
       </set>
       <set comment="band 33">
        <r>  0.0411  0.0445  0.0000  0.0410  0.0000  0.0000  0.0000  0.0000  0.0000 </r>
       </set>
       <set comment="band 34">
        <r>  0.3121  0.0430  0.0000  0.0060  0.0000  0.0000  0.0000  0.0000  0.0000 </r>
       </set>
       <set comment="band 35">
        <r>  0.0000  0.0000  0.1527  0.0000  0.0000  0.0000  0.0000  0.0000  0.0000 </r>
       </set>
       <set comment="band 36">
        <r>  0.1648  0.0004  0.0000  0.0307  0.0000  0.0000  0.0000  0.0000  0.0000 </r>
       </set>
       <set comment="band 37">
        <r>  0.0220  0.0115  0.0000  0.3143  0.0000  0.0000  0.0000  0.0000  0.0000 </r>
       </set>
       <set comment="band 38">
        <r>  0.0000  0.0000  0.1449  0.0000  0.0000  0.0000  0.0000  0.0000  0.0000 </r>
       </set>
       <set comment="band 39">
        <r>  0.0007  0.0402  0.0000  0.0041  0.0000  0.0000  0.0000  0.0000  0.0000 </r>
       </set>
       <set comment="band 40">
        <r>  0.0000  0.0000  0.0884  0.0000  0.0000  0.0000  0.0000  0.0000  0.0000 </r>
       </set>
       <set comment="band 41">
        <r>  0.0065  0.0985  0.0000  0.0003  0.0000  0.0000  0.0000  0.0000  0.0000 </r>
       </set>
       <set comment="band 42">
        <r>  0.0000  0.0000  0.0144  0.0000  0.0000  0.0000  0.0000  0.0000  0.0000 </r>
       </set>
       <set comment="band 43">
        <r>  0.0000  0.0000  0.0156  0.0000  0.0000  0.0000  0.0000  0.0000  0.0000 </r>
       </set>
       <set comment="band 44">
        <r>  0.0083  0.0258  0.0000  0.0001  0.0000  0.0000  0.0000  0.0000  0.0000 </r>
       </set>
       <set comment="band 45">
        <r>  0.0229  0.0195  0.0000  0.0327  0.0000  0.0000  0.0000  0.0000  0.0000 </r>
       </set>
       <set comment="band 46">
        <r>  0.0000  0.0000  0.0174  0.0000  0.0000  0.0000  0.0000  0.0000  0.0000 </r>
       </set>
       <set comment="band 47">
        <r>  0.0683  0.1521  0.0000  0.0054  0.0000  0.0000  0.0000  0.0000  0.0000 </r>
       </set>
       <set comment="band 48">
        <r>  0.0000  0.0000  0.0409  0.0000  0.0000  0.0000  0.0000  0.0000  0.0000 </r>
       </set>
      </set>
     </set>
    </set>
   </array>
  </projected>
 </calculation>
 <structure name="finalpos" >
  <crystal>
   <varray name="basis" >
    <v>       0.00000000       2.02400000       2.02400000 </v>
    <v>       2.02400000       0.00000000       2.02400000 </v>
    <v>       2.02400000       2.02400000       0.00000000 </v>
   </varray>
   <i name="volume">     16.58293965 </i>
   <varray name="rec_basis" >
    <v>      -0.24703557       0.24703557       0.24703557 </v>
    <v>       0.24703557      -0.24703557       0.24703557 </v>
    <v>       0.24703557       0.24703557      -0.24703557 </v>
   </varray>
  </crystal>
  <varray name="positions" >
   <v>       0.00000000       0.00000000       0.00000000 </v>
  </varray>
 </structure>
</modeling>
