   1   1   1   0
  0.1658294E+02  0.2862368E-09  0.2862368E-09  0.2862368E-09  0.5000000E-15
   1.0000000000000000E-004
  CAR 
 unknown system                          
    117.34993629     -8.89122466  301      7.98480920      1.00000000
     -8.891  0.0000E+00  0.0000E+00  0.0000E+00  0.0000E+00
     -8.470  0.0000E+00  0.0000E+00  0.0000E+00  0.0000E+00
     -8.050  0.0000E+00  0.0000E+00  0.0000E+00  0.0000E+00
     -7.629  0.0000E+00  0.0000E+00  0.0000E+00  0.0000E+00
     -7.208  0.0000E+00  0.0000E+00  0.0000E+00  0.0000E+00
     -6.787  0.0000E+00  0.0000E+00  0.0000E+00  0.0000E+00
     -6.366  0.0000E+00  0.0000E+00  0.0000E+00  0.0000E+00
     -5.946  0.0000E+00  0.0000E+00  0.0000E+00  0.0000E+00
     -5.525  0.0000E+00  0.0000E+00  0.0000E+00  0.0000E+00
     -5.104  0.0000E+00  0.0000E+00  0.0000E+00  0.0000E+00
     -4.683  0.0000E+00  0.0000E+00  0.0000E+00  0.0000E+00
     -4.262  0.0000E+00  0.0000E+00  0.0000E+00  0.0000E+00
     -3.842  0.0000E+00  0.0000E+00  0.0000E+00  0.0000E+00
     -3.421  0.0000E+00  0.0000E+00  0.0000E+00  0.0000E+00
     -3.000  0.2164E-01  0.2174E-01  0.1777E-02  0.1796E-02
     -2.579  0.5573E-01  0.5576E-01  0.1580E-01  0.1584E-01
     -2.158  0.6081E-01  0.6084E-01  0.3709E-01  0.3714E-01
     -1.738  0.6889E-01  0.6892E-01  0.6380E-01  0.6387E-01
     -1.317  0.7899E-01  0.7901E-01  0.9507E-01  0.9514E-01
     -0.896  0.8845E-01  0.8847E-01  0.1303E+00  0.1304E+00
     -0.475  0.9640E-01  0.9642E-01  0.1692E+00  0.1692E+00
     -0.054  0.1042E+00  0.1042E+00  0.2115E+00  0.2116E+00
      0.366  0.1117E+00  0.1117E+00  0.2569E+00  0.2570E+00
      0.787  0.1185E+00  0.1185E+00  0.3053E+00  0.3055E+00
      1.208  0.1254E+00  0.1254E+00  0.3566E+00  0.3568E+00
      1.629  0.1318E+00  0.1318E+00  0.4108E+00  0.4109E+00
      2.050  0.1383E+00  0.1383E+00  0.4676E+00  0.4677E+00
      2.470  0.1446E+00  0.1446E+00  0.5271E+00  0.5273E+00
      2.891  0.1535E+00  0.1535E+00  0.5896E+00  0.5897E+00
      3.312  0.1679E+00  0.1678E+00  0.6582E+00  0.6583E+00
      3.733  0.1542E+00  0.1542E+00  0.7246E+00  0.7248E+00
      4.154  0.1587E+00  0.1588E+00  0.7912E+00  0.7914E+00
      4.574  0.1831E+00  0.1830E+00  0.8647E+00  0.8648E+00
      4.995  0.1968E+00  0.1968E+00  0.9431E+00  0.9433E+00
      5.416  0.1897E+00  0.1897E+00  0.1024E+01  0.1024E+01
      5.837  0.1787E+00  0.1786E+00  0.1104E+01  0.1104E+01
      6.258  0.1631E+00  0.1631E+00  0.1172E+01  0.1173E+01
      6.679  0.1960E+00  0.1962E+00  0.1245E+01  0.1245E+01
      7.099  0.2044E+00  0.2044E+00  0.1330E+01  0.1330E+01
      7.520  0.1897E+00  0.1897E+00  0.1416E+01  0.1416E+01
      7.941  0.1891E+00  0.1889E+00  0.1492E+01  0.1492E+01
      8.362  0.2164E+00  0.2165E+00  0.1581E+01  0.1581E+01
      8.783  0.2100E+00  0.2099E+00  0.1670E+01  0.1670E+01
      9.203  0.2115E+00  0.2115E+00  0.1758E+01  0.1759E+01
      9.624  0.2299E+00  0.2299E+00  0.1850E+01  0.1850E+01
     10.045  0.2207E+00  0.2207E+00  0.1944E+01  0.1944E+01
     10.466  0.2283E+00  0.2284E+00  0.2038E+01  0.2038E+01
     10.887  0.2360E+00  0.2361E+00  0.2136E+01  0.2136E+01
     11.307  0.2393E+00  0.2393E+00  0.2236E+01  0.2236E+01
     11.728  0.2432E+00  0.2432E+00  0.2338E+01  0.2338E+01
     12.149  0.2533E+00  0.2536E+00  0.2441E+01  0.2442E+01
     12.570  0.2565E+00  0.2565E+00  0.2548E+01  0.2549E+01
     12.991  0.2725E+00  0.2726E+00  0.2659E+01  0.2659E+01
     13.411  0.2942E+00  0.2943E+00  0.2777E+01  0.2778E+01
     13.832  0.2932E+00  0.2932E+00  0.2903E+01  0.2904E+01
     14.253  0.2788E+00  0.2787E+00  0.3024E+01  0.3025E+01
     14.674  0.2681E+00  0.2680E+00  0.3140E+01  0.3140E+01
     15.095  0.2687E+00  0.2687E+00  0.3252E+01  0.3252E+01
     15.515  0.2633E+00  0.2633E+00  0.3364E+01  0.3364E+01
     15.936  0.2645E+00  0.2645E+00  0.3474E+01  0.3475E+01
     16.357  0.2661E+00  0.2661E+00  0.3586E+01  0.3586E+01
     16.778  0.2643E+00  0.2643E+00  0.3697E+01  0.3698E+01
     17.199  0.2678E+00  0.2679E+00  0.3809E+01  0.3809E+01
     17.619  0.2768E+00  0.2769E+00  0.3924E+01  0.3924E+01
     18.040  0.2795E+00  0.2795E+00  0.4041E+01  0.4041E+01
     18.461  0.2862E+00  0.2863E+00  0.4160E+01  0.4160E+01
     18.882  0.3098E+00  0.3100E+00  0.4284E+01  0.4284E+01
     19.303  0.3277E+00  0.3278E+00  0.4419E+01  0.4420E+01
     19.723  0.3615E+00  0.3617E+00  0.4563E+01  0.4564E+01
     20.144  0.3501E+00  0.3498E+00  0.4719E+01  0.4720E+01
     20.565  0.3349E+00  0.3340E+00  0.4861E+01  0.4862E+01
     20.986  0.3011E+00  0.3013E+00  0.4990E+01  0.4991E+01
     21.407  0.2984E+00  0.2984E+00  0.5119E+01  0.5120E+01
     21.827  0.2661E+00  0.2665E+00  0.5236E+01  0.5236E+01
     22.248  0.3300E+00  0.3297E+00  0.5355E+01  0.5356E+01
     22.669  0.3592E+00  0.3609E+00  0.5501E+01  0.5502E+01
     23.090  0.3875E+00  0.3881E+00  0.5658E+01  0.5659E+01
     23.511  0.2953E+00  0.2949E+00  0.5808E+01  0.5809E+01
     23.931  0.3753E+00  0.3765E+00  0.5937E+01  0.5938E+01
     24.352  0.3060E+00  0.3057E+00  0.6081E+01  0.6082E+01
     24.773  0.4143E+00  0.4153E+00  0.6216E+01  0.6218E+01
     25.194  0.3805E+00  0.3801E+00  0.6388E+01  0.6389E+01
     25.615  0.3654E+00  0.3651E+00  0.6541E+01  0.6542E+01
     26.035  0.4199E+00  0.4191E+00  0.6706E+01  0.6707E+01
     26.456  0.3571E+00  0.3569E+00  0.6866E+01  0.6867E+01
     26.877  0.3576E+00  0.3580E+00  0.7011E+01  0.7012E+01
     27.298  0.3680E+00  0.3676E+00  0.7167E+01  0.7168E+01
     27.719  0.3166E+00  0.3162E+00  0.7310E+01  0.7310E+01
     28.140  0.3423E+00  0.3429E+00  0.7446E+01  0.7447E+01
     28.560  0.4816E+00  0.4828E+00  0.7609E+01  0.7611E+01
     28.981  0.4104E+00  0.4102E+00  0.7796E+01  0.7797E+01
     29.402  0.3832E+00  0.3833E+00  0.7959E+01  0.7960E+01
     29.823  0.4173E+00  0.4178E+00  0.8125E+01  0.8126E+01
     30.244  0.3892E+00  0.3888E+00  0.8302E+01  0.8303E+01
     30.664  0.3654E+00  0.3655E+00  0.8457E+01  0.8458E+01
     31.085  0.4233E+00  0.4238E+00  0.8620E+01  0.8622E+01
     31.506  0.4308E+00  0.4307E+00  0.8805E+01  0.8807E+01
     31.927  0.4319E+00  0.4320E+00  0.8986E+01  0.8987E+01
     32.348  0.4132E+00  0.4133E+00  0.9165E+01  0.9166E+01
     32.768  0.4220E+00  0.4207E+00  0.9340E+01  0.9341E+01
     33.189  0.3531E+00  0.3529E+00  0.9501E+01  0.9502E+01
     33.610  0.3255E+00  0.3255E+00  0.9641E+01  0.9642E+01
     34.031  0.2784E+00  0.2778E+00  0.9772E+01  0.9773E+01
     34.452  0.2491E+00  0.2628E+00  0.9880E+01  0.9881E+01
     34.872  0.1942E+00  0.1850E+00  0.9975E+01  0.9975E+01
     35.293  0.1692E+00  0.1692E+00  0.1004E+02  0.1004E+02
     35.714  0.1808E+00  0.1808E+00  0.1012E+02  0.1012E+02
     36.135  0.1946E+00  0.1946E+00  0.1020E+02  0.1020E+02
     36.556  0.2488E+00  0.2488E+00  0.1029E+02  0.1029E+02
     36.976  0.2649E+00  0.2650E+00  0.1040E+02  0.1040E+02
     37.397  0.2780E+00  0.2780E+00  0.1051E+02  0.1051E+02
     37.818  0.2960E+00  0.2960E+00  0.1063E+02  0.1063E+02
     38.239  0.3134E+00  0.3134E+00  0.1076E+02  0.1076E+02
     38.660  0.3457E+00  0.3458E+00  0.1090E+02  0.1090E+02
     39.080  0.3453E+00  0.3451E+00  0.1104E+02  0.1104E+02
     39.501  0.4217E+00  0.4220E+00  0.1120E+02  0.1120E+02
     39.922  0.5840E+00  0.5848E+00  0.1141E+02  0.1141E+02
     40.343  0.4903E+00  0.4904E+00  0.1163E+02  0.1163E+02
     40.764  0.4250E+00  0.4250E+00  0.1182E+02  0.1183E+02
     41.184  0.4961E+00  0.4962E+00  0.1202E+02  0.1202E+02
     41.605  0.4594E+00  0.4605E+00  0.1222E+02  0.1222E+02
     42.026  0.5258E+00  0.5263E+00  0.1241E+02  0.1241E+02
     42.447  0.5697E+00  0.5691E+00  0.1263E+02  0.1264E+02
     42.868  0.5432E+00  0.5423E+00  0.1287E+02  0.1287E+02
     43.288  0.4768E+00  0.4772E+00  0.1307E+02  0.1307E+02
     43.709  0.5085E+00  0.5091E+00  0.1327E+02  0.1327E+02
     44.130  0.4195E+00  0.4194E+00  0.1347E+02  0.1347E+02
     44.551  0.4081E+00  0.4082E+00  0.1365E+02  0.1365E+02
     44.972  0.4031E+00  0.4033E+00  0.1381E+02  0.1381E+02
     45.392  0.4384E+00  0.4385E+00  0.1399E+02  0.1399E+02
     45.813  0.4867E+00  0.4871E+00  0.1418E+02  0.1419E+02
     46.234  0.5969E+00  0.5973E+00  0.1441E+02  0.1441E+02
     46.655  0.4657E+00  0.4653E+00  0.1463E+02  0.1463E+02
     47.076  0.4381E+00  0.4381E+00  0.1482E+02  0.1482E+02
     47.496  0.4276E+00  0.4270E+00  0.1500E+02  0.1500E+02
     47.917  0.4331E+00  0.4332E+00  0.1518E+02  0.1518E+02
     48.338  0.4908E+00  0.4910E+00  0.1537E+02  0.1537E+02
     48.759  0.5092E+00  0.5093E+00  0.1559E+02  0.1559E+02
     49.180  0.5124E+00  0.5128E+00  0.1580E+02  0.1580E+02
     49.601  0.4201E+00  0.4200E+00  0.1599E+02  0.1599E+02
     50.021  0.4611E+00  0.4609E+00  0.1617E+02  0.1617E+02
     50.442  0.3664E+00  0.3679E+00  0.1633E+02  0.1633E+02
     50.863  0.5035E+00  0.5047E+00  0.1651E+02  0.1651E+02
     51.284  0.5593E+00  0.5593E+00  0.1673E+02  0.1673E+02
     51.705  0.5379E+00  0.5382E+00  0.1696E+02  0.1696E+02
     52.125  0.4330E+00  0.4428E+00  0.1716E+02  0.1716E+02
     52.546  0.4899E+00  0.4895E+00  0.1737E+02  0.1737E+02
     52.967  0.5721E+00  0.5723E+00  0.1758E+02  0.1758E+02
     53.388  0.7330E+00  0.7332E+00  0.1786E+02  0.1786E+02
     53.809  0.9057E+00  0.9060E+00  0.1819E+02  0.1819E+02
     54.229  0.1015E+01  0.1015E+01  0.1857E+02  0.1857E+02
     54.650  0.8919E+00  0.8925E+00  0.1895E+02  0.1895E+02
     55.071  0.1234E+01  0.1237E+01  0.1940E+02  0.1941E+02
     55.492  0.1101E+01  0.1101E+01  0.1986E+02  0.1986E+02
     55.913  0.1422E+01  0.1423E+01  0.2036E+02  0.2036E+02
     56.333  0.1340E+01  0.1335E+01  0.2098E+02  0.2098E+02
     56.754  0.1202E+01  0.1205E+01  0.2140E+02  0.2140E+02
     57.175  0.1104E+01  0.1102E+01  0.2190E+02  0.2190E+02
     57.596  0.8852E+00  0.8833E+00  0.2227E+02  0.2227E+02
     58.017  0.4962E+00  0.4955E+00  0.2254E+02  0.2254E+02
     58.437  0.6007E+00  0.6009E+00  0.2277E+02  0.2277E+02
     58.858  0.7410E+00  0.7419E+00  0.2304E+02  0.2304E+02
     59.279  0.1210E+01  0.1204E+01  0.2345E+02  0.2346E+02
     59.700  0.7013E+00  0.6994E+00  0.2380E+02  0.2380E+02
     60.121  0.5266E+00  0.5251E+00  0.2404E+02  0.2404E+02
     60.541  0.5889E+00  0.5893E+00  0.2427E+02  0.2427E+02
     60.962  0.6018E+00  0.6013E+00  0.2452E+02  0.2452E+02
     61.383  0.5882E+00  0.5888E+00  0.2475E+02  0.2475E+02
     61.804  0.7251E+00  0.7259E+00  0.2502E+02  0.2502E+02
     62.225  0.6175E+00  0.6169E+00  0.2530E+02  0.2530E+02
     62.645  0.4962E+00  0.4965E+00  0.2551E+02  0.2551E+02
     63.066  0.5724E+00  0.5723E+00  0.2574E+02  0.2574E+02
     63.487  0.5158E+00  0.5158E+00  0.2597E+02  0.2597E+02
     63.908  0.5143E+00  0.5143E+00  0.2619E+02  0.2619E+02
     64.329  0.4717E+00  0.4719E+00  0.2638E+02  0.2638E+02
     64.749  0.5543E+00  0.5544E+00  0.2660E+02  0.2660E+02
     65.170  0.4875E+00  0.4876E+00  0.2681E+02  0.2682E+02
     65.591  0.4901E+00  0.4901E+00  0.2702E+02  0.2702E+02
     66.012  0.5247E+00  0.5244E+00  0.2724E+02  0.2724E+02
     66.433  0.4839E+00  0.4839E+00  0.2745E+02  0.2745E+02
     66.853  0.4538E+00  0.4537E+00  0.2765E+02  0.2765E+02
     67.274  0.4022E+00  0.4020E+00  0.2783E+02  0.2783E+02
     67.695  0.4377E+00  0.4376E+00  0.2800E+02  0.2800E+02
     68.116  0.4658E+00  0.4659E+00  0.2819E+02  0.2819E+02
     68.537  0.4470E+00  0.4471E+00  0.2838E+02  0.2838E+02
     68.957  0.4523E+00  0.4523E+00  0.2857E+02  0.2857E+02
     69.378  0.4475E+00  0.4475E+00  0.2876E+02  0.2876E+02
     69.799  0.4973E+00  0.4977E+00  0.2895E+02  0.2895E+02
     70.220  0.4742E+00  0.4707E+00  0.2917E+02  0.2917E+02
     70.641  0.4542E+00  0.4541E+00  0.2936E+02  0.2936E+02
     71.062  0.4522E+00  0.4521E+00  0.2955E+02  0.2955E+02
     71.482  0.5058E+00  0.5059E+00  0.2975E+02  0.2975E+02
     71.903  0.5624E+00  0.5624E+00  0.2997E+02  0.2997E+02
     72.324  0.5349E+00  0.5350E+00  0.3020E+02  0.3020E+02
     72.745  0.5626E+00  0.5623E+00  0.3044E+02  0.3044E+02
     73.166  0.4927E+00  0.4926E+00  0.3065E+02  0.3065E+02
     73.586  0.4341E+00  0.4341E+00  0.3084E+02  0.3084E+02
     74.007  0.4108E+00  0.4110E+00  0.3101E+02  0.3101E+02
     74.428  0.4421E+00  0.4422E+00  0.3120E+02  0.3120E+02
     74.849  0.4183E+00  0.4184E+00  0.3138E+02  0.3138E+02
     75.270  0.4062E+00  0.4062E+00  0.3155E+02  0.3155E+02
     75.690  0.4351E+00  0.4353E+00  0.3173E+02  0.3173E+02
     76.111  0.4746E+00  0.4754E+00  0.3191E+02  0.3191E+02
     76.532  0.5186E+00  0.5183E+00  0.3213E+02  0.3213E+02
     76.953  0.4971E+00  0.4970E+00  0.3234E+02  0.3234E+02
     77.374  0.4938E+00  0.4939E+00  0.3255E+02  0.3255E+02
     77.794  0.5576E+00  0.5581E+00  0.3277E+02  0.3277E+02
     78.215  0.6420E+00  0.6420E+00  0.3302E+02  0.3302E+02
     78.636  0.7643E+00  0.7648E+00  0.3330E+02  0.3331E+02
     79.057  0.5387E+00  0.5357E+00  0.3360E+02  0.3360E+02
     79.478  0.5805E+00  0.5814E+00  0.3380E+02  0.3380E+02
     79.898  0.6909E+00  0.6901E+00  0.3406E+02  0.3406E+02
     80.319  0.6167E+00  0.6163E+00  0.3433E+02  0.3433E+02
     80.740  0.5085E+00  0.5083E+00  0.3456E+02  0.3456E+02
     81.161  0.5055E+00  0.5054E+00  0.3477E+02  0.3477E+02
     81.582  0.5202E+00  0.5202E+00  0.3498E+02  0.3499E+02
     82.002  0.5994E+00  0.5995E+00  0.3522E+02  0.3522E+02
     82.423  0.5493E+00  0.5494E+00  0.3546E+02  0.3546E+02
     82.844  0.4960E+00  0.4960E+00  0.3568E+02  0.3568E+02
     83.265  0.5051E+00  0.5054E+00  0.3589E+02  0.3589E+02
     83.686  0.5447E+00  0.5445E+00  0.3611E+02  0.3611E+02
     84.106  0.6583E+00  0.6587E+00  0.3636E+02  0.3636E+02
     84.527  0.5044E+00  0.5039E+00  0.3661E+02  0.3661E+02
     84.948  0.4207E+00  0.4243E+00  0.3679E+02  0.3679E+02
     85.369  0.4977E+00  0.4953E+00  0.3699E+02  0.3699E+02
     85.790  0.5161E+00  0.5158E+00  0.3720E+02  0.3720E+02
     86.210  0.5210E+00  0.5212E+00  0.3741E+02  0.3741E+02
     86.631  0.5625E+00  0.5626E+00  0.3763E+02  0.3763E+02
     87.052  0.5845E+00  0.5847E+00  0.3787E+02  0.3787E+02
     87.473  0.6052E+00  0.6051E+00  0.3813E+02  0.3813E+02
     87.894  0.5907E+00  0.5908E+00  0.3838E+02  0.3838E+02
     88.314  0.6005E+00  0.6001E+00  0.3863E+02  0.3864E+02
     88.735  0.6281E+00  0.6288E+00  0.3888E+02  0.3888E+02
     89.156  0.7413E+00  0.7404E+00  0.3917E+02  0.3917E+02
     89.577  0.5449E+00  0.5446E+00  0.3944E+02  0.3944E+02
     89.998  0.4396E+00  0.4394E+00  0.3964E+02  0.3964E+02
     90.418  0.5159E+00  0.5164E+00  0.3984E+02  0.3984E+02
     90.839  0.4303E+00  0.4303E+00  0.4002E+02  0.4002E+02
     91.260  0.5338E+00  0.5337E+00  0.4022E+02  0.4022E+02
     91.681  0.4861E+00  0.4862E+00  0.4043E+02  0.4043E+02
     92.102  0.6058E+00  0.6063E+00  0.4065E+02  0.4066E+02
     92.523  0.7279E+00  0.7273E+00  0.4093E+02  0.4093E+02
     92.943  0.5920E+00  0.5916E+00  0.4120E+02  0.4120E+02
     93.364  0.5505E+00  0.5505E+00  0.4144E+02  0.4144E+02
     93.785  0.4845E+00  0.4843E+00  0.4166E+02  0.4166E+02
     94.206  0.6243E+00  0.6247E+00  0.4188E+02  0.4188E+02
     94.627  0.5252E+00  0.5251E+00  0.4211E+02  0.4211E+02
     95.047  0.6265E+00  0.6268E+00  0.4235E+02  0.4235E+02
     95.468  0.7240E+00  0.7239E+00  0.4264E+02  0.4264E+02
     95.889  0.6816E+00  0.6813E+00  0.4294E+02  0.4294E+02
     96.310  0.6088E+00  0.6087E+00  0.4320E+02  0.4320E+02
     96.731  0.5877E+00  0.5880E+00  0.4345E+02  0.4345E+02
     97.151  0.5089E+00  0.5089E+00  0.4369E+02  0.4369E+02
     97.572  0.5139E+00  0.5139E+00  0.4390E+02  0.4390E+02
     97.993  0.5093E+00  0.5092E+00  0.4412E+02  0.4412E+02
     98.414  0.4844E+00  0.4844E+00  0.4433E+02  0.4433E+02
     98.835  0.5320E+00  0.5323E+00  0.4454E+02  0.4454E+02
     99.255  0.5268E+00  0.5267E+00  0.4476E+02  0.4476E+02
     99.676  0.6197E+00  0.6195E+00  0.4499E+02  0.4499E+02
    100.097  0.6748E+00  0.6748E+00  0.4526E+02  0.4527E+02
    100.518  0.6236E+00  0.6238E+00  0.4554E+02  0.4554E+02
    100.939  0.6905E+00  0.6907E+00  0.4581E+02  0.4581E+02
    101.359  0.5167E+00  0.5165E+00  0.4606E+02  0.4606E+02
    101.780  0.5298E+00  0.5295E+00  0.4628E+02  0.4628E+02
    102.201  0.5255E+00  0.5254E+00  0.4650E+02  0.4650E+02
    102.622  0.5050E+00  0.5053E+00  0.4672E+02  0.4672E+02
    103.043  0.5239E+00  0.5238E+00  0.4694E+02  0.4694E+02
    103.463  0.4564E+00  0.4563E+00  0.4714E+02  0.4714E+02
    103.884  0.4042E+00  0.4041E+00  0.4732E+02  0.4732E+02
    104.305  0.3509E+00  0.3506E+00  0.4747E+02  0.4747E+02
    104.726  0.2736E+00  0.2737E+00  0.4759E+02  0.4759E+02
    105.147  0.2894E+00  0.2893E+00  0.4771E+02  0.4771E+02
    105.567  0.2628E+00  0.2612E+00  0.4783E+02  0.4783E+02
    105.988  0.1382E+00  0.1381E+00  0.4791E+02  0.4791E+02
    106.409  0.6491E-01  0.6476E-01  0.4795E+02  0.4795E+02
    106.830  0.2729E-01  0.2720E-01  0.4796E+02  0.4796E+02
    107.251  0.1247E-01  0.1246E-01  0.4797E+02  0.4797E+02
    107.671  0.1118E-01  0.1117E-01  0.4798E+02  0.4798E+02
    108.092  0.1239E-01  0.1240E-01  0.4798E+02  0.4798E+02
    108.513  0.2165E-01  0.2164E-01  0.4799E+02  0.4799E+02
    108.934  0.9894E-02  0.9849E-02  0.4800E+02  0.4800E+02
    109.355  0.3353E-02  0.3322E-02  0.4800E+02  0.4800E+02
    109.775  0.1544E-02  0.1540E-02  0.4800E+02  0.4800E+02
    110.196  0.9174E-03  0.9142E-03  0.4800E+02  0.4800E+02
    110.617  0.4530E-03  0.4506E-03  0.4800E+02  0.4800E+02
    111.038  0.1508E-03  0.1493E-03  0.4800E+02  0.4800E+02
    111.459  0.1072E-04  0.1031E-04  0.4800E+02  0.4800E+02
    111.879  0.0000E+00  0.0000E+00  0.4800E+02  0.4800E+02
    112.300  0.0000E+00  0.0000E+00  0.4800E+02  0.4800E+02
    112.721  0.0000E+00  0.0000E+00  0.4800E+02  0.4800E+02
    113.142  0.0000E+00  0.0000E+00  0.4800E+02  0.4800E+02
    113.563  0.0000E+00  0.0000E+00  0.4800E+02  0.4800E+02
    113.984  0.0000E+00  0.0000E+00  0.4800E+02  0.4800E+02
    114.404  0.0000E+00  0.0000E+00  0.4800E+02  0.4800E+02
    114.825  0.0000E+00  0.0000E+00  0.4800E+02  0.4800E+02
    115.246  0.0000E+00  0.0000E+00  0.4800E+02  0.4800E+02
    115.667  0.0000E+00  0.0000E+00  0.4800E+02  0.4800E+02
    116.088  0.0000E+00  0.0000E+00  0.4800E+02  0.4800E+02
    116.508  0.0000E+00  0.0000E+00  0.4800E+02  0.4800E+02
    116.929  0.0000E+00  0.0000E+00  0.4800E+02  0.4800E+02
    117.350  0.0000E+00  0.0000E+00  0.4800E+02  0.4800E+02
    117.34993629     -8.89122466  301      7.98480920      1.00000000
     -8.891  0.0000E+00  0.0000E+00  0.0000E+00  0.0000E+00  0.0000E+00  0.0000E+00  0.0000E+00  0.0000E+00  0.0000E+00  0.0000E+00  0.0000E+00  0.0000E+00  0.0000E+00  0.0000E+00  0.0000E+00  0.0000E+00  0.0000E+00  0.0000E+00
     -8.470  0.0000E+00  0.0000E+00  0.0000E+00  0.0000E+00  0.0000E+00  0.0000E+00  0.0000E+00  0.0000E+00  0.0000E+00  0.0000E+00  0.0000E+00  0.0000E+00  0.0000E+00  0.0000E+00  0.0000E+00  0.0000E+00  0.0000E+00  0.0000E+00
     -8.050  0.0000E+00  0.0000E+00  0.0000E+00  0.0000E+00  0.0000E+00  0.0000E+00  0.0000E+00  0.0000E+00  0.0000E+00  0.0000E+00  0.0000E+00  0.0000E+00  0.0000E+00  0.0000E+00  0.0000E+00  0.0000E+00  0.0000E+00  0.0000E+00
     -7.629  0.0000E+00  0.0000E+00  0.0000E+00  0.0000E+00  0.0000E+00  0.0000E+00  0.0000E+00  0.0000E+00  0.0000E+00  0.0000E+00  0.0000E+00  0.0000E+00  0.0000E+00  0.0000E+00  0.0000E+00  0.0000E+00  0.0000E+00  0.0000E+00
     -7.208  0.0000E+00  0.0000E+00  0.0000E+00  0.0000E+00  0.0000E+00  0.0000E+00  0.0000E+00  0.0000E+00  0.0000E+00  0.0000E+00  0.0000E+00  0.0000E+00  0.0000E+00  0.0000E+00  0.0000E+00  0.0000E+00  0.0000E+00  0.0000E+00
     -6.787  0.0000E+00  0.0000E+00  0.0000E+00  0.0000E+00  0.0000E+00  0.0000E+00  0.0000E+00  0.0000E+00  0.0000E+00  0.0000E+00  0.0000E+00  0.0000E+00  0.0000E+00  0.0000E+00  0.0000E+00  0.0000E+00  0.0000E+00  0.0000E+00
     -6.366  0.0000E+00  0.0000E+00  0.0000E+00  0.0000E+00  0.0000E+00  0.0000E+00  0.0000E+00  0.0000E+00  0.0000E+00  0.0000E+00  0.0000E+00  0.0000E+00  0.0000E+00  0.0000E+00  0.0000E+00  0.0000E+00  0.0000E+00  0.0000E+00
     -5.946  0.0000E+00  0.0000E+00  0.0000E+00  0.0000E+00  0.0000E+00  0.0000E+00  0.0000E+00  0.0000E+00  0.0000E+00  0.0000E+00  0.0000E+00  0.0000E+00  0.0000E+00  0.0000E+00  0.0000E+00  0.0000E+00  0.0000E+00  0.0000E+00
     -5.525  0.0000E+00  0.0000E+00  0.0000E+00  0.0000E+00  0.0000E+00  0.0000E+00  0.0000E+00  0.0000E+00  0.0000E+00  0.0000E+00  0.0000E+00  0.0000E+00  0.0000E+00  0.0000E+00  0.0000E+00  0.0000E+00  0.0000E+00  0.0000E+00
     -5.104  0.0000E+00  0.0000E+00  0.0000E+00  0.0000E+00  0.0000E+00  0.0000E+00  0.0000E+00  0.0000E+00  0.0000E+00  0.0000E+00  0.0000E+00  0.0000E+00  0.0000E+00  0.0000E+00  0.0000E+00  0.0000E+00  0.0000E+00  0.0000E+00
     -4.683  0.0000E+00  0.0000E+00  0.0000E+00  0.0000E+00  0.0000E+00  0.0000E+00  0.0000E+00  0.0000E+00  0.0000E+00  0.0000E+00  0.0000E+00  0.0000E+00  0.0000E+00  0.0000E+00  0.0000E+00  0.0000E+00  0.0000E+00  0.0000E+00
     -4.262  0.0000E+00  0.0000E+00  0.0000E+00  0.0000E+00  0.0000E+00  0.0000E+00  0.0000E+00  0.0000E+00  0.0000E+00  0.0000E+00  0.0000E+00  0.0000E+00  0.0000E+00  0.0000E+00  0.0000E+00  0.0000E+00  0.0000E+00  0.0000E+00
     -3.842  0.0000E+00  0.0000E+00  0.0000E+00  0.0000E+00  0.0000E+00  0.0000E+00  0.0000E+00  0.0000E+00  0.0000E+00  0.0000E+00  0.0000E+00  0.0000E+00  0.0000E+00  0.0000E+00  0.0000E+00  0.0000E+00  0.0000E+00  0.0000E+00
     -3.421  0.0000E+00  0.0000E+00  0.0000E+00  0.0000E+00  0.0000E+00  0.0000E+00  0.0000E+00  0.0000E+00  0.0000E+00  0.0000E+00  0.0000E+00  0.0000E+00  0.0000E+00  0.0000E+00  0.0000E+00  0.0000E+00  0.0000E+00  0.0000E+00
     -3.000  0.5759E-02  0.5789E-02  0.2326E-04  0.2346E-04  0.2326E-04  0.2346E-04  0.2326E-04  0.2346E-04  0.0000E+00  0.0000E+00  0.0000E+00  0.0000E+00  0.0000E+00  0.0000E+00  0.0000E+00  0.0000E+00  0.0000E+00  0.0000E+00
     -2.579  0.1441E-01  0.1443E-01  0.2003E-03  0.2008E-03  0.2003E-03  0.2008E-03  0.2003E-03  0.2008E-03  0.0000E+00  0.0000E+00  0.0000E+00  0.0000E+00  0.0000E+00  0.0000E+00  0.0000E+00  0.0000E+00  0.0000E+00  0.0000E+00
     -2.158  0.1517E-01  0.1519E-01  0.4028E-03  0.4034E-03  0.4028E-03  0.4034E-03  0.4028E-03  0.4034E-03  0.0000E+00  0.0000E+00  0.0000E+00  0.0000E+00  0.0000E+00  0.0000E+00  0.0000E+00  0.0000E+00  0.0000E+00  0.0000E+00
     -1.738  0.1661E-01  0.1662E-01  0.6478E-03  0.6487E-03  0.6478E-03  0.6487E-03  0.6478E-03  0.6487E-03  0.0000E+00  0.0000E+00  0.0000E+00  0.0000E+00  0.0000E+00  0.0000E+00  0.0000E+00  0.0000E+00  0.0000E+00  0.0000E+00
     -1.317  0.1840E-01  0.1841E-01  0.9518E-03  0.9528E-03  0.9518E-03  0.9528E-03  0.9518E-03  0.9528E-03  0.0000E+00  0.0000E+00  0.0000E+00  0.0000E+00  0.0000E+00  0.0000E+00  0.0000E+00  0.0000E+00  0.0000E+00  0.0000E+00
     -0.896  0.1992E-01  0.1993E-01  0.1284E-02  0.1285E-02  0.1284E-02  0.1285E-02  0.1284E-02  0.1285E-02  0.0000E+00  0.0000E+00  0.0000E+00  0.0000E+00  0.0000E+00  0.0000E+00  0.0000E+00  0.0000E+00  0.0000E+00  0.0000E+00
     -0.475  0.2089E-01  0.2091E-01  0.1656E-02  0.1657E-02  0.1656E-02  0.1657E-02  0.1656E-02  0.1657E-02  0.0000E+00  0.0000E+00  0.0000E+00  0.0000E+00  0.0000E+00  0.0000E+00  0.0000E+00  0.0000E+00  0.0000E+00  0.0000E+00
     -0.054  0.2173E-01  0.2175E-01  0.2052E-02  0.2053E-02  0.2052E-02  0.2053E-02  0.2052E-02  0.2053E-02  0.0000E+00  0.0000E+00  0.0000E+00  0.0000E+00  0.0000E+00  0.0000E+00  0.0000E+00  0.0000E+00  0.0000E+00  0.0000E+00
      0.366  0.2241E-01  0.2243E-01  0.2468E-02  0.2470E-02  0.2468E-02  0.2470E-02  0.2468E-02  0.2470E-02  0.0000E+00  0.0000E+00  0.0000E+00  0.0000E+00  0.0000E+00  0.0000E+00  0.0000E+00  0.0000E+00  0.0000E+00  0.0000E+00
      0.787  0.2277E-01  0.2279E-01  0.2919E-02  0.2921E-02  0.2919E-02  0.2921E-02  0.2919E-02  0.2921E-02  0.0000E+00  0.0000E+00  0.0000E+00  0.0000E+00  0.0000E+00  0.0000E+00  0.0000E+00  0.0000E+00  0.0000E+00  0.0000E+00
      1.208  0.2310E-01  0.2312E-01  0.3383E-02  0.3385E-02  0.3383E-02  0.3385E-02  0.3383E-02  0.3385E-02  0.0000E+00  0.0000E+00  0.0000E+00  0.0000E+00  0.0000E+00  0.0000E+00  0.0000E+00  0.0000E+00  0.0000E+00  0.0000E+00
      1.629  0.2311E-01  0.2313E-01  0.3887E-02  0.3889E-02  0.3887E-02  0.3889E-02  0.3887E-02  0.3889E-02  0.0000E+00  0.0000E+00  0.0000E+00  0.0000E+00  0.0000E+00  0.0000E+00  0.0000E+00  0.0000E+00  0.0000E+00  0.0000E+00
      2.050  0.2305E-01  0.2307E-01  0.4413E-02  0.4415E-02  0.4413E-02  0.4415E-02  0.4413E-02  0.4415E-02  0.0000E+00  0.0000E+00  0.0000E+00  0.0000E+00  0.0000E+00  0.0000E+00  0.0000E+00  0.0000E+00  0.0000E+00  0.0000E+00
      2.470  0.2268E-01  0.2270E-01  0.5000E-02  0.5003E-02  0.5000E-02  0.5003E-02  0.5000E-02  0.5003E-02  0.0000E+00  0.0000E+00  0.0000E+00  0.0000E+00  0.0000E+00  0.0000E+00  0.0000E+00  0.0000E+00  0.0000E+00  0.0000E+00
      2.891  0.2197E-01  0.2199E-01  0.5843E-02  0.5846E-02  0.5843E-02  0.5846E-02  0.5843E-02  0.5846E-02  0.0000E+00  0.0000E+00  0.0000E+00  0.0000E+00  0.0000E+00  0.0000E+00  0.0000E+00  0.0000E+00  0.0000E+00  0.0000E+00
      3.312  0.2135E-01  0.2137E-01  0.7035E-02  0.7036E-02  0.7035E-02  0.7036E-02  0.7035E-02  0.7036E-02  0.0000E+00  0.0000E+00  0.0000E+00  0.0000E+00  0.0000E+00  0.0000E+00  0.0000E+00  0.0000E+00  0.0000E+00  0.0000E+00
      3.733  0.1786E-01  0.1788E-01  0.6899E-02  0.6902E-02  0.6899E-02  0.6902E-02  0.6899E-02  0.6902E-02  0.0000E+00  0.0000E+00  0.0000E+00  0.0000E+00  0.0000E+00  0.0000E+00  0.0000E+00  0.0000E+00  0.0000E+00  0.0000E+00
      4.154  0.1922E-01  0.1927E-01  0.6969E-02  0.6975E-02  0.6969E-02  0.6975E-02  0.6969E-02  0.6975E-02  0.0000E+00  0.0000E+00  0.0000E+00  0.0000E+00  0.0000E+00  0.0000E+00  0.0000E+00  0.0000E+00  0.0000E+00  0.0000E+00
      4.574  0.2078E-01  0.2079E-01  0.8428E-02  0.8431E-02  0.8428E-02  0.8431E-02  0.8428E-02  0.8431E-02  0.0000E+00  0.0000E+00  0.0000E+00  0.0000E+00  0.0000E+00  0.0000E+00  0.0000E+00  0.0000E+00  0.0000E+00  0.0000E+00
      4.995  0.2044E-01  0.2044E-01  0.9683E-02  0.9686E-02  0.9683E-02  0.9686E-02  0.9683E-02  0.9686E-02  0.0000E+00  0.0000E+00  0.0000E+00  0.0000E+00  0.0000E+00  0.0000E+00  0.0000E+00  0.0000E+00  0.0000E+00  0.0000E+00
      5.416  0.1848E-01  0.1850E-01  0.9606E-02  0.9614E-02  0.9606E-02  0.9614E-02  0.9606E-02  0.9614E-02  0.0000E+00  0.0000E+00  0.0000E+00  0.0000E+00  0.0000E+00  0.0000E+00  0.0000E+00  0.0000E+00  0.0000E+00  0.0000E+00
      5.837  0.1811E-01  0.1811E-01  0.8936E-02  0.8938E-02  0.8936E-02  0.8938E-02  0.8936E-02  0.8938E-02  0.0000E+00  0.0000E+00  0.0000E+00  0.0000E+00  0.0000E+00  0.0000E+00  0.0000E+00  0.0000E+00  0.0000E+00  0.0000E+00
      6.258  0.1610E-01  0.1611E-01  0.8216E-02  0.8223E-02  0.8216E-02  0.8223E-02  0.8216E-02  0.8223E-02  0.0000E+00  0.0000E+00  0.0000E+00  0.0000E+00  0.0000E+00  0.0000E+00  0.0000E+00  0.0000E+00  0.0000E+00  0.0000E+00
      6.679  0.1868E-01  0.1871E-01  0.9728E-02  0.9737E-02  0.9728E-02  0.9737E-02  0.9728E-02  0.9737E-02  0.0000E+00  0.0000E+00  0.0000E+00  0.0000E+00  0.0000E+00  0.0000E+00  0.0000E+00  0.0000E+00  0.0000E+00  0.0000E+00
      7.099  0.1980E-01  0.1982E-01  0.9625E-02  0.9631E-02  0.9625E-02  0.9631E-02  0.9625E-02  0.9631E-02  0.0000E+00  0.0000E+00  0.0000E+00  0.0000E+00  0.0000E+00  0.0000E+00  0.0000E+00  0.0000E+00  0.0000E+00  0.0000E+00
      7.520  0.1585E-01  0.1586E-01  0.9443E-02  0.9446E-02  0.9443E-02  0.9446E-02  0.9443E-02  0.9446E-02  0.0000E+00  0.0000E+00  0.0000E+00  0.0000E+00  0.0000E+00  0.0000E+00  0.0000E+00  0.0000E+00  0.0000E+00  0.0000E+00
      7.941  0.1940E-01  0.1936E-01  0.8793E-02  0.8800E-02  0.8793E-02  0.8800E-02  0.8793E-02  0.8800E-02  0.0000E+00  0.0000E+00  0.0000E+00  0.0000E+00  0.0000E+00  0.0000E+00  0.0000E+00  0.0000E+00  0.0000E+00  0.0000E+00
      8.362  0.2205E-01  0.2208E-01  0.1002E-01  0.1003E-01  0.1002E-01  0.1003E-01  0.1002E-01  0.1003E-01  0.0000E+00  0.0000E+00  0.0000E+00  0.0000E+00  0.0000E+00  0.0000E+00  0.0000E+00  0.0000E+00  0.0000E+00  0.0000E+00
      8.783  0.2072E-01  0.2072E-01  0.9849E-02  0.9855E-02  0.9849E-02  0.9855E-02  0.9849E-02  0.9855E-02  0.0000E+00  0.0000E+00  0.0000E+00  0.0000E+00  0.0000E+00  0.0000E+00  0.0000E+00  0.0000E+00  0.0000E+00  0.0000E+00
      9.203  0.1996E-01  0.1998E-01  0.1010E-01  0.1011E-01  0.1010E-01  0.1011E-01  0.1010E-01  0.1011E-01  0.0000E+00  0.0000E+00  0.0000E+00  0.0000E+00  0.0000E+00  0.0000E+00  0.0000E+00  0.0000E+00  0.0000E+00  0.0000E+00
      9.624  0.2387E-01  0.2387E-01  0.1087E-01  0.1088E-01  0.1087E-01  0.1088E-01  0.1087E-01  0.1088E-01  0.0000E+00  0.0000E+00  0.0000E+00  0.0000E+00  0.0000E+00  0.0000E+00  0.0000E+00  0.0000E+00  0.0000E+00  0.0000E+00
     10.045  0.2213E-01  0.2215E-01  0.1063E-01  0.1064E-01  0.1063E-01  0.1064E-01  0.1063E-01  0.1064E-01  0.0000E+00  0.0000E+00  0.0000E+00  0.0000E+00  0.0000E+00  0.0000E+00  0.0000E+00  0.0000E+00  0.0000E+00  0.0000E+00
     10.466  0.2337E-01  0.2338E-01  0.1114E-01  0.1116E-01  0.1114E-01  0.1116E-01  0.1114E-01  0.1116E-01  0.0000E+00  0.0000E+00  0.0000E+00  0.0000E+00  0.0000E+00  0.0000E+00  0.0000E+00  0.0000E+00  0.0000E+00  0.0000E+00
     10.887  0.2359E-01  0.2360E-01  0.1186E-01  0.1188E-01  0.1186E-01  0.1188E-01  0.1186E-01  0.1188E-01  0.0000E+00  0.0000E+00  0.0000E+00  0.0000E+00  0.0000E+00  0.0000E+00  0.0000E+00  0.0000E+00  0.0000E+00  0.0000E+00
     11.307  0.2292E-01  0.2293E-01  0.1236E-01  0.1237E-01  0.1236E-01  0.1237E-01  0.1236E-01  0.1237E-01  0.0000E+00  0.0000E+00  0.0000E+00  0.0000E+00  0.0000E+00  0.0000E+00  0.0000E+00  0.0000E+00  0.0000E+00  0.0000E+00
     11.728  0.2321E-01  0.2321E-01  0.1298E-01  0.1300E-01  0.1298E-01  0.1300E-01  0.1298E-01  0.1300E-01  0.0000E+00  0.0000E+00  0.0000E+00  0.0000E+00  0.0000E+00  0.0000E+00  0.0000E+00  0.0000E+00  0.0000E+00  0.0000E+00
     12.149  0.2250E-01  0.2256E-01  0.1404E-01  0.1408E-01  0.1404E-01  0.1408E-01  0.1404E-01  0.1408E-01  0.0000E+00  0.0000E+00  0.0000E+00  0.0000E+00  0.0000E+00  0.0000E+00  0.0000E+00  0.0000E+00  0.0000E+00  0.0000E+00