       N       E                     dE             d eps       ncg     rms          rms(c)
DAV:   1     0.909592771955E+03    0.90959E+03   -0.46662E+04 27496   0.273E+03
DAV:   2     0.385001069663E+02   -0.87109E+03   -0.85126E+03 24568   0.761E+02
DAV:   3    -0.184131035556E+02   -0.56913E+02   -0.54869E+02 26280   0.217E+02
DAV:   4    -0.197707327226E+02   -0.13576E+01   -0.13481E+01 26224   0.332E+01
DAV:   5    -0.198143045807E+02   -0.43572E-01   -0.43576E-01 29448   0.553E+00    0.161E+01
RMM:   6    -0.178302619562E+02    0.19840E+01   -0.36353E+01 24573   0.608E+01    0.104E+01
RMM:   7    -0.163831949694E+02    0.14471E+01   -0.66254E+00 24118   0.282E+01    0.120E+00
RMM:   8    -0.163471715198E+02    0.36023E-01   -0.67733E-02 25331   0.307E+00    0.336E-01
RMM:   9    -0.163463825430E+02    0.78898E-03   -0.14278E-02 25910   0.980E-01    0.939E-02
RMM:  10    -0.163466456695E+02   -0.26313E-03   -0.30293E-03 26255   0.652E-01    0.658E-02
RMM:  11    -0.163466673351E+02   -0.21666E-04   -0.10266E-03 27890   0.259E-01    0.203E-02
RMM:  12    -0.163466872521E+02   -0.19917E-04   -0.25218E-04 30599   0.147E-01    0.798E-03
RMM:  13    -0.163466953472E+02   -0.80951E-05   -0.68212E-05 32689   0.533E-02    0.273E-03
RMM:  14    -0.163466969589E+02   -0.16117E-05   -0.10243E-05 34140   0.231E-02    0.855E-04
RMM:  15    -0.163466971193E+02   -0.16038E-06   -0.14412E-06 34882   0.794E-03    0.119E-04
RMM:  16    -0.163466971751E+02   -0.55807E-07   -0.15992E-07 26245   0.302E-03    0.361E-04
RMM:  17    -0.163466971282E+02    0.46850E-07   -0.24552E-08 14885   0.152E-03    0.221E-05
RMM:  18    -0.163466971330E+02   -0.47621E-08   -0.65554E-09 13324   0.749E-04
   1 F= -.16346697E+02 E0= -.16347725E+02  d E =0.308428E-02
