<?xml version="1.0" encoding="ISO-8859-1"?>
<modeling>
 <generator>
  <i name="program" type="string">vasp </i>
  <i name="version" type="string">6.2.1  </i>
  <i name="subversion" type="string">16May21 (build Aug 15 2022 14:47:30) complex                          parallel </i>
  <i name="platform" type="string">LinuxGNU </i>
  <i name="date" type="string">2025 12 11 </i>
  <i name="time" type="string">13:46:17 </i>
 </generator>
 <incar>
  <i type="string" name="PREC">Accurate</i>
  <i type="string" name="ALGO">Fast</i>
  <i type="int" name="ISPIN">     2</i>
  <i type="int" name="NELM">   100</i>
  <i name="EDIFF">      0.00005000</i>
  <i type="int" name="NSW">     0</i>
  <i name="ENCUT">    520.00000000</i>
  <v name="MAGMOM">      0.60000000</v>
  <i type="logical" name="LREAL"> F  </i>
  <i type="int" name="ISMEAR">    -5</i>
  <i name="SIGMA">      0.05000000</i>
  <i type="logical" name="LWAVE"> F  </i>
  <i type="logical" name="LCHARG"> T  </i>
  <i type="int" name="LORBIT">    11</i>
  <i type="logical" name="LASPH"> T  </i>
 </incar>
 <primitive_cell>
  <structure name="primitive_cell" >
   <crystal>
    <varray name="basis" >
     <v>       0.00000000       2.02400000       2.02400000 </v>
     <v>       2.02400000       0.00000000       2.02400000 </v>
     <v>       2.02400000       2.02400000       0.00000000 </v>
    </varray>
    <i name="volume">     16.58293965 </i>
    <varray name="rec_basis" >
     <v>      -0.24703557       0.24703557       0.24703557 </v>
     <v>       0.24703557      -0.24703557       0.24703557 </v>
     <v>       0.24703557       0.24703557      -0.24703557 </v>
    </varray>
   </crystal>
   <varray name="positions" >
    <v>       0.00000000       0.00000000       0.00000000 </v>
   </varray>
  </structure>
  <varray name="primitive_index" >
   <v type="int" >        1 </v>
  </varray>
 </primitive_cell>
 <kpoints>
  <generation param="Gamma">
   <v type="int" name="divisions">      13       13       13 </v>
   <v name="usershift">      0.00000000       0.00000000       0.00000000 </v>
   <v name="genvec1">      0.07692308       0.00000000       0.00000000 </v>
   <v name="genvec2">      0.00000000       0.07692308       0.00000000 </v>
   <v name="genvec3">      0.00000000       0.00000000       0.07692308 </v>
   <v name="shift">      0.00000000       0.00000000       0.00000000 </v>
  </generation>
  <varray name="kpointlist" >
   <v>       0.00000000       0.00000000       0.00000000 </v>
   <v>       0.07692308       0.00000000       0.00000000 </v>
   <v>       0.15384615       0.00000000       0.00000000 </v>
   <v>       0.23076923       0.00000000       0.00000000 </v>
   <v>       0.30769231       0.00000000       0.00000000 </v>
   <v>       0.38461538       0.00000000       0.00000000 </v>
   <v>       0.46153846       0.00000000       0.00000000 </v>
   <v>       0.07692308       0.07692308       0.00000000 </v>
   <v>       0.15384615       0.07692308       0.00000000 </v>
   <v>       0.23076923       0.07692308       0.00000000 </v>
   <v>       0.30769231       0.07692308       0.00000000 </v>
   <v>       0.38461538       0.07692308       0.00000000 </v>
   <v>       0.46153846       0.07692308       0.00000000 </v>
   <v>      -0.46153846       0.07692308       0.00000000 </v>
   <v>      -0.38461538       0.07692308       0.00000000 </v>
   <v>      -0.30769231       0.07692308       0.00000000 </v>
   <v>      -0.23076923       0.07692308       0.00000000 </v>
   <v>      -0.15384615       0.07692308       0.00000000 </v>
   <v>      -0.07692308       0.07692308       0.00000000 </v>
   <v>       0.15384615       0.15384615       0.00000000 </v>
   <v>       0.23076923       0.15384615       0.00000000 </v>
   <v>       0.30769231       0.15384615       0.00000000 </v>
   <v>       0.38461538       0.15384615       0.00000000 </v>
   <v>       0.46153846       0.15384615       0.00000000 </v>
   <v>      -0.46153846       0.15384615       0.00000000 </v>
   <v>      -0.38461538       0.15384615       0.00000000 </v>
   <v>      -0.30769231       0.15384615       0.00000000 </v>
   <v>      -0.23076923       0.15384615       0.00000000 </v>
   <v>      -0.15384615       0.15384615       0.00000000 </v>
   <v>       0.23076923       0.23076923       0.00000000 </v>
   <v>       0.30769231       0.23076923       0.00000000 </v>
   <v>       0.38461538       0.23076923       0.00000000 </v>
   <v>       0.46153846       0.23076923       0.00000000 </v>
   <v>      -0.46153846       0.23076923       0.00000000 </v>
   <v>      -0.38461538       0.23076923       0.00000000 </v>
   <v>      -0.30769231       0.23076923       0.00000000 </v>
   <v>      -0.23076923       0.23076923       0.00000000 </v>
   <v>       0.30769231       0.30769231       0.00000000 </v>
   <v>       0.38461538       0.30769231       0.00000000 </v>
   <v>       0.46153846       0.30769231       0.00000000 </v>
   <v>      -0.46153846       0.30769231       0.00000000 </v>
   <v>      -0.38461538       0.30769231       0.00000000 </v>
   <v>      -0.30769231       0.30769231       0.00000000 </v>
   <v>       0.38461538       0.38461538       0.00000000 </v>
   <v>       0.46153846       0.38461538       0.00000000 </v>
   <v>      -0.46153846       0.38461538       0.00000000 </v>
   <v>      -0.38461538       0.38461538       0.00000000 </v>
   <v>       0.46153846       0.46153846       0.00000000 </v>
   <v>      -0.46153846       0.46153846       0.00000000 </v>
   <v>       0.23076923       0.15384615       0.07692308 </v>
   <v>       0.30769231       0.15384615       0.07692308 </v>
   <v>       0.38461538       0.15384615       0.07692308 </v>
   <v>       0.46153846       0.15384615       0.07692308 </v>
   <v>      -0.46153846       0.15384615       0.07692308 </v>
   <v>       0.30769231       0.23076923       0.07692308 </v>
   <v>       0.38461538       0.23076923       0.07692308 </v>
   <v>       0.46153846       0.23076923       0.07692308 </v>
   <v>      -0.46153846       0.23076923       0.07692308 </v>
   <v>      -0.38461538       0.23076923       0.07692308 </v>
   <v>      -0.30769231       0.23076923       0.07692308 </v>
   <v>      -0.23076923       0.23076923       0.07692308 </v>
   <v>      -0.15384615       0.23076923       0.07692308 </v>
   <v>       0.38461538       0.30769231       0.07692308 </v>
   <v>       0.46153846       0.30769231       0.07692308 </v>
   <v>      -0.46153846       0.30769231       0.07692308 </v>
   <v>      -0.38461538       0.30769231       0.07692308 </v>
   <v>      -0.30769231       0.30769231       0.07692308 </v>
   <v>      -0.23076923       0.30769231       0.07692308 </v>
   <v>       0.46153846       0.38461538       0.07692308 </v>
   <v>      -0.46153846       0.38461538       0.07692308 </v>
   <v>      -0.38461538       0.38461538       0.07692308 </v>
   <v>      -0.30769231       0.38461538       0.07692308 </v>
   <v>      -0.46153846       0.46153846       0.07692308 </v>
   <v>      -0.38461538       0.46153846       0.07692308 </v>
   <v>       0.46153846       0.30769231       0.15384615 </v>
   <v>      -0.46153846       0.30769231       0.15384615 </v>
   <v>      -0.38461538       0.30769231       0.15384615 </v>
   <v>      -0.46153846       0.38461538       0.15384615 </v>
   <v>      -0.38461538       0.38461538       0.15384615 </v>
   <v>      -0.30769231       0.38461538       0.15384615 </v>
   <v>      -0.23076923       0.38461538       0.15384615 </v>
   <v>      -0.38461538       0.46153846       0.15384615 </v>
   <v>      -0.30769231       0.46153846       0.15384615 </v>
   <v>      -0.30769231       0.46153846       0.23076923 </v>
  </varray>
  <varray name="weights" >
   <v>       0.00045517 </v>
   <v>       0.00364133 </v>
   <v>       0.00364133 </v>
   <v>       0.00364133 </v>
   <v>       0.00364133 </v>
   <v>       0.00364133 </v>
   <v>       0.00364133 </v>
   <v>       0.00273100 </v>
   <v>       0.01092399 </v>
   <v>       0.01092399 </v>
   <v>       0.01092399 </v>
   <v>       0.01092399 </v>
   <v>       0.01092399 </v>
   <v>       0.01092399 </v>
   <v>       0.01092399 </v>
   <v>       0.01092399 </v>
   <v>       0.01092399 </v>
   <v>       0.01092399 </v>
   <v>       0.00546199 </v>
   <v>       0.00273100 </v>
   <v>       0.01092399 </v>
   <v>       0.01092399 </v>
   <v>       0.01092399 </v>
   <v>       0.01092399 </v>
   <v>       0.01092399 </v>
   <v>       0.01092399 </v>
   <v>       0.01092399 </v>
   <v>       0.01092399 </v>
   <v>       0.00546199 </v>
   <v>       0.00273100 </v>
   <v>       0.01092399 </v>
   <v>       0.01092399 </v>
   <v>       0.01092399 </v>
   <v>       0.01092399 </v>
   <v>       0.01092399 </v>
   <v>       0.01092399 </v>
   <v>       0.00546199 </v>
   <v>       0.00273100 </v>
   <v>       0.01092399 </v>
   <v>       0.01092399 </v>
   <v>       0.01092399 </v>
   <v>       0.01092399 </v>
   <v>       0.00546199 </v>
   <v>       0.00273100 </v>
   <v>       0.01092399 </v>
   <v>       0.01092399 </v>
   <v>       0.00546199 </v>
   <v>       0.00273100 </v>
   <v>       0.00546199 </v>
   <v>       0.01092399 </v>
   <v>       0.02184797 </v>
   <v>       0.02184797 </v>
   <v>       0.02184797 </v>
   <v>       0.02184797 </v>
   <v>       0.01092399 </v>
   <v>       0.02184797 </v>
   <v>       0.02184797 </v>
   <v>       0.02184797 </v>
   <v>       0.02184797 </v>
   <v>       0.02184797 </v>
   <v>       0.02184797 </v>
   <v>       0.01092399 </v>
   <v>       0.01092399 </v>
   <v>       0.02184797 </v>
   <v>       0.02184797 </v>
   <v>       0.02184797 </v>
   <v>       0.02184797 </v>
   <v>       0.01092399 </v>
   <v>       0.01092399 </v>
   <v>       0.02184797 </v>
   <v>       0.02184797 </v>
   <v>       0.01092399 </v>
   <v>       0.01092399 </v>
   <v>       0.01092399 </v>
   <v>       0.01092399 </v>
   <v>       0.02184797 </v>
   <v>       0.02184797 </v>
   <v>       0.01092399 </v>
   <v>       0.02184797 </v>
   <v>       0.02184797 </v>
   <v>       0.01092399 </v>
   <v>       0.01092399 </v>
   <v>       0.01092399 </v>
   <v>       0.01092399 </v>
  </varray>
  <varray name="tetrahedronlist"  type="int" >
   <v type="int" >       24        1        2        2        8 </v>
   <v type="int" >       48        2        8        9       19 </v>
   <v type="int" >       48        2        3        9       19 </v>
   <v type="int" >       24        2        2        8       19 </v>
   <v type="int" >       48        3        9       10       18 </v>
   <v type="int" >       48        3        4       10       18 </v>
   <v type="int" >       48        3        9       18       19 </v>
   <v type="int" >       48        4       10       11       17 </v>
   <v type="int" >       48        4        5       11       17 </v>
   <v type="int" >       48        4       10       17       18 </v>
   <v type="int" >       48        5       11       12       16 </v>
   <v type="int" >       48        5        6       12       16 </v>
   <v type="int" >       48        5       11       16       17 </v>
   <v type="int" >       48        6       12       13       15 </v>
   <v type="int" >       48        6        7       13       15 </v>
   <v type="int" >       48        6       12       15       16 </v>
   <v type="int" >       48        7       13       14       14 </v>
   <v type="int" >       24        7        7       14       14 </v>
   <v type="int" >       48        7       13       14       15 </v>
   <v type="int" >       24        8        9        9       20 </v>
   <v type="int" >       24        8        9        9       19 </v>
   <v type="int" >       48        9       20       21       50 </v>
   <v type="int" >       48        9       10       21       50 </v>
   <v type="int" >       48        9       10       18       50 </v>
   <v type="int" >       24        9        9       20       50 </v>
   <v type="int" >       24        9        9       19       50 </v>
   <v type="int" >       48        9       18       19       50 </v>
   <v type="int" >       48       10       21       22       51 </v>
   <v type="int" >       48       10       11       22       51 </v>
   <v type="int" >       48       10       11       17       51 </v>
   <v type="int" >       48       10       21       50       51 </v>
   <v type="int" >       48       10       18       50       51 </v>
   <v type="int" >       48       10       17       18       51 </v>
   <v type="int" >       48       11       22       23       52 </v>
   <v type="int" >       48       11       12       23       52 </v>
   <v type="int" >       48       11       12       16       52 </v>
   <v type="int" >       48       11       22       51       52 </v>
   <v type="int" >       48       11       17       51       52 </v>
   <v type="int" >       48       11       16       17       52 </v>
   <v type="int" >       48       12       23       24       53 </v>
   <v type="int" >       48       12       13       24       53 </v>
   <v type="int" >       48       12       13       15       53 </v>
   <v type="int" >       48       12       23       52       53 </v>
   <v type="int" >       48       12       16       52       53 </v>
   <v type="int" >       48       12       15       16       53 </v>
   <v type="int" >       48       13       24       25       54 </v>
   <v type="int" >       48       13       14       25       54 </v>
   <v type="int" >       48       13       14       14       54 </v>
   <v type="int" >       48       13       24       53       54 </v>
   <v type="int" >       48       13       15       53       54 </v>
   <v type="int" >       48       13       14       15       54 </v>
   <v type="int" >       48       14       25       26       54 </v>
   <v type="int" >       48       14       15       26       54 </v>
   <v type="int" >       48       14       25       54       54 </v>
   <v type="int" >       24       14       14       54       54 </v>
   <v type="int" >       48       15       26       27       53 </v>
   <v type="int" >       48       15       16       27       53 </v>
   <v type="int" >       48       15       26       53       54 </v>
   <v type="int" >       48       16       27       28       52 </v>
   <v type="int" >       48       16       17       28       52 </v>
   <v type="int" >       48       16       27       52       53 </v>
   <v type="int" >       48       17       28       29       51 </v>
   <v type="int" >       48       17       18       29       51 </v>
   <v type="int" >       48       17       28       51       52 </v>
   <v type="int" >       24       18       18       29       50 </v>
   <v type="int" >       24       18       18       19       50 </v>
   <v type="int" >       48       18       29       50       51 </v>
   <v type="int" >       24       20       21       21       30 </v>
   <v type="int" >       24       20       21       21       50 </v>
   <v type="int" >       48       21       30       31       55 </v>
   <v type="int" >       48       21       22       31       55 </v>
   <v type="int" >       48       21       22       51       55 </v>
   <v type="int" >       24       21       21       30       55 </v>
   <v type="int" >       24       21       21       50       55 </v>
   <v type="int" >       48       21       50       51       55 </v>
   <v type="int" >       48       22       31       32       56 </v>
   <v type="int" >       48       22       23       32       56 </v>
   <v type="int" >       48       22       23       52       56 </v>
   <v type="int" >       48       22       31       55       56 </v>
   <v type="int" >       48       22       51       55       56 </v>
   <v type="int" >       48       22       51       52       56 </v>
   <v type="int" >       48       23       32       33       57 </v>
   <v type="int" >       48       23       24       33       57 </v>
   <v type="int" >       48       23       24       53       57 </v>
   <v type="int" >       48       23       32       56       57 </v>
   <v type="int" >       48       23       52       56       57 </v>
   <v type="int" >       48       23       52       53       57 </v>
   <v type="int" >       48       24       33       34       58 </v>
   <v type="int" >       48       24       25       34       58 </v>
   <v type="int" >       48       24       25       54       58 </v>
   <v type="int" >       48       24       33       57       58 </v>
   <v type="int" >       48       24       53       57       58 </v>
   <v type="int" >       48       24       53       54       58 </v>
   <v type="int" >       48       25       34       35       59 </v>
   <v type="int" >       48       25       26       35       59 </v>
   <v type="int" >       48       25       26       54       59 </v>
   <v type="int" >       48       25       34       58       59 </v>
   <v type="int" >       48       25       54       58       59 </v>
   <v type="int" >       48       25       54       54       59 </v>
   <v type="int" >       48       26       35       36       60 </v>
   <v type="int" >       48       26       27       36       60 </v>
   <v type="int" >       48       26       27       53       60 </v>
   <v type="int" >       48       26       35       59       60 </v>
   <v type="int" >       48       26       54       59       60 </v>
   <v type="int" >       48       26       53       54       60 </v>
   <v type="int" >       48       27       36       37       61 </v>
   <v type="int" >       48       27       28       37       61 </v>
   <v type="int" >       48       27       28       52       61 </v>
   <v type="int" >       48       27       36       60       61 </v>
   <v type="int" >       48       27       53       60       61 </v>
   <v type="int" >       48       27       52       53       61 </v>
   <v type="int" >       24       28       28       37       62 </v>
   <v type="int" >       24       28       28       29       62 </v>
   <v type="int" >       48       28       29       51       62 </v>
   <v type="int" >       48       28       37       61       62 </v>
   <v type="int" >       48       28       52       61       62 </v>
   <v type="int" >       48       28       51       52       62 </v>
   <v type="int" >       24       29       51       51       62 </v>
   <v type="int" >       24       29       50       51       51 </v>
   <v type="int" >       24       30       31       31       38 </v>
   <v type="int" >       24       30       31       31       55 </v>
   <v type="int" >       48       31       38       39       63 </v>
   <v type="int" >       48       31       32       39       63 </v>
   <v type="int" >       48       31       32       56       63 </v>
   <v type="int" >       24       31       31       38       63 </v>
   <v type="int" >       24       31       31       55       63 </v>
   <v type="int" >       48       31       55       56       63 </v>
   <v type="int" >       48       32       39       40       64 </v>
   <v type="int" >       48       32       33       40       64 </v>
   <v type="int" >       48       32       33       57       64 </v>
   <v type="int" >       48       32       39       63       64 </v>
   <v type="int" >       48       32       56       63       64 </v>
   <v type="int" >       48       32       56       57       64 </v>
   <v type="int" >       48       33       40       41       65 </v>
   <v type="int" >       48       33       34       41       65 </v>
   <v type="int" >       48       33       34       58       65 </v>
   <v type="int" >       48       33       40       64       65 </v>
   <v type="int" >       48       33       57       64       65 </v>
   <v type="int" >       48       33       57       58       65 </v>
   <v type="int" >       48       34       41       42       66 </v>
   <v type="int" >       48       34       35       42       66 </v>
   <v type="int" >       48       34       35       59       66 </v>
   <v type="int" >       48       34       41       65       66 </v>
   <v type="int" >       48       34       58       65       66 </v>
   <v type="int" >       48       34       58       59       66 </v>
   <v type="int" >       48       35       42       43       67 </v>
   <v type="int" >       48       35       36       43       67 </v>
   <v type="int" >       48       35       36       60       67 </v>
   <v type="int" >       48       35       42       66       67 </v>
   <v type="int" >       48       35       59       66       67 </v>
   <v type="int" >       48       35       59       60       67 </v>
   <v type="int" >       24       36       36       43       68 </v>
   <v type="int" >       24       36       36       37       68 </v>
   <v type="int" >       48       36       37       61       68 </v>
   <v type="int" >       48       36       43       67       68 </v>
   <v type="int" >       48       36       60       67       68 </v>
   <v type="int" >       48       36       60       61       68 </v>
   <v type="int" >       24       37       61       61       68 </v>
   <v type="int" >       24       37       61       61       62 </v>
   <v type="int" >       24       38       39       39       44 </v>
   <v type="int" >       24       38       39       39       63 </v>
   <v type="int" >       48       39       44       45       69 </v>
   <v type="int" >       48       39       40       45       69 </v>
   <v type="int" >       48       39       40       64       69 </v>
   <v type="int" >       24       39       39       44       69 </v>
   <v type="int" >       24       39       39       63       69 </v>
   <v type="int" >       48       39       63       64       69 </v>
   <v type="int" >       48       40       45       46       70 </v>
   <v type="int" >       48       40       41       46       70 </v>
   <v type="int" >       48       40       41       65       70 </v>
   <v type="int" >       48       40       45       69       70 </v>
   <v type="int" >       48       40       64       69       70 </v>
   <v type="int" >       48       40       64       65       70 </v>
   <v type="int" >       48       41       46       47       71 </v>
   <v type="int" >       48       41       42       47       71 </v>
   <v type="int" >       48       41       42       66       71 </v>
   <v type="int" >       48       41       46       70       71 </v>
   <v type="int" >       48       41       65       70       71 </v>
   <v type="int" >       48       41       65       66       71 </v>
   <v type="int" >       24       42       42       47       72 </v>
   <v type="int" >       24       42       42       43       72 </v>
   <v type="int" >       48       42       43       67       72 </v>
   <v type="int" >       48       42       47       71       72 </v>
   <v type="int" >       48       42       66       71       72 </v>
   <v type="int" >       48       42       66       67       72 </v>
   <v type="int" >       24       43       67       67       72 </v>
   <v type="int" >       24       43       67       67       68 </v>
   <v type="int" >       24       44       45       45       48 </v>
   <v type="int" >       24       44       45       45       69 </v>
   <v type="int" >       48       45       48       49       73 </v>
   <v type="int" >       48       45       46       49       73 </v>
   <v type="int" >       48       45       46       70       73 </v>
   <v type="int" >       24       45       45       48       73 </v>
   <v type="int" >       24       45       45       69       73 </v>
   <v type="int" >       48       45       69       70       73 </v>
   <v type="int" >       24       46       46       49       74 </v>
   <v type="int" >       24       46       46       47       74 </v>
   <v type="int" >       48       46       47       71       74 </v>
   <v type="int" >       48       46       49       73       74 </v>
   <v type="int" >       48       46       70       73       74 </v>
   <v type="int" >       48       46       70       71       74 </v>
   <v type="int" >       24       47       71       71       74 </v>
   <v type="int" >       24       47       71       71       72 </v>
   <v type="int" >       12       48       48       49       49 </v>
   <v type="int" >       24       48       49       49       73 </v>
   <v type="int" >       12       49       49       73       73 </v>
   <v type="int" >       24       49       73       73       74 </v>
   <v type="int" >       24       50       51       51       55 </v>
   <v type="int" >       48       51       55       56       62 </v>
   <v type="int" >       48       51       52       56       62 </v>
   <v type="int" >       24       51       51       55       62 </v>
   <v type="int" >       48       52       56       57       61 </v>
   <v type="int" >       48       52       53       57       61 </v>
   <v type="int" >       48       52       56       61       62 </v>
   <v type="int" >       48       53       57       58       60 </v>
   <v type="int" >       48       53       54       58       60 </v>
   <v type="int" >       48       53       57       60       61 </v>
   <v type="int" >       48       54       58       59       59 </v>
   <v type="int" >       24       54       54       59       59 </v>
   <v type="int" >       48       54       58       59       60 </v>
   <v type="int" >       24       55       56       56       63 </v>
   <v type="int" >       24       55       56       56       62 </v>
   <v type="int" >       48       56       63       64       75 </v>
   <v type="int" >       48       56       57       64       75 </v>
   <v type="int" >       48       56       57       61       75 </v>
   <v type="int" >       24       56       56       63       75 </v>
   <v type="int" >       24       56       56       62       75 </v>
   <v type="int" >       48       56       61       62       75 </v>
   <v type="int" >       48       57       64       65       76 </v>
   <v type="int" >       48       57       58       65       76 </v>
   <v type="int" >       48       57       58       60       76 </v>
   <v type="int" >       48       57       64       75       76 </v>
   <v type="int" >       48       57       61       75       76 </v>
   <v type="int" >       48       57       60       61       76 </v>
   <v type="int" >       48       58       65       66       77 </v>
   <v type="int" >       48       58       59       66       77 </v>
   <v type="int" >       48       58       59       59       77 </v>
   <v type="int" >       48       58       65       76       77 </v>
   <v type="int" >       48       58       60       76       77 </v>
   <v type="int" >       48       58       59       60       77 </v>
   <v type="int" >       48       59       66       67       77 </v>
   <v type="int" >       48       59       60       67       77 </v>
   <v type="int" >       48       59       66       77       77 </v>
   <v type="int" >       24       59       59       77       77 </v>
   <v type="int" >       48       60       67       68       76 </v>
   <v type="int" >       48       60       61       68       76 </v>
   <v type="int" >       48       60       67       76       77 </v>
   <v type="int" >       24       61       61       68       75 </v>
   <v type="int" >       24       61       61       62       75 </v>
   <v type="int" >       48       61       68       75       76 </v>
   <v type="int" >       24       63       64       64       69 </v>
   <v type="int" >       24       63       64       64       75 </v>
   <v type="int" >       48       64       69       70       78 </v>
   <v type="int" >       48       64       65       70       78 </v>
   <v type="int" >       48       64       65       76       78 </v>
   <v type="int" >       24       64       64       69       78 </v>
   <v type="int" >       24       64       64       75       78 </v>
   <v type="int" >       48       64       75       76       78 </v>
   <v type="int" >       48       65       70       71       79 </v>
   <v type="int" >       48       65       66       71       79 </v>
   <v type="int" >       48       65       66       77       79 </v>
   <v type="int" >       48       65       70       78       79 </v>
   <v type="int" >       48       65       76       78       79 </v>
   <v type="int" >       48       65       76       77       79 </v>
   <v type="int" >       48       66       71       72       80 </v>
   <v type="int" >       48       66       67       72       80 </v>
   <v type="int" >       48       66       67       77       80 </v>
   <v type="int" >       48       66       71       79       80 </v>
   <v type="int" >       48       66       77       79       80 </v>
   <v type="int" >       48       66       77       77       80 </v>
   <v type="int" >       24       67       67       72       81 </v>
   <v type="int" >       24       67       67       68       81 </v>
   <v type="int" >       48       67       68       76       81 </v>
   <v type="int" >       48       67       72       80       81 </v>
   <v type="int" >       48       67       77       80       81 </v>
   <v type="int" >       48       67       76       77       81 </v>
   <v type="int" >       24       68       76       76       81 </v>
   <v type="int" >       24       68       75       76       76 </v>
   <v type="int" >       24       69       70       70       73 </v>
   <v type="int" >       24       69       70       70       78 </v>
   <v type="int" >       48       70       73       74       82 </v>
   <v type="int" >       48       70       71       74       82 </v>
   <v type="int" >       48       70       71       79       82 </v>
   <v type="int" >       24       70       70       73       82 </v>
   <v type="int" >       24       70       70       78       82 </v>
   <v type="int" >       48       70       78       79       82 </v>
   <v type="int" >       24       71       71       74       83 </v>
   <v type="int" >       24       71       71       72       83 </v>
   <v type="int" >       48       71       72       80       83 </v>
   <v type="int" >       48       71       74       82       83 </v>
   <v type="int" >       48       71       79       82       83 </v>
   <v type="int" >       48       71       79       80       83 </v>
   <v type="int" >       24       72       80       80       83 </v>
   <v type="int" >       24       72       80       80       81 </v>
   <v type="int" >       12       73       73       74       74 </v>
   <v type="int" >       24       73       74       74       82 </v>
   <v type="int" >       12       74       74       82       82 </v>
   <v type="int" >       24       74       82       82       83 </v>
   <v type="int" >       24       75       76       76       78 </v>
   <v type="int" >       48       76       78       79       81 </v>
   <v type="int" >       48       76       77       79       81 </v>
   <v type="int" >       24       76       76       78       81 </v>
   <v type="int" >       48       77       79       80       80 </v>
   <v type="int" >       24       77       77       80       80 </v>
   <v type="int" >       48       77       79       80       81 </v>
   <v type="int" >       24       78       79       79       82 </v>
   <v type="int" >       24       78       79       79       81 </v>
   <v type="int" >       48       79       82       83       84 </v>
   <v type="int" >       48       79       80       83       84 </v>
   <v type="int" >       48       79       80       80       84 </v>
   <v type="int" >       24       79       79       82       84 </v>
   <v type="int" >       24       79       79       81       84 </v>
   <v type="int" >       48       79       80       81       84 </v>
   <v type="int" >       24       80       80       83       84 </v>
   <v type="int" >       24       80       80       81       84 </v>
   <v type="int" >       48       80       83       84       84 </v>
   <v type="int" >       24       80       80       84       84 </v>
   <v type="int" >       12       82       82       83       83 </v>
   <v type="int" >       24       82       83       83       84 </v>
   <v type="int" >       12       83       83       84       84 </v>
   <v type="int" >       24       83       84       84       84 </v>
   <v type="int" >        6       84       84       84       84 </v>
  </varray>
  <i name="volumeweight">      0.00007586 </i>
 </kpoints>
 <parameters>
  <separator name="general" >
   <i type="string" name="SYSTEM">unknown system</i>
   <i type="logical" name="LCOMPAT"> F  </i>
  </separator>
  <separator name="electronic" >
   <i type="string" name="PREC">accura</i>
   <i name="ENMAX">    520.00000000</i>
   <i name="ENAUG">    291.05200000</i>
   <i name="EDIFF">      0.00005000</i>
   <i type="int" name="IALGO">    68</i>
   <i type="int" name="IWAVPR">    10</i>
   <i type="int" name="NBANDS">    48</i>
   <i type="int" name="NBANDSLOW">    -1</i>
   <i type="int" name="NBANDSHIGH">    -1</i>
   <i name="NELECT">      3.00000000</i>
   <i type="int" name="TURBO">     0</i>
   <i type="int" name="IRESTART">     0</i>
   <i type="int" name="NREBOOT">     0</i>
   <i type="int" name="NMIN">     0</i>
   <i name="EREF">      0.00000000</i>
   <separator name="electronic smearing" >
    <i type="int" name="ISMEAR">    -5</i>
    <i name="SIGMA">      0.05000000</i>
    <i name="KSPACING">      0.50000000</i>
    <i type="logical" name="KGAMMA"> T  </i>
    <i type="logical" name="KBLOWUP"> T  </i>
   </separator>
   <separator name="electronic projectors" >
    <i type="logical" name="LREAL"> F  </i>
    <v name="ROPT">      0.00000000</v>
    <i type="int" name="LMAXPAW">  -100</i>
    <i type="int" name="LMAXMIX">     2</i>
    <i type="logical" name="NLSPLINE"> F  </i>
   </separator>
   <separator name="electronic startup" >
    <i type="int" name="ISTART">     0</i>
    <i type="int" name="ICHARG">     2</i>
    <i type="int" name="INIWAV">     1</i>
   </separator>
   <separator name="electronic spin" >
    <i type="int" name="ISPIN">     2</i>
    <i type="logical" name="LNONCOLLINEAR"> F  </i>
    <v name="MAGMOM">      0.60000000</v>
    <i name="NUPDOWN">     -1.00000000</i>
    <i type="logical" name="LSORBIT"> F  </i>
    <v name="SAXIS">      0.00000000      0.00000000      1.00000000</v>
    <i type="logical" name="LSPIRAL"> F  </i>
    <v name="QSPIRAL">      0.00000000      0.00000000      0.00000000</v>
    <i type="logical" name="LZEROZ"> F  </i>
   </separator>
   <separator name="electronic exchange-correlation" >
    <i type="logical" name="LASPH"> T  </i>
    <i type="logical" name="LMETAGGA"> F  </i>
   </separator>
   <separator name="electronic convergence" >
    <i type="int" name="NELM">   100</i>
    <i type="int" name="NELMDL">    -5</i>
    <i type="int" name="NELMIN">     2</i>
    <i name="ENINI">    520.00000000</i>
    <separator name="electronic convergence detail" >
     <i type="logical" name="LDIAG"> T  </i>
     <i type="logical" name="LSUBROT"> F  </i>
     <i name="WEIMIN">      0.00000000</i>
     <i name="EBREAK">      0.00000026</i>
     <i name="DEPER">      0.30000000</i>
     <i type="int" name="NRMM">     4</i>
     <i name="TIME">      0.40000000</i>
    </separator>
   </separator>
   <separator name="electronic mixer" >
    <i name="AMIX">      0.40000000</i>
    <i name="BMIX">      1.00000000</i>
    <i name="AMIN">      0.10000000</i>
    <i name="AMIX_MAG">      1.60000000</i>
    <i name="BMIX_MAG">      1.00000000</i>
    <separator name="electronic mixer details" >
     <i type="int" name="IMIX">     4</i>
     <i type="logical" name="MIXFIRST"> F  </i>
     <i type="int" name="MAXMIX">   -45</i>
     <i name="WC">    100.00000000</i>
     <i type="int" name="INIMIX">     1</i>
     <i type="int" name="MIXPRE">     1</i>
     <i type="int" name="MREMOVE">     5</i>
    </separator>
   </separator>
   <separator name="electronic dipolcorrection" >
    <i type="logical" name="LDIPOL"> F  </i>
    <i type="logical" name="LMONO"> F  </i>
    <i type="int" name="IDIPOL">     0</i>
    <i name="EPSILON">      1.00000000</i>
    <v name="DIPOL">   -100.00000000   -100.00000000   -100.00000000</v>
    <i name="EFIELD">      0.00000000</i>
   </separator>
  </separator>
  <separator name="grids" >
   <i type="int" name="NGX">    24</i>
   <i type="int" name="NGY">    24</i>
   <i type="int" name="NGZ">    24</i>
   <i type="int" name="NGXF">    48</i>
   <i type="int" name="NGYF">    48</i>
   <i type="int" name="NGZF">    48</i>
   <i type="logical" name="ADDGRID"> F  </i>
  </separator>
  <separator name="ionic" >
   <i type="int" name="NSW">     0</i>
   <i type="int" name="IBRION">    -1</i>
   <i type="int" name="MDALGO">     0</i>
   <i type="int" name="ISIF">     2</i>
   <i name="PSTRESS">      0.00000000</i>
   <i name="EDIFFG">      0.00050000</i>
   <i type="int" name="NFREE">     0</i>
   <i name="POTIM">      0.50000000</i>
   <i name="SMASS">     -3.00000000</i>
   <i name="SCALEE">      1.00000000</i>
  </separator>
  <separator name="ionic md" >
   <i name="TEBEG">      0.00010000</i>
   <i name="TEEND">      0.00010000</i>
   <i type="int" name="NBLOCK">     1</i>
   <i type="int" name="KBLOCK">     1</i>
   <i type="int" name="NPACO">   256</i>
   <i name="APACO">     16.00000000</i>
  </separator>
  <separator name="symmetry" >
   <i type="int" name="ISYM">     2</i>
   <i name="SYMPREC">      0.00001000</i>
  </separator>
  <separator name="dos" >
   <i type="int" name="LORBIT">    11</i>
   <v name="RWIGS">     -1.00000000</v>
   <i type="int" name="NEDOS">   301</i>
   <i name="EMIN">     10.00000000</i>
   <i name="EMAX">    -10.00000000</i>
   <i name="EFERMI">      0.00000000</i>
  </separator>
  <separator name="writing" >
   <i type="int" name="NWRITE">     2</i>
   <i type="logical" name="LWAVE"> F  </i>
   <i type="logical" name="LDOWNSAMPLE"> F  </i>
   <i type="logical" name="LCHARG"> T  </i>
   <i type="logical" name="LPARD"> F  </i>
   <i type="logical" name="LVTOT"> F  </i>
   <i type="logical" name="LVHAR"> F  </i>
   <i type="logical" name="LELF"> F  </i>
   <i type="logical" name="LOPTICS"> F  </i>
   <v name="STM">      0.00000000      0.00000000      0.00000000      0.00000000      0.00000000      0.00000000      0.00000000</v>
  </separator>
  <separator name="performance" >
   <i type="int" name="NPAR">    48</i>
   <i type="int" name="NSIM">     4</i>
   <i type="int" name="NBLK">    -1</i>
   <i type="logical" name="LPLANE"> T  </i>
   <i type="logical" name="LSCALAPACK"> T  </i>
   <i type="logical" name="LSCAAWARE"> T  </i>
   <i type="logical" name="LSCALU"> F  </i>
   <i type="logical" name="LASYNC"> F  </i>
   <i type="logical" name="LORBITALREAL"> F  </i>
  </separator>
  <separator name="miscellaneous" >
   <i type="int" name="IDIOT">     3</i>
   <i type="int" name="PHON_NSTRUCT">    -1</i>
   <i type="logical" name="LMUSIC"> F  </i>
   <v name="POMASS">     26.98100000</v>
   <v name="DARWINR">      0.00000000</v>
   <v name="DARWINV">      1.00000000</v>
   <i type="logical" name="LCORR"> T  </i>
  </separator>
  <i type="logical" name="GGA_COMPAT"> T  </i>
  <i type="logical" name="LBERRY"> F  </i>
  <i type="int" name="ICORELEVEL">     0</i>
  <i type="logical" name="LDAU"> F  </i>
  <i type="int" name="I_CONSTRAINED_M">     0</i>
  <separator name="electronic exchange-correlation" >
   <i type="string" name="GGA">--</i>
   <i type="int" name="VOSKOWN">     0</i>
   <i type="logical" name="LHFCALC"> F  </i>
   <i type="string" name="PRECFOCK"></i>
   <i type="logical" name="LSYMGRAD"> F  </i>
   <i type="logical" name="LHFONE"> F  </i>
   <i type="logical" name="LRHFCALC"> F  </i>
   <i type="logical" name="LTHOMAS"> F  </i>
   <i type="logical" name="LMODELHF"> F  </i>
   <i type="logical" name="LFOCKACE"> F  </i>
   <i name="ENCUT4O">     -1.00000000</i>
   <i type="int" name="EXXOEP">     0</i>
   <i type="int" name="FOURORBIT">     0</i>
   <i name="AEXX">      0.00000000</i>
   <i name="HFALPHA">      0.00000000</i>
   <i name="MCALPHA">      0.00000000</i>
   <i name="ALDAX">      1.00000000</i>
   <i name="AGGAX">      1.00000000</i>
   <i name="ALDAC">      1.00000000</i>
   <i name="AGGAC">      1.00000000</i>
   <i type="int" name="NKREDX">     1</i>
   <i type="int" name="NKREDY">     1</i>
   <i type="int" name="NKREDZ">     1</i>
   <i type="logical" name="SHIFTRED"> F  </i>
   <i type="logical" name="ODDONLY"> F  </i>
   <i type="logical" name="EVENONLY"> F  </i>
   <i type="int" name="LMAXFOCK">     0</i>
   <i type="int" name="NMAXFOCKAE">     0</i>
   <i type="logical" name="LFOCKAEDFT"> F  </i>
   <i name="HFSCREEN">      0.00000000</i>
   <i name="HFSCREENC">      0.00000000</i>
   <i type="int" name="NBANDSGWLOW">     0</i>
  </separator>
  <separator name="vdW DFT" >
   <i type="logical" name="LUSE_VDW"> F  </i>
   <i name="Zab_VDW">     -0.84910000</i>
   <i name="PARAM1">      0.12340000</i>
   <i name="PARAM2">      1.00000000</i>
   <i name="PARAM3">      0.00000000</i>
  </separator>
  <separator name="model GW" >
   <i type="int" name="MODEL_GW">     0</i>
   <i name="MODEL_EPS0">      9.94976379</i>
   <i name="MODEL_ALPHA">      1.00000000</i>
  </separator>
  <separator name="linear response parameters" >
   <i type="logical" name="LEPSILON"> F  </i>
   <i type="logical" name="LRPA"> F  </i>
   <i type="logical" name="LNABLA"> F  </i>
   <i type="logical" name="LVEL"> F  </i>
   <i type="int" name="KINTER">     0</i>
   <i name="CSHIFT">      0.10000000</i>
   <i name="OMEGAMAX">     -1.00000000</i>
   <i name="DEG_THRESHOLD">      0.00200000</i>
   <i name="RTIME">     -0.10000000</i>
   <i name="WPLASMAI">      0.00000000</i>
   <v name="DFIELD">      0.00000000      0.00000000      0.00000000</v>
   <v name="WPLASMA">      0.00000000      0.00000000      0.00000000      0.00000000      0.00000000      0.00000000      0.00000000      0.00000000      0.00000000</v>
  </separator>
  <separator name="orbital magnetization" >
   <i type="logical" name="NUCIND"> F  </i>
   <v name="MAGPOS">      0.00000000      0.00000000      0.00000000</v>
   <i type="logical" name="LNICSALL"> T  </i>
   <i type="logical" name="ORBITALMAG"> F  </i>
   <i type="logical" name="LMAGBLOCH"> F  </i>
   <i type="logical" name="LCHIMAG"> F  </i>
   <i type="logical" name="LGAUGE"> T  </i>
   <i type="int" name="MAGATOM">     0</i>
   <v name="MAGDIPOL">      0.00000000      0.00000000      0.00000000</v>
   <v name="AVECCONST">      0.00000000      0.00000000      0.00000000</v>
  </separator>
  <separator name="response functions" >
   <i type="logical" name="LFINITE_TEMPERATURE"> F  </i>
   <i type="logical" name="LADDER"> F  </i>
   <i type="logical" name="LRPAFORCE"> F  </i>
   <i type="logical" name="LFXC"> F  </i>
   <i type="logical" name="LHARTREE"> T  </i>
   <i type="int" name="IBSE">     0</i>
   <v type="int" name="KPOINT">    -1     0     0     0</v>
   <i type="logical" name="LTCTC"> F  </i>
   <i type="logical" name="LTCTE"> F  </i>
   <i type="logical" name="LTETE"> F  </i>
   <i type="logical" name="LTRIPLET"> F  </i>
   <i type="logical" name="LFXCEPS"> F  </i>
   <i type="logical" name="LFXHEG"> F  </i>
   <i type="int" name="NATURALO">     2</i>
   <i type="logical" name="LHOLEGF"> F  </i>
   <i type="logical" name="L2ORDER"> F  </i>
   <i type="logical" name="LDMP1"> F  </i>
   <i type="logical" name="LMP2LT"> F  </i>
   <i type="logical" name="LSMP2LT"> F  </i>
   <i type="logical" name="LGWLF"> F  </i>
   <i name="ENCUTGW">     -2.00000000</i>
   <i name="ENCUTGWSOFT">     -2.00000000</i>
   <i name="ENCUTLF">     -1.00000000</i>
   <i type="logical" name="LESF_SPLINES"> F  </i>
   <i type="int" name="LMAXMP2">    -1</i>
   <i name="SCISSOR">      0.00000000</i>
   <i type="int" name="NOMEGA">     0</i>
   <i type="int" name="NOMEGAR">     0</i>
   <i type="int" name="NBANDSGW">    -1</i>
   <i type="int" name="NBANDSO">    -1</i>
   <i type="int" name="NBANDSV">    -1</i>
   <i type="int" name="NELM">   100</i>
   <i type="int" name="NELMHF">     1</i>
   <i type="int" name="DIM">     3</i>
   <i type="int" name="IESPILON">     4</i>
   <i type="int" name="ANTIRES">     0</i>
   <i name="OMEGAMAX">    -30.00000000</i>
   <i name="OMEGAMIN">    -30.00000000</i>
   <i name="OMEGATL">   -200.00000000</i>
   <i type="int" name="OMEGAGRID">     0</i>
   <i name="CSHIFT">     -0.10000000</i>
   <i type="logical" name="LSELFENERGY"> F  </i>
   <i type="logical" name="LSPECTRAL"> F  </i>
   <i type="logical" name="LSPECTRALGW"> F  </i>
   <i type="logical" name="LSINGLES"> F  </i>
   <i type="logical" name="LFERMIGW"> F  </i>
   <i type="logical" name="ODDONLYGW"> F  </i>
   <i type="logical" name="EVENONLYGW"> F  </i>
   <i type="int" name="NKREDLFX">     1</i>
   <i type="int" name="NKREDLFY">     1</i>
   <i type="int" name="NKREDLFZ">     1</i>
   <i type="int" name="MAXMEM">  2800</i>
   <i type="int" name="TELESCOPE">     0</i>
   <i type="int" name="NTAUPAR">    -1</i>
   <i type="int" name="NOMEGAPAR">    -1</i>
   <i name="DAMP_NEWTON">      0.80000001</i>
   <i name="LAMBDA">      1.00000000</i>
  </separator>
  <separator name="External order field" >
   <i name="OFIELD_KAPPA">      0.00000000</i>
   <v name="OFIELD_K">      0.00000000      0.00000000      0.00000000</v>
   <i name="OFIELD_Q6_NEAR">      0.00000000</i>
   <i name="OFIELD_Q6_FAR">      0.00000000</i>
   <i name="OFIELD_A">      0.00000000</i>
  </separator>
 </parameters>
 <atominfo>
  <atoms>       1 </atoms>
  <types>       1 </types>
  <array name="atoms" >
   <dimension dim="1">ion</dimension>
   <field type="string">element</field>
   <field type="int">atomtype</field>
   <set>
    <rc><c>Al</c><c>   1</c></rc>
   </set>
  </array>
  <array name="atomtypes" >
   <dimension dim="1">type</dimension>
   <field type="int">atomspertype</field>
   <field type="string">element</field>
   <field>mass</field>
   <field>valence</field>
   <field type="string">pseudopotential</field>
   <set>
    <rc><c>   1</c><c>Al</c><c>     26.98100000</c><c>      3.00000000</c><c>  PAW_PBE Al 04Jan2001                  </c></rc>
   </set>
  </array>
 </atominfo>
 <structure name="initialpos" >
  <crystal>
   <varray name="basis" >
    <v>       0.00000000       2.02400000       2.02400000 </v>
    <v>       2.02400000       0.00000000       2.02400000 </v>
    <v>       2.02400000       2.02400000       0.00000000 </v>
   </varray>
   <i name="volume">     16.58293965 </i>
   <varray name="rec_basis" >
    <v>      -0.24703557       0.24703557       0.24703557 </v>
    <v>       0.24703557      -0.24703557       0.24703557 </v>
    <v>       0.24703557       0.24703557      -0.24703557 </v>
   </varray>
  </crystal>
  <varray name="positions" >
   <v>       0.00000000       0.00000000       0.00000000 </v>
  </varray>
 </structure>
 <calculation>
  <scstep>
   <time name="dav">   12.82   12.82</time>
   <time name="total">   13.06   13.07</time>
   <energy>
    <i name="alphaZ">     -0.20254611 </i>
    <i name="ewald">    -73.39295237 </i>
    <i name="hartreedc">     -0.10329695 </i>
    <i name="XCdc">    -26.19545267 </i>
    <i name="pawpsdc">     66.16230985 </i>
    <i name="pawaedc">    -34.20858819 </i>
    <i name="eentropy">      0.00000000 </i>
    <i name="bandstr">     10.77049509 </i>
    <i name="atom">     53.53845706 </i>
    <i name="e_fr_energy">     -3.63157429 </i>
    <i name="e_wo_entrp">     -3.63157429 </i>
    <i name="e_0_energy">     -3.63157429 </i>
   </energy>
  </scstep>
  <scstep>
   <time name="dav">   11.31   11.31</time>
   <time name="total">   11.39   11.39</time>
   <energy>
    <i name="e_fr_energy">     -3.68288787 </i>
    <i name="e_wo_entrp">     -3.68288787 </i>
    <i name="e_0_energy">     -3.68288787 </i>
   </energy>
  </scstep>
  <scstep>
   <time name="dav">   17.50   17.50</time>
   <time name="total">   17.57   17.58</time>
   <energy>
    <i name="e_fr_energy">     -3.68289020 </i>
    <i name="e_wo_entrp">     -3.68289020 </i>
    <i name="e_0_energy">     -3.68289020 </i>
   </energy>
  </scstep>
  <scstep>
   <time name="dav">   16.32   16.32</time>
   <time name="total">   16.39   16.39</time>
   <energy>
    <i name="e_fr_energy">     -3.68289019 </i>
    <i name="e_wo_entrp">     -3.68289019 </i>
    <i name="e_0_energy">     -3.68289019 </i>
   </energy>
  </scstep>
  <scstep>
   <time name="dav">   16.41   16.41</time>
   <time name="total">   16.53   16.53</time>
   <energy>
    <i name="e_fr_energy">     -3.68289020 </i>
    <i name="e_wo_entrp">     -3.68289020 </i>
    <i name="e_0_energy">     -3.68289020 </i>
   </energy>
  </scstep>
  <scstep>
   <time name="diag">    0.52    0.52</time>
   <time name="diis">    0.31    0.31</time>
   <time name="orth">    0.07    0.07</time>
   <time name="total">    1.18    1.18</time>
   <energy>
    <i name="e_fr_energy">     -3.75309129 </i>
    <i name="e_wo_entrp">     -3.75309129 </i>
    <i name="e_0_energy">     -3.75309129 </i>
   </energy>
  </scstep>
  <scstep>
   <time name="diag">    0.51    0.51</time>
   <time name="diis">    0.37    0.37</time>
   <time name="orth">    0.07    0.07</time>
   <time name="total">    1.23    1.23</time>
   <energy>
    <i name="e_fr_energy">     -3.74465273 </i>
    <i name="e_wo_entrp">     -3.74465273 </i>
    <i name="e_0_energy">     -3.74465273 </i>
   </energy>
  </scstep>
  <scstep>
   <time name="diag">    0.52    0.52</time>
   <time name="diis">    0.38    0.38</time>
   <time name="orth">    0.07    0.07</time>
   <time name="total">    1.25    1.25</time>
   <energy>
    <i name="e_fr_energy">     -3.74442289 </i>
    <i name="e_wo_entrp">     -3.74442289 </i>
    <i name="e_0_energy">     -3.74442289 </i>
   </energy>
  </scstep>
  <scstep>
   <time name="diag">    0.53    0.53</time>
   <time name="diis">    0.47    0.47</time>
   <time name="orth">    0.07    0.07</time>
   <time name="total">    1.31    1.31</time>
   <energy>
    <i name="alphaZ">     -0.20254611 </i>
    <i name="ewald">    -73.39295237 </i>
    <i name="hartreedc">     -0.10461776 </i>
    <i name="XCdc">    -26.14032650 </i>
    <i name="pawpsdc">    145.49134779 </i>
    <i name="pawaedc">   -113.54635444 </i>
    <i name="eentropy">      0.00000000 </i>
    <i name="bandstr">     10.61257229 </i>
    <i name="atom">     53.53845706 </i>
    <i name="e_fr_energy">     -3.74442005 </i>
    <i name="e_wo_entrp">     -3.74442005 </i>
    <i name="e_0_energy">     -3.74442005 </i>
   </energy>
  </scstep>
  <structure>
   <crystal>
    <varray name="basis" >
     <v>       0.00000000       2.02400000       2.02400000 </v>
     <v>       2.02400000       0.00000000       2.02400000 </v>
     <v>       2.02400000       2.02400000       0.00000000 </v>
    </varray>
    <i name="volume">     16.58293965 </i>
    <varray name="rec_basis" >
     <v>      -0.24703557       0.24703557       0.24703557 </v>
     <v>       0.24703557      -0.24703557       0.24703557 </v>
     <v>       0.24703557       0.24703557      -0.24703557 </v>
    </varray>
   </crystal>
   <varray name="positions" >
    <v>       0.00000000       0.00000000       0.00000000 </v>
   </varray>
  </structure>
  <varray name="forces" >
   <v>      -0.00000000      -0.00000000       0.00000000 </v>
  </varray>
  <varray name="stress" >
   <v>     -10.21433994       0.00000000      -0.00000000 </v>
   <v>      -0.00000000     -10.21433994      -0.00000000 </v>
   <v>       0.00000000       0.00000000     -10.21433994 </v>
  </varray>
  <energy>
   <i name="e_fr_energy">     -3.74442005 </i>
   <i name="e_wo_entrp">     -3.74442005 </i>
   <i name="e_0_energy">     -3.74442005 </i>
  </energy>
  <time name="totalsc">   80.70   80.72</time>
  <eigenvalues>
   <array>
    <dimension dim="1">band</dimension>
    <dimension dim="2">kpoint</dimension>
    <dimension dim="3">spin</dimension>
    <field>eigene</field>
    <field>occ</field>
    <set>
     <set comment="spin 1">
      <set comment="kpoint 1">
       <r>   -3.1515    1.0000 </r>
       <r>   20.5401    0.0000 </r>
       <r>   20.5401    0.0000 </r>
       <r>   20.5401    0.0000 </r>
       <r>   21.9944    0.0000 </r>
       <r>   21.9944    0.0000 </r>
       <r>   21.9944    0.0000 </r>
       <r>   24.3777    0.0000 </r>
       <r>   27.3145    0.0000 </r>
       <r>   27.3145    0.0000 </r>
       <r>   30.1609    0.0000 </r>
       <r>   32.5110    0.0000 </r>
       <r>   32.5110    0.0000 </r>
       <r>   32.5110    0.0000 </r>
       <r>   41.0621    0.0000 </r>
       <r>   56.0153    0.0000 </r>
       <r>   56.0153    0.0000 </r>
       <r>   56.0153    0.0000 </r>
       <r>   56.0510    0.0000 </r>
       <r>   59.2132    0.0000 </r>
       <r>   59.2132    0.0000 </r>
       <r>   59.2132    0.0000 </r>
       <r>   62.8336    0.0000 </r>
       <r>   62.8336    0.0000 </r>
       <r>   65.0771    0.0000 </r>
       <r>   65.0771    0.0000 </r>
       <r>   65.0771    0.0000 </r>
       <r>   73.1778    0.0000 </r>
       <r>   73.1778    0.0000 </r>
       <r>   73.1778    0.0000 </r>
       <r>   80.8191    0.0000 </r>
       <r>   83.0773    0.0000 </r>
       <r>   83.0773    0.0000 </r>
       <r>   87.2059    0.0000 </r>
       <r>   87.2059    0.0000 </r>
       <r>   87.2059    0.0000 </r>
       <r>   90.0887    0.0000 </r>
       <r>   90.0887    0.0000 </r>
       <r>   90.0887    0.0000 </r>
       <r>   90.8970    0.0000 </r>
       <r>   93.4602    0.0000 </r>
       <r>   93.4602    0.0000 </r>
       <r>   93.4602    0.0000 </r>
       <r>   93.9351    0.0000 </r>
       <r>   93.9351    0.0000 </r>
       <r>   93.9351    0.0000 </r>
       <r>   96.3744    0.0000 </r>
       <r>   96.3744    0.0000 </r>
      </set>
      <set comment="kpoint 2">
       <r>   -2.9912    1.0000 </r>
       <r>   18.1805    0.0000 </r>
       <r>   20.0248    0.0000 </r>
       <r>   20.0248    0.0000 </r>
       <r>   22.6600    0.0000 </r>
       <r>   22.7556    0.0000 </r>
       <r>   22.7556    0.0000 </r>
       <r>   25.9600    0.0000 </r>
       <r>   26.4621    0.0000 </r>
       <r>   26.4621    0.0000 </r>
       <r>   29.5983    0.0000 </r>
       <r>   33.3102    0.0000 </r>
       <r>   33.6880    0.0000 </r>
       <r>   33.6880    0.0000 </r>
       <r>   41.6983    0.0000 </r>
       <r>   55.4465    0.0000 </r>
       <r>   55.7822    0.0000 </r>
       <r>   55.7822    0.0000 </r>
       <r>   56.3227    0.0000 </r>
       <r>   57.6108    0.0000 </r>
       <r>   57.6108    0.0000 </r>
       <r>   59.2157    0.0000 </r>
       <r>   61.6535    0.0000 </r>
       <r>   61.6535    0.0000 </r>
       <r>   65.2207    0.0000 </r>
       <r>   68.2053    0.0000 </r>
       <r>   68.2053    0.0000 </r>
       <r>   71.9207    0.0000 </r>
       <r>   73.0314    0.0000 </r>
       <r>   73.0314    0.0000 </r>
       <r>   82.1696    0.0000 </r>
       <r>   82.1976    0.0000 </r>
       <r>   82.1976    0.0000 </r>
       <r>   84.4181    0.0000 </r>
       <r>   86.1112    0.0000 </r>
       <r>   86.1112    0.0000 </r>
       <r>   88.4695    0.0000 </r>
       <r>   88.4695    0.0000 </r>
       <r>   89.6942    0.0000 </r>
       <r>   90.1841    0.0000 </r>
       <r>   91.6150    0.0000 </r>
       <r>   91.6150    0.0000 </r>
       <r>   92.6703    0.0000 </r>
       <r>   95.3964    0.0000 </r>
       <r>   95.3964    0.0000 </r>
       <r>   96.0146    0.0000 </r>
       <r>   96.5481    0.0000 </r>
       <r>   96.5481    0.0000 </r>
      </set>
      <set comment="kpoint 3">
       <r>   -2.5114    1.0000 </r>
       <r>   15.0807    0.0000 </r>
       <r>   19.3555    0.0000 </r>
       <r>   19.3555    0.0000 </r>
       <r>   22.5282    0.0000 </r>
       <r>   23.8956    0.0000 </r>
       <r>   23.8956    0.0000 </r>
       <r>   25.1926    0.0000 </r>
       <r>   25.1926    0.0000 </r>
       <r>   28.3926    0.0000 </r>
       <r>   28.9047    0.0000 </r>
       <r>   35.4017    0.0000 </r>
       <r>   36.1831    0.0000 </r>
       <r>   36.1831    0.0000 </r>
       <r>   43.3646    0.0000 </r>
       <r>   53.1070    0.0000 </r>
       <r>   53.1070    0.0000 </r>
       <r>   54.3769    0.0000 </r>
       <r>   56.4529    0.0000 </r>
       <r>   56.4529    0.0000 </r>
       <r>   56.4898    0.0000 </r>
       <r>   59.0315    0.0000 </r>
       <r>   61.6110    0.0000 </r>
       <r>   61.6110    0.0000 </r>
       <r>   65.6467    0.0000 </r>
       <r>   69.6939    0.0000 </r>
       <r>   71.2612    0.0000 </r>
       <r>   71.2612    0.0000 </r>
       <r>   73.2074    0.0000 </r>
       <r>   73.2074    0.0000 </r>
       <r>   79.7385    0.0000 </r>
       <r>   79.7385    0.0000 </r>
       <r>   80.0004    0.0000 </r>
       <r>   83.8622    0.0000 </r>
       <r>   83.8622    0.0000 </r>
       <r>   85.9820    0.0000 </r>
       <r>   86.0539    0.0000 </r>
       <r>   86.6523    0.0000 </r>
       <r>   86.6523    0.0000 </r>
       <r>   88.4711    0.0000 </r>
       <r>   89.6286    0.0000 </r>
       <r>   90.2957    0.0000 </r>
       <r>   90.2957    0.0000 </r>
       <r>   94.0247    0.0000 </r>
       <r>   97.0083    0.0000 </r>
       <r>   97.0083    0.0000 </r>
       <r>   98.8579    0.0000 </r>
       <r>   98.8579    0.0000 </r>
      </set>
      <set comment="kpoint 4">
       <r>   -1.7153    1.0000 </r>
       <r>   12.0935    0.0000 </r>
       <r>   18.8959    0.0000 </r>
       <r>   18.8959    0.0000 </r>
       <r>   22.2968    0.0000 </r>
       <r>   23.0042    0.0000 </r>
       <r>   23.0042    0.0000 </r>
       <r>   26.3035    0.0000 </r>
       <r>   26.3035    0.0000 </r>
       <r>   26.9994    0.0000 </r>
       <r>   31.8033    0.0000 </r>
       <r>   38.5154    0.0000 </r>
       <r>   39.1746    0.0000 </r>
       <r>   39.1746    0.0000 </r>
       <r>   45.6555    0.0000 </r>
       <r>   49.2841    0.0000 </r>
       <r>   49.2841    0.0000 </r>
       <r>   52.8611    0.0000 </r>
       <r>   56.3699    0.0000 </r>
       <r>   56.3699    0.0000 </r>
       <r>   56.6666    0.0000 </r>
       <r>   58.4359    0.0000 </r>
       <r>   61.9665    0.0000 </r>
       <r>   61.9665    0.0000 </r>
       <r>   66.3353    0.0000 </r>
       <r>   67.5242    0.0000 </r>
       <r>   69.6510    0.0000 </r>
       <r>   69.6510    0.0000 </r>
       <r>   74.5948    0.0000 </r>
       <r>   74.5948    0.0000 </r>
       <r>   77.1374    0.0000 </r>
       <r>   78.8079    0.0000 </r>
       <r>   78.8079    0.0000 </r>
       <r>   81.0439    0.0000 </r>
       <r>   81.0439    0.0000 </r>
       <r>   81.4970    0.0000 </r>
       <r>   82.7896    0.0000 </r>
       <r>   87.0761    0.0000 </r>
       <r>   87.0761    0.0000 </r>
       <r>   88.8079    0.0000 </r>
       <r>   89.6824    0.0000 </r>
       <r>   89.6824    0.0000 </r>
       <r>   89.8659    0.0000 </r>
       <r>   93.3933    0.0000 </r>
       <r>   97.3571    0.0000 </r>
       <r>   97.3571    0.0000 </r>
       <r>  101.0396    0.0000 </r>
       <r>  101.0396    0.0000 </r>
      </set>
      <set comment="kpoint 5">
       <r>   -0.6081    1.0000 </r>
       <r>    9.3151   -0.0597 </r>
       <r>   18.6907    0.0000 </r>
       <r>   18.6907    0.0000 </r>
       <r>   21.6703    0.0000 </r>
       <r>   21.6703    0.0000 </r>
       <r>   22.2120    0.0000 </r>
       <r>   25.6462    0.0000 </r>
       <r>   28.3076    0.0000 </r>
       <r>   28.3076    0.0000 </r>
       <r>   34.5432    0.0000 </r>
       <r>   42.0311    0.0000 </r>
       <r>   42.0311    0.0000 </r>
       <r>   42.2678    0.0000 </r>
       <r>   46.1221    0.0000 </r>
       <r>   46.1221    0.0000 </r>
       <r>   48.0762    0.0000 </r>
       <r>   51.2316    0.0000 </r>
       <r>   56.3395    0.0000 </r>
       <r>   56.3395    0.0000 </r>
       <r>   56.8789    0.0000 </r>
       <r>   57.4074    0.0000 </r>
       <r>   62.2234    0.0000 </r>
       <r>   62.2234    0.0000 </r>
       <r>   65.3182    0.0000 </r>
       <r>   66.2034    0.0000 </r>
       <r>   66.2034    0.0000 </r>
       <r>   67.2389    0.0000 </r>
       <r>   73.8106    0.0000 </r>
       <r>   74.1370    0.0000 </r>
       <r>   74.1370    0.0000 </r>
       <r>   77.0003    0.0000 </r>
       <r>   78.3581    0.0000 </r>
       <r>   78.3581    0.0000 </r>
       <r>   79.9508    0.0000 </r>
       <r>   80.1296    0.0000 </r>
       <r>   80.1296    0.0000 </r>
       <r>   88.6399    0.0000 </r>
       <r>   89.3150    0.0000 </r>
       <r>   89.3150    0.0000 </r>
       <r>   89.5309    0.0000 </r>
       <r>   89.5309    0.0000 </r>
       <r>   91.2609    0.0000 </r>
       <r>   93.4114    0.0000 </r>
       <r>   97.8646    0.0000 </r>
       <r>   97.8646    0.0000 </r>
       <r>  101.6222    0.0000 </r>
       <r>  103.4056    0.0000 </r>
      </set>
      <set comment="kpoint 6">
       <r>    0.8031    1.0000 </r>
       <r>    6.7813    1.0298 </r>
       <r>   18.7503    0.0000 </r>
       <r>   18.7503    0.0000 </r>
       <r>   20.5465    0.0000 </r>
       <r>   20.5465    0.0000 </r>
       <r>   22.3631    0.0000 </r>
       <r>   24.4548    0.0000 </r>
       <r>   30.4825    0.0000 </r>
       <r>   30.4825    0.0000 </r>
       <r>   37.1225    0.0000 </r>
       <r>   41.2768    0.0000 </r>
       <r>   41.2768    0.0000 </r>
       <r>   45.9222    0.0000 </r>
       <r>   47.2337    0.0000 </r>
       <r>   47.2337    0.0000 </r>
       <r>   48.0455    0.0000 </r>
       <r>   52.5045    0.0000 </r>
       <r>   55.9566    0.0000 </r>
       <r>   56.2240    0.0000 </r>
       <r>   56.2240    0.0000 </r>
       <r>   57.1433    0.0000 </r>
       <r>   60.5502    0.0000 </r>
       <r>   60.5502    0.0000 </r>
       <r>   63.2218    0.0000 </r>
       <r>   64.2146    0.0000 </r>
       <r>   64.2146    0.0000 </r>
       <r>   68.1161    0.0000 </r>
       <r>   68.2358    0.0000 </r>
       <r>   73.7528    0.0000 </r>
       <r>   73.7528    0.0000 </r>
       <r>   76.5308    0.0000 </r>
       <r>   76.5308    0.0000 </r>
       <r>   76.5892    0.0000 </r>
       <r>   77.6641    0.0000 </r>
       <r>   80.4912    0.0000 </r>
       <r>   80.4912    0.0000 </r>
       <r>   88.5300    0.0000 </r>
       <r>   89.0521    0.0000 </r>
       <r>   89.0521    0.0000 </r>
       <r>   90.1332    0.0000 </r>
       <r>   92.9165    0.0000 </r>
       <r>   92.9165    0.0000 </r>
       <r>   94.3307    0.0000 </r>
       <r>   99.5428    0.0000 </r>
       <r>   99.5429    0.0000 </r>
       <r>  102.9024    0.0000 </r>
       <r>  104.1311    0.0000 </r>
      </set>
      <set comment="kpoint 7">
       <r>    2.5079    1.0000 </r>
       <r>    4.5132    1.0000 </r>
       <r>   19.0773    0.0000 </r>
       <r>   19.0773    0.0000 </r>
       <r>   19.6816    0.0000 </r>
       <r>   19.6816    0.0000 </r>
       <r>   22.7826    0.0000 </r>
       <r>   23.4940    0.0000 </r>
       <r>   32.3348    0.0000 </r>
       <r>   32.3348    0.0000 </r>
       <r>   39.0817    0.0000 </r>
       <r>   39.0817    0.0000 </r>
       <r>   39.1364    0.0000 </r>
       <r>   45.7050    0.0000 </r>
       <r>   49.8567    0.0000 </r>
       <r>   50.6058    0.0000 </r>
       <r>   50.6058    0.0000 </r>
       <r>   54.0366    0.0000 </r>
       <r>   55.3013    0.0000 </r>
       <r>   55.3013    0.0000 </r>
       <r>   55.6752    0.0000 </r>
       <r>   57.7640    0.0000 </r>
       <r>   57.8052    0.0000 </r>
       <r>   57.8052    0.0000 </r>
       <r>   61.4875    0.0000 </r>
       <r>   63.3277    0.0000 </r>
       <r>   64.2419    0.0000 </r>
       <r>   64.2419    0.0000 </r>
       <r>   69.0024    0.0000 </r>
       <r>   73.5952    0.0000 </r>
       <r>   73.5952    0.0000 </r>
       <r>   75.4748    0.0000 </r>
       <r>   75.4748    0.0000 </r>
       <r>   76.2524    0.0000 </r>
       <r>   76.8873    0.0000 </r>
       <r>   80.5407    0.0000 </r>
       <r>   80.5407    0.0000 </r>
       <r>   88.6081    0.0000 </r>
       <r>   88.8701    0.0000 </r>
       <r>   88.8701    0.0000 </r>
       <r>   89.1434    0.0000 </r>
       <r>   94.1837    0.0000 </r>
       <r>   95.2233    0.0000 </r>
       <r>   95.2233    0.0000 </r>
       <r>  101.2516    0.0000 </r>
       <r>  101.2516    0.0000 </r>
       <r>  105.4111    0.0000 </r>
       <r>  105.4111    0.0000 </r>
      </set>
      <set comment="kpoint 8">
       <r>   -2.9378    1.0000 </r>
       <r>   18.9749    0.0000 </r>
       <r>   18.9749    0.0000 </r>
       <r>   19.2775    0.0000 </r>
       <r>   21.5010    0.0000 </r>
       <r>   23.8710    0.0000 </r>
       <r>   23.8710    0.0000 </r>
       <r>   24.9784    0.0000 </r>
       <r>   26.0673    0.0000 </r>
       <r>   27.5123    0.0000 </r>
       <r>   30.3958    0.0000 </r>
       <r>   32.7570    0.0000 </r>
       <r>   32.7570    0.0000 </r>
       <r>   34.9762    0.0000 </r>
       <r>   41.9872    0.0000 </r>
       <r>   55.5026    0.0000 </r>
       <r>   55.5026    0.0000 </r>
       <r>   55.5317    0.0000 </r>
       <r>   56.4660    0.0000 </r>
       <r>   57.7403    0.0000 </r>
       <r>   57.7403    0.0000 </r>
       <r>   58.7277    0.0000 </r>
       <r>   59.3534    0.0000 </r>
       <r>   62.7920    0.0000 </r>
       <r>   66.9535    0.0000 </r>
       <r>   66.9535    0.0000 </r>
       <r>   69.4627    0.0000 </r>
       <r>   71.0203    0.0000 </r>
       <r>   73.3695    0.0000 </r>
       <r>   73.3695    0.0000 </r>
       <r>   81.0190    0.0000 </r>
       <r>   82.6941    0.0000 </r>
       <r>   83.5187    0.0000 </r>
       <r>   83.7253    0.0000 </r>
       <r>   83.7253    0.0000 </r>
       <r>   84.3096    0.0000 </r>
       <r>   89.6008    0.0000 </r>
       <r>   89.9591    0.0000 </r>
       <r>   89.9591    0.0000 </r>
       <r>   90.5413    0.0000 </r>
       <r>   90.5413    0.0000 </r>
       <r>   92.4208    0.0000 </r>
       <r>   92.5004    0.0000 </r>
       <r>   93.9189    0.0000 </r>
       <r>   94.4343    0.0000 </r>
       <r>   97.3661    0.0000 </r>
       <r>   97.3661    0.0000 </r>
       <r>   98.5288    0.0000 </r>
      </set>
      <set comment="kpoint 9">
       <r>   -2.5646    1.0000 </r>
       <r>   16.1816    0.0000 </r>
       <r>   18.1437    0.0000 </r>
       <r>   19.3654    0.0000 </r>
       <r>   21.8219    0.0000 </r>
       <r>   23.1608    0.0000 </r>
       <r>   24.2546    0.0000 </r>
       <r>   25.1622    0.0000 </r>
       <r>   26.9695    0.0000 </r>
       <r>   28.4906    0.0000 </r>
       <r>   29.9090    0.0000 </r>
       <r>   34.1561    0.0000 </r>
       <r>   34.2825    0.0000 </r>
       <r>   36.9292    0.0000 </r>
       <r>   43.4797    0.0000 </r>
       <r>   53.1146    0.0000 </r>
       <r>   53.8106    0.0000 </r>
       <r>   55.5513    0.0000 </r>
       <r>   55.9431    0.0000 </r>
       <r>   56.4254    0.0000 </r>
       <r>   56.9548    0.0000 </r>
       <r>   58.4737    0.0000 </r>
       <r>   59.3628    0.0000 </r>
       <r>   62.3095    0.0000 </r>
       <r>   67.7576    0.0000 </r>
       <r>   68.2906    0.0000 </r>
       <r>   70.7919    0.0000 </r>
       <r>   72.1588    0.0000 </r>
       <r>   72.7150    0.0000 </r>
       <r>   73.9744    0.0000 </r>
       <r>   78.7606    0.0000 </r>
       <r>   79.8875    0.0000 </r>
       <r>   81.2992    0.0000 </r>
       <r>   82.7084    0.0000 </r>
       <r>   82.8691    0.0000 </r>
       <r>   84.8360    0.0000 </r>
       <r>   86.1609    0.0000 </r>
       <r>   87.0376    0.0000 </r>
       <r>   89.2482    0.0000 </r>
       <r>   89.3037    0.0000 </r>
       <r>   90.9019    0.0000 </r>
       <r>   91.8513    0.0000 </r>
       <r>   93.7792    0.0000 </r>
       <r>   93.8054    0.0000 </r>
       <r>   94.4754    0.0000 </r>
       <r>   96.0827    0.0000 </r>
       <r>   97.3205    0.0000 </r>
       <r>   97.3588    0.0000 </r>
      </set>
      <set comment="kpoint 10">
       <r>   -1.8742    1.0000 </r>
       <r>   13.1772    0.0000 </r>
       <r>   17.5707    0.0000 </r>
       <r>   19.0367    0.0000 </r>
       <r>   21.2435    0.0000 </r>
       <r>   23.4208    0.0000 </r>
       <r>   24.1471    0.0000 </r>
       <r>   25.0496    0.0000 </r>
       <r>   27.3880    0.0000 </r>
       <r>   28.5827    0.0000 </r>
       <r>   31.4682    0.0000 </r>
       <r>   36.8228    0.0000 </r>
       <r>   37.2754    0.0000 </r>
       <r>   39.4389    0.0000 </r>
       <r>   45.7222    0.0000 </r>
       <r>   49.1875    0.0000 </r>
       <r>   50.8053    0.0000 </r>
       <r>   54.2524    0.0000 </r>
       <r>   55.6553    0.0000 </r>
       <r>   56.2859    0.0000 </r>
       <r>   57.0258    0.0000 </r>
       <r>   58.9234    0.0000 </r>
       <r>   58.9334    0.0000 </r>
       <r>   62.3310    0.0000 </r>
       <r>   66.5014    0.0000 </r>
       <r>   68.2563    0.0000 </r>
       <r>   70.3275    0.0000 </r>
       <r>   71.8973    0.0000 </r>
       <r>   73.1806    0.0000 </r>
       <r>   75.2629    0.0000 </r>
       <r>   76.3907    0.0000 </r>
       <r>   77.1838    0.0000 </r>
       <r>   80.0575    0.0000 </r>
       <r>   81.3508    0.0000 </r>
       <r>   81.5328    0.0000 </r>
       <r>   82.7848    0.0000 </r>
       <r>   84.4294    0.0000 </r>
       <r>   86.0655    0.0000 </r>
       <r>   86.8133    0.0000 </r>
       <r>   87.3064    0.0000 </r>
       <r>   90.0858    0.0000 </r>
       <r>   92.2979    0.0000 </r>
       <r>   92.4728    0.0000 </r>
       <r>   93.5535    0.0000 </r>
       <r>   94.7775    0.0000 </r>
       <r>   97.1078    0.0000 </r>
       <r>   98.9763    0.0000 </r>
       <r>   99.7084    0.0000 </r>
      </set>
      <set comment="kpoint 11">
       <r>   -0.8710    1.0000 </r>
       <r>   10.3381   -0.0049 </r>
       <r>   17.2648    0.0000 </r>
       <r>   18.7944    0.0000 </r>
       <r>   19.7633    0.0000 </r>
       <r>   23.7690    0.0000 </r>
       <r>   23.8666    0.0000 </r>
       <r>   25.4043    0.0000 </r>
       <r>   27.3234    0.0000 </r>
       <r>   29.2208    0.0000 </r>
       <r>   34.2739    0.0000 </r>
       <r>   39.8271    0.0000 </r>
       <r>   41.0186    0.0000 </r>
       <r>   42.1901    0.0000 </r>
       <r>   45.6209    0.0000 </r>
       <r>   47.5395    0.0000 </r>
       <r>   48.2956    0.0000 </r>
       <r>   52.5030    0.0000 </r>
       <r>   55.7381    0.0000 </r>
       <r>   56.2985    0.0000 </r>
       <r>   57.1162    0.0000 </r>
       <r>   57.9919    0.0000 </r>
       <r>   59.4763    0.0000 </r>
       <r>   62.7077    0.0000 </r>
       <r>   64.1934    0.0000 </r>
       <r>   67.0745    0.0000 </r>
       <r>   68.0352    0.0000 </r>
       <r>   70.4914    0.0000 </r>
       <r>   71.7291    0.0000 </r>
       <r>   72.6540    0.0000 </r>
       <r>   76.3011    0.0000 </r>
       <r>   76.9701    0.0000 </r>
       <r>   77.8701    0.0000 </r>
       <r>   78.8396    0.0000 </r>
       <r>   80.6197    0.0000 </r>
       <r>   81.3721    0.0000 </r>
       <r>   83.0866    0.0000 </r>
       <r>   85.0619    0.0000 </r>
       <r>   87.1286    0.0000 </r>
       <r>   87.9261    0.0000 </r>
       <r>   92.1370    0.0000 </r>
       <r>   92.1641    0.0000 </r>
       <r>   92.3434    0.0000 </r>
       <r>   93.7336    0.0000 </r>
       <r>   95.2289    0.0000 </r>
       <r>   98.3383    0.0000 </r>
       <r>   99.9540    0.0000 </r>
       <r>  102.4365    0.0000 </r>
      </set>
      <set comment="kpoint 12">
       <r>    0.4384    1.0000 </r>
       <r>    7.7270    0.5995 </r>
       <r>   17.2291    0.0000 </r>
       <r>   18.4971    0.0000 </r>
       <r>   18.8056    0.0000 </r>
       <r>   22.5970    0.0000 </r>
       <r>   23.9539    0.0000 </r>
       <r>   25.7522    0.0000 </r>
       <r>   27.9469    0.0000 </r>
       <r>   31.2255    0.0000 </r>
       <r>   36.9290    0.0000 </r>
       <r>   40.7788    0.0000 </r>
       <r>   42.7983    0.0000 </r>
       <r>   44.9134    0.0000 </r>
       <r>   44.9370    0.0000 </r>
       <r>   46.9470    0.0000 </r>
       <r>   49.2518    0.0000 </r>
       <r>   52.4759    0.0000 </r>
       <r>   55.7455    0.0000 </r>
       <r>   56.3043    0.0000 </r>
       <r>   56.3061    0.0000 </r>
       <r>   57.3978    0.0000 </r>
       <r>   59.8102    0.0000 </r>
       <r>   60.9226    0.0000 </r>
       <r>   63.4755    0.0000 </r>
       <r>   63.9799    0.0000 </r>
       <r>   65.0720    0.0000 </r>
       <r>   70.4163    0.0000 </r>
       <r>   70.5082    0.0000 </r>
       <r>   70.8871    0.0000 </r>
       <r>   71.1921    0.0000 </r>
       <r>   75.7677    0.0000 </r>
       <r>   76.7710    0.0000 </r>
       <r>   78.6193    0.0000 </r>
       <r>   80.4955    0.0000 </r>
       <r>   80.6497    0.0000 </r>
       <r>   83.0692    0.0000 </r>
       <r>   84.1292    0.0000 </r>
       <r>   88.1613    0.0000 </r>
       <r>   88.8399    0.0000 </r>
       <r>   92.3166    0.0000 </r>
       <r>   93.6527    0.0000 </r>
       <r>   93.8418    0.0000 </r>
       <r>   94.8665    0.0000 </r>
       <r>   97.5644    0.0000 </r>
       <r>   98.3393    0.0000 </r>
       <r>  101.9111    0.0000 </r>
       <r>  103.3013    0.0000 </r>
      </set>
      <set comment="kpoint 13">
       <r>    2.0453    1.0000 </r>
       <r>    5.3719    1.0000 </r>
       <r>   17.4649    0.0000 </r>
       <r>   17.5226    0.0000 </r>
       <r>   19.0608    0.0000 </r>
       <r>   21.6565    0.0000 </r>
       <r>   24.2329    0.0000 </r>
       <r>   24.8517    0.0000 </r>
       <r>   30.1811    0.0000 </r>
       <r>   32.7129    0.0000 </r>
       <r>   39.0251    0.0000 </r>
       <r>   39.1847    0.0000 </r>
       <r>   40.2822    0.0000 </r>
       <r>   46.8419    0.0000 </r>
       <r>   48.2175    0.0000 </r>
       <r>   48.9436    0.0000 </r>
       <r>   50.2833    0.0000 </r>
       <r>   54.1736    0.0000 </r>
       <r>   55.0868    0.0000 </r>
       <r>   55.6861    0.0000 </r>
       <r>   56.1605    0.0000 </r>
       <r>   56.7554    0.0000 </r>
       <r>   58.6708    0.0000 </r>
       <r>   58.8237    0.0000 </r>
       <r>   61.9696    0.0000 </r>
       <r>   62.7532    0.0000 </r>
       <r>   64.0625    0.0000 </r>
       <r>   65.1782    0.0000 </r>
       <r>   69.8727    0.0000 </r>
       <r>   70.3743    0.0000 </r>
       <r>   71.3937    0.0000 </r>
       <r>   74.8311    0.0000 </r>
       <r>   76.0706    0.0000 </r>
       <r>   78.7278    0.0000 </r>
       <r>   80.3790    0.0000 </r>
       <r>   80.4150    0.0000 </r>
       <r>   81.6129    0.0000 </r>
       <r>   84.2157    0.0000 </r>
       <r>   88.7517    0.0000 </r>
       <r>   88.8877    0.0000 </r>
       <r>   92.0911    0.0000 </r>
       <r>   94.0464    0.0000 </r>
       <r>   95.6172    0.0000 </r>
       <r>   97.3717    0.0000 </r>
       <r>   99.7576    0.0000 </r>
       <r>  101.8149    0.0000 </r>
       <r>  101.8233    0.0000 </r>
       <r>  102.4594    0.0000 </r>
      </set>
      <set comment="kpoint 14">
       <r>    3.2669    1.0000 </r>
       <r>    3.9628    1.0000 </r>
       <r>   16.8159    0.0000 </r>
       <r>   17.9730    0.0000 </r>
       <r>   19.6010    0.0000 </r>
       <r>   20.9744    0.0000 </r>
       <r>   23.9917    0.0000 </r>
       <r>   24.9050    0.0000 </r>
       <r>   31.9733    0.0000 </r>
       <r>   32.0895    0.0000 </r>
       <r>   38.2134    0.0000 </r>
       <r>   39.4993    0.0000 </r>
       <r>   40.2472    0.0000 </r>
       <r>   46.1526    0.0000 </r>
       <r>   49.7839    0.0000 </r>
       <r>   50.6879    0.0000 </r>
       <r>   51.4432    0.0000 </r>
       <r>   53.6369    0.0000 </r>
       <r>   54.8691    0.0000 </r>
       <r>   55.2016    0.0000 </r>
       <r>   56.3578    0.0000 </r>
       <r>   57.0249    0.0000 </r>
       <r>   57.2944    0.0000 </r>
       <r>   58.7350    0.0000 </r>
       <r>   61.6724    0.0000 </r>
       <r>   62.1947    0.0000 </r>
       <r>   62.6772    0.0000 </r>
       <r>   64.5821    0.0000 </r>
       <r>   69.7727    0.0000 </r>
       <r>   70.0318    0.0000 </r>
       <r>   71.5232    0.0000 </r>
       <r>   74.5956    0.0000 </r>
       <r>   76.0622    0.0000 </r>
       <r>   78.8239    0.0000 </r>
       <r>   80.2328    0.0000 </r>
       <r>   80.4451    0.0000 </r>
       <r>   81.1258    0.0000 </r>
       <r>   84.1571    0.0000 </r>
       <r>   88.5794    0.0000 </r>
       <r>   88.9473    0.0000 </r>
       <r>   91.9635    0.0000 </r>
       <r>   94.1603    0.0000 </r>
       <r>   96.3204    0.0000 </r>
       <r>   98.3804    0.0000 </r>
       <r>  100.2639    0.0000 </r>
       <r>  100.3391    0.0000 </r>
       <r>  103.8237    0.0000 </r>
       <r>  105.0217    0.0000 </r>
      </set>
      <set comment="kpoint 15">
       <r>    1.4775    1.0000 </r>
       <r>    6.1263    1.0503 </r>
       <r>   16.3887    0.0000 </r>
       <r>   18.7514    0.0000 </r>
       <r>   20.4153    0.0000 </r>
       <r>   20.5596    0.0000 </r>
       <r>   23.5075    0.0000 </r>
       <r>   25.6999    0.0000 </r>
       <r>   29.9499    0.0000 </r>
       <r>   31.6702    0.0000 </r>
       <r>   38.3373    0.0000 </r>
       <r>   39.2370    0.0000 </r>
       <r>   41.9102    0.0000 </r>
       <r>   46.2623    0.0000 </r>
       <r>   47.0266    0.0000 </r>
       <r>   48.4873    0.0000 </r>
       <r>   49.8259    0.0000 </r>
       <r>   54.0977    0.0000 </r>
       <r>   55.1844    0.0000 </r>
       <r>   55.6642    0.0000 </r>
       <r>   55.9331    0.0000 </r>
       <r>   57.5966    0.0000 </r>
       <r>   58.6472    0.0000 </r>
       <r>   60.0413    0.0000 </r>
       <r>   61.6589    0.0000 </r>
       <r>   62.4565    0.0000 </r>
       <r>   64.5282    0.0000 </r>
       <r>   67.2755    0.0000 </r>
       <r>   70.0180    0.0000 </r>
       <r>   70.7020    0.0000 </r>
       <r>   70.9458    0.0000 </r>
       <r>   75.0561    0.0000 </r>
       <r>   76.3521    0.0000 </r>
       <r>   79.1138    0.0000 </r>
       <r>   79.9458    0.0000 </r>
       <r>   80.7583    0.0000 </r>
       <r>   81.7939    0.0000 </r>
       <r>   84.2771    0.0000 </r>
       <r>   88.2506    0.0000 </r>
       <r>   88.6195    0.0000 </r>
       <r>   92.6018    0.0000 </r>
       <r>   94.1657    0.0000 </r>
       <r>   94.4251    0.0000 </r>
       <r>   96.3676    0.0000 </r>
       <r>   99.1657    0.0000 </r>
       <r>  100.0889    0.0000 </r>
       <r>  102.2458    0.0000 </r>
       <r>  106.0396    0.0000 </r>
      </set>
      <set comment="kpoint 16">
       <r>   -0.0316    1.0000 </r>
       <r>    8.5677    0.1654 </r>
       <r>   16.2434    0.0000 </r>
       <r>   19.7790    0.0000 </r>
       <r>   20.4289    0.0000 </r>
       <r>   21.4907    0.0000 </r>
       <r>   23.2654    0.0000 </r>
       <r>   26.6796    0.0000 </r>
       <r>   27.6290    0.0000 </r>
       <r>   29.8938    0.0000 </r>
       <r>   36.1806    0.0000 </r>
       <r>   40.5992    0.0000 </r>
       <r>   43.6480    0.0000 </r>
       <r>   43.8740    0.0000 </r>
       <r>   44.0696    0.0000 </r>
       <r>   47.3241    0.0000 </r>
       <r>   49.1637    0.0000 </r>
       <r>   51.6615    0.0000 </r>
       <r>   55.8788    0.0000 </r>
       <r>   56.0433    0.0000 </r>
       <r>   56.8756    0.0000 </r>
       <r>   57.5492    0.0000 </r>
       <r>   60.7468    0.0000 </r>
       <r>   61.4749    0.0000 </r>
       <r>   62.7079    0.0000 </r>
       <r>   64.2742    0.0000 </r>
       <r>   66.9998    0.0000 </r>
       <r>   70.0618    0.0000 </r>
       <r>   70.4909    0.0000 </r>
       <r>   72.5027    0.0000 </r>
       <r>   72.7043    0.0000 </r>
       <r>   75.6858    0.0000 </r>
       <r>   77.1343    0.0000 </r>
       <r>   79.0444    0.0000 </r>
[...]
       <set comment="band 2">
        <r>  0.1283  0.0323  0.0721  0.0000  0.0000  0.0000  0.0000  0.0000  0.0000 </r>
       </set>
       <set comment="band 3">
        <r>  0.0000  0.0000  0.0000  0.2014  0.0000  0.0000  0.0000  0.0000  0.0000 </r>
       </set>
       <set comment="band 4">
        <r>  0.2407  0.1197  0.0037  0.0000  0.0000  0.0000  0.0000  0.0000  0.0000 </r>
       </set>
       <set comment="band 5">
        <r>  0.0000  0.0000  0.0000  0.1346  0.0000  0.0000  0.0000  0.0000  0.0000 </r>
       </set>
       <set comment="band 6">
        <r>  0.1169  0.2084  0.0026  0.0000  0.0000  0.0000  0.0000  0.0000  0.0000 </r>
       </set>
       <set comment="band 7">
        <r>  0.0154  0.0472  0.0412  0.0000  0.0000  0.0000  0.0000  0.0000  0.0000 </r>
       </set>
       <set comment="band 8">
        <r>  0.0132  0.0672  0.0325  0.0000  0.0000  0.0000  0.0000  0.0000  0.0000 </r>
       </set>
       <set comment="band 9">
        <r>  0.0000  0.0000  0.0000  0.0170  0.0000  0.0000  0.0000  0.0000  0.0000 </r>
       </set>
       <set comment="band 10">
        <r>  0.0117  0.0032  0.0001  0.0000  0.0000  0.0000  0.0000  0.0000  0.0000 </r>
       </set>
       <set comment="band 11">
        <r>  0.0349  0.0225  0.0928  0.0000  0.0000  0.0000  0.0000  0.0000  0.0000 </r>
       </set>
       <set comment="band 12">
        <r>  0.0000  0.0000  0.0000  0.1558  0.0000  0.0000  0.0000  0.0000  0.0000 </r>
       </set>
       <set comment="band 13">
        <r>  0.0241  0.0236  0.0400  0.0000  0.0000  0.0000  0.0000  0.0000  0.0000 </r>
       </set>
       <set comment="band 14">
        <r>  0.0000  0.0000  0.0000  0.1121  0.0000  0.0000  0.0000  0.0000  0.0000 </r>
       </set>
       <set comment="band 15">
        <r>  0.0987  0.0300  0.0042  0.0000  0.0000  0.0000  0.0000  0.0000  0.0000 </r>
       </set>
       <set comment="band 16">
        <r>  0.0000  0.0000  0.0000  0.0220  0.0000  0.0000  0.0000  0.0000  0.0000 </r>
       </set>
       <set comment="band 17">
        <r>  0.0733  0.0115  0.5321  0.0000  0.0000  0.0000  0.0000  0.0000  0.0000 </r>
       </set>
       <set comment="band 18">
        <r>  0.0000  0.0000  0.0000  0.0012  0.0000  0.0000  0.0000  0.0000  0.0000 </r>
       </set>
       <set comment="band 19">
        <r>  0.4600  0.0002  0.1149  0.0000  0.0000  0.0000  0.0000  0.0000  0.0000 </r>
       </set>
       <set comment="band 20">
        <r>  3.8822  1.0345  0.0206  0.0000  0.0000  0.0000  0.0000  0.0000  0.0000 </r>
       </set>
       <set comment="band 21">
        <r>  0.0000  0.0000  0.0000  2.5586  0.0000  0.0000  0.0000  0.0000  0.0000 </r>
       </set>
       <set comment="band 22">
        <r>  4.4418  1.9278  0.0710  0.0000  0.0000  0.0000  0.0000  0.0000  0.0000 </r>
       </set>
       <set comment="band 23">
        <r>  0.3674  0.0798  1.2637  0.0000  0.0000  0.0000  0.0000  0.0000  0.0000 </r>
       </set>
       <set comment="band 24">
        <r>  0.0000  0.0000  0.0000  1.1700  0.0000  0.0000  0.0000  0.0000  0.0000 </r>
       </set>
       <set comment="band 25">
        <r>  0.1901  0.0759  2.9811  0.0000  0.0000  0.0000  0.0000  0.0000  0.0000 </r>
       </set>
       <set comment="band 26">
        <r>  0.8672  1.7607  0.0845  0.0000  0.0000  0.0000  0.0000  0.0000  0.0000 </r>
       </set>
       <set comment="band 27">
        <r>  0.0000  0.0000  0.0000  1.2968  0.0000  0.0000  0.0000  0.0000  0.0000 </r>
       </set>
       <set comment="band 28">
        <r>  0.0000  0.0000  0.0000  0.0231  0.0000  0.0000  0.0000  0.0000  0.0000 </r>
       </set>
       <set comment="band 29">
        <r>  0.2021  0.0509  0.1620  0.0000  0.0000  0.0000  0.0000  0.0000  0.0000 </r>
       </set>
       <set comment="band 30">
        <r>  0.0058  0.1333  0.0194  0.0000  0.0000  0.0000  0.0000  0.0000  0.0000 </r>
       </set>
       <set comment="band 31">
        <r>  0.0000  0.0000  0.0000  0.0141  0.0000  0.0000  0.0000  0.0000  0.0000 </r>
       </set>
       <set comment="band 32">
        <r>  0.1795  0.0000  0.2857  0.0000  0.0000  0.0000  0.0000  0.0000  0.0000 </r>
       </set>
       <set comment="band 33">
        <r>  0.2943  0.1888  0.0021  0.0000  0.0000  0.0000  0.0000  0.0000  0.0000 </r>
       </set>
       <set comment="band 34">
        <r>  0.0000  0.0000  0.0000  0.0080  0.0000  0.0000  0.0000  0.0000  0.0000 </r>
       </set>
       <set comment="band 35">
        <r>  0.1457  0.0133  0.0976  0.0000  0.0000  0.0000  0.0000  0.0000  0.0000 </r>
       </set>
       <set comment="band 36">
        <r>  0.1294  0.1988  0.0770  0.0000  0.0000  0.0000  0.0000  0.0000  0.0000 </r>
       </set>
       <set comment="band 37">
        <r>  0.0000  0.0000  0.0000  0.3536  0.0000  0.0000  0.0000  0.0000  0.0000 </r>
       </set>
       <set comment="band 38">
        <r>  0.0012  0.0255  0.0014  0.0000  0.0000  0.0000  0.0000  0.0000  0.0000 </r>
       </set>
       <set comment="band 39">
        <r>  0.0000  0.0000  0.0000  0.1403  0.0000  0.0000  0.0000  0.0000  0.0000 </r>
       </set>
       <set comment="band 40">
        <r>  0.0111  0.0041  0.0067  0.0000  0.0000  0.0000  0.0000  0.0000  0.0000 </r>
       </set>
       <set comment="band 41">
        <r>  0.0000  0.0000  0.0000  0.0524  0.0000  0.0000  0.0000  0.0000  0.0000 </r>
       </set>
       <set comment="band 42">
        <r>  0.1841  0.0299  0.0244  0.0000  0.0000  0.0000  0.0000  0.0000  0.0000 </r>
       </set>
       <set comment="band 43">
        <r>  0.0109  0.0880  0.0816  0.0000  0.0000  0.0000  0.0000  0.0000  0.0000 </r>
       </set>
       <set comment="band 44">
        <r>  0.0030  0.0321  0.0185  0.0000  0.0000  0.0000  0.0000  0.0000  0.0000 </r>
       </set>
       <set comment="band 45">
        <r>  0.0000  0.0000  0.0000  0.0581  0.0000  0.0000  0.0000  0.0000  0.0000 </r>
       </set>
       <set comment="band 46">
        <r>  0.1108  0.0151  0.0299  0.0000  0.0000  0.0000  0.0000  0.0000  0.0000 </r>
       </set>
       <set comment="band 47">
        <r>  0.0000  0.0000  0.0000  0.0004  0.0000  0.0000  0.0000  0.0000  0.0000 </r>
       </set>
       <set comment="band 48">
        <r>  0.0000  0.0000  0.0000  0.0002  0.0000  0.0000  0.0000  0.0000  0.0000 </r>
       </set>
      </set>
      <set comment="kpoint 83">
       <set comment="band 1">
        <r>  0.0000  0.0000  0.2297  0.0000  0.0000  0.0000  0.0000  0.0000  0.0000 </r>
       </set>
       <set comment="band 2">
        <r>  0.0005  0.0682  0.0000  0.1098  0.0000  0.0000  0.0000  0.0000  0.0000 </r>
       </set>
       <set comment="band 3">
        <r>  0.2647  0.0126  0.0000  0.0379  0.0000  0.0000  0.0000  0.0000  0.0000 </r>
       </set>
       <set comment="band 4">
        <r>  0.1972  0.0646  0.0000  0.0649  0.0000  0.0000  0.0000  0.0000  0.0000 </r>
       </set>
       <set comment="band 5">
        <r>  0.0279  0.0546  0.0000  0.0870  0.0000  0.0000  0.0000  0.0000  0.0000 </r>
       </set>
       <set comment="band 6">
        <r>  0.0485  0.2001  0.0000  0.0335  0.0000  0.0000  0.0000  0.0000  0.0000 </r>
       </set>
       <set comment="band 7">
        <r>  0.0000  0.0000  0.0855  0.0000  0.0000  0.0000  0.0000  0.0000  0.0000 </r>
       </set>
       <set comment="band 8">
        <r>  0.0517  0.1071  0.0000  0.0067  0.0000  0.0000  0.0000  0.0000  0.0000 </r>
       </set>
       <set comment="band 9">
        <r>  0.0000  0.0000  0.0181  0.0000  0.0000  0.0000  0.0000  0.0000  0.0000 </r>
       </set>
       <set comment="band 10">
        <r>  0.0168  0.0004  0.0000  0.0391  0.0000  0.0000  0.0000  0.0000  0.0000 </r>
       </set>
       <set comment="band 11">
        <r>  0.0000  0.0000  0.0100  0.0000  0.0000  0.0000  0.0000  0.0000  0.0000 </r>
       </set>
       <set comment="band 12">
        <r>  0.0446  0.0029  0.0000  0.1460  0.0000  0.0000  0.0000  0.0000  0.0000 </r>
       </set>
       <set comment="band 13">
        <r>  0.0000  0.0000  0.1473  0.0000  0.0000  0.0000  0.0000  0.0000  0.0000 </r>
       </set>
       <set comment="band 14">
        <r>  0.0698  0.0151  0.0000  0.0080  0.0000  0.0000  0.0000  0.0000  0.0000 </r>
       </set>
       <set comment="band 15">
        <r>  0.0729  0.0112  0.0000  0.0879  0.0000  0.0000  0.0000  0.0000  0.0000 </r>
       </set>
       <set comment="band 16">
        <r>  0.0000  0.0000  0.0124  0.0000  0.0000  0.0000  0.0000  0.0000  0.0000 </r>
       </set>
       <set comment="band 17">
        <r>  0.0000  0.0000  0.6663  0.0000  0.0000  0.0000  0.0000  0.0000  0.0000 </r>
       </set>
       <set comment="band 18">
        <r>  0.0661  0.6654  0.0000  0.3446  0.0000  0.0000  0.0000  0.0000  0.0000 </r>
       </set>
       <set comment="band 19">
        <r>  5.1466  0.6286  0.0000  0.0470  0.0000  0.0000  0.0000  0.0000  0.0000 </r>
       </set>
       <set comment="band 20">
        <r>  0.9953  0.7544  0.0000  0.8413  0.0000  0.0000  0.0000  0.0000  0.0000 </r>
       </set>
       <set comment="band 21">
        <r>  3.1003  0.9264  0.0000  0.3912  0.0000  0.0000  0.0000  0.0000  0.0000 </r>
       </set>
       <set comment="band 22">
        <r>  0.0000  0.0000  0.1469  0.0000  0.0000  0.0000  0.0000  0.0000  0.0000 </r>
       </set>
       <set comment="band 23">
        <r>  0.2629  0.0624  0.0000  1.9120  0.0000  0.0000  0.0000  0.0000  0.0000 </r>
       </set>
       <set comment="band 24">
        <r>  0.0000  0.0000  2.9650  0.0000  0.0000  0.0000  0.0000  0.0000  0.0000 </r>
       </set>
       <set comment="band 25">
        <r>  0.0000  0.0000  0.4015  0.0000  0.0000  0.0000  0.0000  0.0000  0.0000 </r>
       </set>
       <set comment="band 26">
        <r>  0.4457  1.0809  0.0000  0.0003  0.0000  0.0000  0.0000  0.0000  0.0000 </r>
       </set>
       <set comment="band 27">
        <r>  0.0000  0.0000  0.9202  0.0000  0.0000  0.0000  0.0000  0.0000  0.0000 </r>
       </set>
       <set comment="band 28">
        <r>  0.0862  0.0410  0.0000  1.5209  0.0000  0.0000  0.0000  0.0000  0.0000 </r>
       </set>
       <set comment="band 29">
        <r>  0.1264  1.0354  0.0000  0.0071  0.0000  0.0000  0.0000  0.0000  0.0000 </r>
       </set>
       <set comment="band 30">
        <r>  0.0000  0.0000  0.2601  0.0000  0.0000  0.0000  0.0000  0.0000  0.0000 </r>
       </set>
       <set comment="band 31">
        <r>  0.0050  0.0561  0.0000  0.0349  0.0000  0.0000  0.0000  0.0000  0.0000 </r>
       </set>
       <set comment="band 32">
        <r>  0.5482  0.0039  0.0000  0.0224  0.0000  0.0000  0.0000  0.0000  0.0000 </r>
       </set>
       <set comment="band 33">
        <r>  0.0208  0.0373  0.0000  0.0687  0.0000  0.0000  0.0000  0.0000  0.0000 </r>
       </set>
       <set comment="band 34">
        <r>  0.2964  0.1625  0.0000  0.0053  0.0000  0.0000  0.0000  0.0000  0.0000 </r>
       </set>
       <set comment="band 35">
        <r>  0.0000  0.0000  0.2358  0.0000  0.0000  0.0000  0.0000  0.0000  0.0000 </r>
       </set>
       <set comment="band 36">
        <r>  0.1645  0.0125  0.0000  0.0003  0.0000  0.0000  0.0000  0.0000  0.0000 </r>
       </set>
       <set comment="band 37">
        <r>  0.0000  0.0000  0.0047  0.0000  0.0000  0.0000  0.0000  0.0000  0.0000 </r>
       </set>
       <set comment="band 38">
        <r>  0.0244  0.0077  0.0000  0.3892  0.0000  0.0000  0.0000  0.0000  0.0000 </r>
       </set>
       <set comment="band 39">
        <r>  0.0130  0.0135  0.0000  0.0471  0.0000  0.0000  0.0000  0.0000  0.0000 </r>
       </set>
       <set comment="band 40">
        <r>  0.0000  0.0000  0.0685  0.0000  0.0000  0.0000  0.0000  0.0000  0.0000 </r>
       </set>
       <set comment="band 41">
        <r>  0.0000  0.0000  0.0932  0.0000  0.0000  0.0000  0.0000  0.0000  0.0000 </r>
       </set>
       <set comment="band 42">
        <r>  0.0254  0.1414  0.0000  0.0100  0.0000  0.0000  0.0000  0.0000  0.0000 </r>
       </set>
       <set comment="band 43">
        <r>  0.0431  0.0488  0.0000  0.0010  0.0000  0.0000  0.0000  0.0000  0.0000 </r>
       </set>
       <set comment="band 44">
        <r>  0.0000  0.0000  0.0259  0.0000  0.0000  0.0000  0.0000  0.0000  0.0000 </r>
       </set>
       <set comment="band 45">
        <r>  0.0000  0.0275  0.0000  0.0000  0.0000  0.0000  0.0000  0.0000  0.0000 </r>
       </set>
       <set comment="band 46">
        <r>  0.0929  0.0004  0.0000  0.0000  0.0000  0.0000  0.0000  0.0000  0.0000 </r>
       </set>
       <set comment="band 47">
        <r>  0.0000  0.0000  0.0174  0.0000  0.0000  0.0000  0.0000  0.0000  0.0000 </r>
       </set>
       <set comment="band 48">
        <r>  0.0737  0.0038  0.0000  0.0553  0.0000  0.0000  0.0000  0.0000  0.0000 </r>
       </set>
      </set>
      <set comment="kpoint 84">
       <set comment="band 1">
        <r>  0.0597  0.0218  0.1541  0.0000  0.0000  0.0000  0.0000  0.0000  0.0000 </r>
       </set>
       <set comment="band 2">
        <r>  0.0000  0.0000  0.0000  0.2175  0.0000  0.0000  0.0000  0.0000  0.0000 </r>
       </set>
       <set comment="band 3">
        <r>  0.0098  0.1140  0.0290  0.0000  0.0000  0.0000  0.0000  0.0000  0.0000 </r>
       </set>
       <set comment="band 4">
        <r>  0.4018  0.0009  0.0429  0.0000  0.0000  0.0000  0.0000  0.0000  0.0000 </r>
       </set>
       <set comment="band 5">
        <r>  0.0000  0.0000  0.0000  0.1107  0.0000  0.0000  0.0000  0.0000  0.0000 </r>
       </set>
       <set comment="band 6">
        <r>  0.0010  0.2698  0.0374  0.0000  0.0000  0.0000  0.0000  0.0000  0.0000 </r>
       </set>
       <set comment="band 7">
        <r>  0.0514  0.0665  0.0337  0.0000  0.0000  0.0000  0.0000  0.0000  0.0000 </r>
       </set>
       <set comment="band 8">
        <r>  0.0673  0.0439  0.0318  0.0000  0.0000  0.0000  0.0000  0.0000  0.0000 </r>
       </set>
       <set comment="band 9">
        <r>  0.0000  0.0000  0.0000  0.0172  0.0000  0.0000  0.0000  0.0000  0.0000 </r>
       </set>
       <set comment="band 10">
        <r>  0.0002  0.0010  0.0122  0.0000  0.0000  0.0000  0.0000  0.0000  0.0000 </r>
       </set>
       <set comment="band 11">
        <r>  0.0742  0.0026  0.1210  0.0000  0.0000  0.0000  0.0000  0.0000  0.0000 </r>
       </set>
       <set comment="band 12">
        <r>  0.0000  0.0000  0.0000  0.0301  0.0000  0.0000  0.0000  0.0000  0.0000 </r>
       </set>
       <set comment="band 13">
        <r>  0.0000  0.0000  0.0000  0.1995  0.0000  0.0000  0.0000  0.0000  0.0000 </r>
       </set>
       <set comment="band 14">
        <r>  0.0074  0.0010  0.0272  0.0000  0.0000  0.0000  0.0000  0.0000  0.0000 </r>
       </set>
       <set comment="band 15">
        <r>  0.1478  0.0005  0.0629  0.0000  0.0000  0.0000  0.0000  0.0000  0.0000 </r>
       </set>
       <set comment="band 16">
        <r>  0.0000  0.0000  0.0000  0.0139  0.0000  0.0000  0.0000  0.0000  0.0000 </r>
       </set>
       <set comment="band 17">
        <r>  0.1341  0.0848  0.6955  0.0000  0.0000  0.0000  0.0000  0.0000  0.0000 </r>
       </set>
       <set comment="band 18">
        <r>  0.0000  0.0000  0.0000  0.7449  0.0000  0.0000  0.0000  0.0000  0.0000 </r>
       </set>
       <set comment="band 19">
        <r>  0.4272  2.5074  0.1356  0.0000  0.0000  0.0000  0.0000  0.0000  0.0000 </r>
       </set>
       <set comment="band 20">
        <r>  8.8188  0.1662  0.0201  0.0000  0.0000  0.0000  0.0000  0.0000  0.0000 </r>
       </set>
       <set comment="band 21">
        <r>  0.0000  0.0000  0.0000  1.7793  0.0000  0.0000  0.0000  0.0000  0.0000 </r>
       </set>
       <set comment="band 22">
        <r>  0.4395  0.1228  0.3088  0.0000  0.0000  0.0000  0.0000  0.0000  0.0000 </r>
       </set>
       <set comment="band 23">
        <r>  0.0018  0.1896  2.9346  0.0000  0.0000  0.0000  0.0000  0.0000  0.0000 </r>
       </set>
       <set comment="band 24">
        <r>  0.0000  0.0000  0.0000  1.8117  0.0000  0.0000  0.0000  0.0000  0.0000 </r>
       </set>
       <set comment="band 25">
        <r>  0.0997  0.3637  0.3311  0.0000  0.0000  0.0000  0.0000  0.0000  0.0000 </r>
       </set>
       <set comment="band 26">
        <r>  0.0000  0.0000  0.0000  0.0102  0.0000  0.0000  0.0000  0.0000  0.0000 </r>
       </set>
       <set comment="band 27">
        <r>  0.0036  0.1042  0.0513  0.0000  0.0000  0.0000  0.0000  0.0000  0.0000 </r>
       </set>
       <set comment="band 28">
        <r>  0.0000  0.0000  0.0000  0.4973  0.0000  0.0000  0.0000  0.0000  0.0000 </r>
       </set>
       <set comment="band 29">
        <r>  0.1206  0.0870  0.6449  0.0000  0.0000  0.0000  0.0000  0.0000  0.0000 </r>
       </set>
       <set comment="band 30">
        <r>  0.0591  1.7283  0.0609  0.0000  0.0000  0.0000  0.0000  0.0000  0.0000 </r>
       </set>
       <set comment="band 31">
        <r>  0.0000  0.0000  0.0000  0.3938  0.0000  0.0000  0.0000  0.0000  0.0000 </r>
       </set>
       <set comment="band 32">
        <r>  0.3711  0.0021  0.1996  0.0000  0.0000  0.0000  0.0000  0.0000  0.0000 </r>
       </set>
       <set comment="band 33">
        <r>  0.3323  0.0676  0.0051  0.0000  0.0000  0.0000  0.0000  0.0000  0.0000 </r>
       </set>
       <set comment="band 34">
        <r>  0.3219  0.0039  0.0143  0.0000  0.0000  0.0000  0.0000  0.0000  0.0000 </r>
       </set>
       <set comment="band 35">
        <r>  0.0000  0.0000  0.0000  0.0733  0.0000  0.0000  0.0000  0.0000  0.0000 </r>
       </set>
       <set comment="band 36">
        <r>  0.1315  0.0248  0.0694  0.0000  0.0000  0.0000  0.0000  0.0000  0.0000 </r>
       </set>
       <set comment="band 37">
        <r>  0.0000  0.0000  0.0000  0.3080  0.0000  0.0000  0.0000  0.0000  0.0000 </r>
       </set>
       <set comment="band 38">
        <r>  0.0183  0.0241  0.1710  0.0000  0.0000  0.0000  0.0000  0.0000  0.0000 </r>
       </set>
       <set comment="band 39">
        <r>  0.0000  0.0000  0.0000  0.0078  0.0000  0.0000  0.0000  0.0000  0.0000 </r>
       </set>
       <set comment="band 40">
        <r>  0.0019  0.0941  0.0011  0.0000  0.0000  0.0000  0.0000  0.0000  0.0000 </r>
       </set>
       <set comment="band 41">
        <r>  0.0064  0.0000  0.0034  0.0000  0.0000  0.0000  0.0000  0.0000  0.0000 </r>
       </set>
       <set comment="band 42">
        <r>  0.0000  0.0000  0.0000  0.0338  0.0000  0.0000  0.0000  0.0000  0.0000 </r>
       </set>
       <set comment="band 43">
        <r>  0.0354  0.0027  0.0687  0.0000  0.0000  0.0000  0.0000  0.0000  0.0000 </r>
       </set>
       <set comment="band 44">
        <r>  0.0000  0.0000  0.0000  0.0284  0.0000  0.0000  0.0000  0.0000  0.0000 </r>
       </set>
       <set comment="band 45">
        <r>  0.0000  0.0000  0.0000  0.0010  0.0000  0.0000  0.0000  0.0000  0.0000 </r>
       </set>
       <set comment="band 46">
        <r>  0.0368  0.1377  0.0071  0.0000  0.0000  0.0000  0.0000  0.0000  0.0000 </r>
       </set>
       <set comment="band 47">
        <r>  0.0350  0.0946  0.0182  0.0000  0.0000  0.0000  0.0000  0.0000  0.0000 </r>
       </set>
       <set comment="band 48">
        <r>  0.0000  0.0000  0.0000  0.0508  0.0000  0.0000  0.0000  0.0000  0.0000 </r>
       </set>
      </set>
     </set>
    </set>
   </array>
  </projected>
 </calculation>
 <structure name="finalpos" >
  <crystal>
   <varray name="basis" >
    <v>       0.00000000       2.02400000       2.02400000 </v>
    <v>       2.02400000       0.00000000       2.02400000 </v>
    <v>       2.02400000       2.02400000       0.00000000 </v>
   </varray>
   <i name="volume">     16.58293965 </i>
   <varray name="rec_basis" >
    <v>      -0.24703557       0.24703557       0.24703557 </v>
    <v>       0.24703557      -0.24703557       0.24703557 </v>
    <v>       0.24703557       0.24703557      -0.24703557 </v>
   </varray>
  </crystal>
  <varray name="positions" >
   <v>       0.00000000       0.00000000       0.00000000 </v>
  </varray>
 </structure>
</modeling>
