    1    1    1    2
  0.1658294E+02  0.2862368E-09  0.2862368E-09  0.2862368E-09  0.5000000E-15
   1.0000000000000000E-004
  CAR 
 unknown system                          
      3     72     48

  0.1262379E-14  0.1262379E-14  0.1262379E-14  0.5787037E-03
    1       -3.151304     -3.152972   1.000000   1.000000
    2       20.540323     20.539064   0.000000   0.000000
    3       20.540323     20.539064   0.000000   0.000000
    4       20.540323     20.539065   0.000000   0.000000
    5       21.994984     21.990349   0.000000   0.000000
    6       21.994984     21.990349   0.000000   0.000000
    7       21.994984     21.990350   0.000000   0.000000
    8       24.377637     24.377171   0.000000   0.000000
    9       27.314788     27.311505   0.000000   0.000000
   10       27.314788     27.311505   0.000000   0.000000
   11       30.160869     30.157926   0.000000   0.000000
   12       32.511135     32.510118   0.000000   0.000000
   13       32.511135     32.510118   0.000000   0.000000
   14       32.511135     32.510119   0.000000   0.000000
   15       41.063274     41.060568   0.000000   0.000000
   16       56.020434     56.019641   0.000000   0.000000
   17       56.020434     56.019642   0.000000   0.000000
   18       56.020434     56.019642   0.000000   0.000000
   19       56.056574     56.056857   0.000000   0.000000
   20       59.214261     59.211504   0.000000   0.000000
   21       59.214261     59.211504   0.000000   0.000000
   22       59.214261     59.211504   0.000000   0.000000
   23       62.834197     62.833759   0.000000   0.000000
   24       62.834197     62.833759   0.000000   0.000000
   25       65.077167     65.073735   0.000000   0.000000
   26       65.077167     65.073735   0.000000   0.000000
   27       65.077167     65.073735   0.000000   0.000000
   28       73.178277     73.176901   0.000000   0.000000
   29       73.178277     73.176901   0.000000   0.000000
   30       73.178277     73.176902   0.000000   0.000000
   31       80.819414     80.818005   0.000000   0.000000
   32       83.078059     83.076441   0.000000   0.000000
   33       83.078059     83.076441   0.000000   0.000000
   34       87.206589     87.206281   0.000000   0.000000
   35       87.206591     87.206282   0.000000   0.000000
   36       87.206591     87.206284   0.000000   0.000000
   37       90.088914     90.083354   0.000000   0.000000
   38       90.088914     90.083354   0.000000   0.000000
   39       90.088914     90.083354   0.000000   0.000000
   40       90.897527     90.890613   0.000000   0.000000
   41       93.460280     93.460049   0.000000   0.000000
   42       93.460280     93.460049   0.000000   0.000000
   43       93.460280     93.460049   0.000000   0.000000
   44       93.934970     93.931897   0.000000   0.000000
   45       93.934970     93.931897   0.000000   0.000000
   46       93.934970     93.931897   0.000000   0.000000
   47       96.374425     96.374587   0.000000   0.000000
   48       96.374425     96.374588   0.000000   0.000000

  0.8333333E-01  0.1262107E-14  0.1262107E-14  0.4629630E-02
    1       -2.963187     -2.964854   1.000000   1.000000
    2       17.924078     17.922176   0.000000   0.000000
    3       19.964772     19.962758   0.000000   0.000000
    4       19.964772     19.962759   0.000000   0.000000
    5       22.667999     22.664709   0.000000   0.000000
    6       22.857504     22.853506   0.000000   0.000000
    7       22.857504     22.853507   0.000000   0.000000
    8       26.190739     26.189627   0.000000   0.000000
    9       26.344383     26.341609   0.000000   0.000000
   10       26.344383     26.341609   0.000000   0.000000
   11       29.513740     29.511115   0.000000   0.000000
   12       33.439933     33.438415   0.000000   0.000000
   13       33.863877     33.862428   0.000000   0.000000
   14       33.863877     33.862429   0.000000   0.000000
   15       41.804834     41.802244   0.000000   0.000000
   16       55.382626     55.382262   0.000000   0.000000
   17       55.712077     55.711014   0.000000   0.000000
   18       55.712077     55.711014   0.000000   0.000000
   19       56.346659     56.346315   0.000000   0.000000
   20       57.406470     57.404085   0.000000   0.000000
   21       57.406470     57.404086   0.000000   0.000000
   22       59.213613     59.211056   0.000000   0.000000
   23       61.615191     61.613942   0.000000   0.000000
   24       61.615191     61.613943   0.000000   0.000000
   25       65.246242     65.242778   0.000000   0.000000
   26       68.542151     68.539514   0.000000   0.000000
   27       68.542151     68.539514   0.000000   0.000000
   28       71.746109     71.744859   0.000000   0.000000
   29       73.008658     73.007121   0.000000   0.000000
   30       73.008659     73.007122   0.000000   0.000000
   31       82.037379     82.035367   0.000000   0.000000
   32       82.037379     82.035368   0.000000   0.000000
   33       82.271811     82.270282   0.000000   0.000000
   34       84.222217     84.219020   0.000000   0.000000
   35       85.969076     85.968550   0.000000   0.000000
   36       85.969076     85.968550   0.000000   0.000000
   37       88.245845     88.243455   0.000000   0.000000
   38       88.245845     88.243456   0.000000   0.000000
   39       89.377411     89.375942   0.000000   0.000000
   40       90.142330     90.136540   0.000000   0.000000
   41       91.469337     91.467562   0.000000   0.000000
   42       91.469337     91.467563   0.000000   0.000000
   43       92.798881     92.797405   0.000000   0.000000
   44       95.437872     95.437756   0.000000   0.000000
   45       95.503099     95.503433   0.000000   0.000000
   46       95.503099     95.503433   0.000000   0.000000
   47       96.803890     96.800696   0.000000   0.000000
   48       96.803891     96.800696   0.000000   0.000000

  0.1666667E+00  0.1267219E-14  0.1267219E-14  0.4629630E-02
    1       -2.400381     -2.402048   1.000000   1.000000
    2       14.571187     14.569338   0.000000   0.000000
    3       19.262560     19.260245   0.000000   0.000000
    4       19.262560     19.260246   0.000000   0.000000
    5       22.486575     22.483757   0.000000   0.000000
    6       23.918731     23.914701   0.000000   0.000000
    7       23.918731     23.914702   0.000000   0.000000
    8       25.177101     25.174948   0.000000   0.000000
    9       25.177101     25.174948   0.000000   0.000000
   10       28.165608     28.163140   0.000000   0.000000
   11       29.400056     29.398502   0.000000   0.000000
   12       35.857549     35.855462   0.000000   0.000000
   13       36.658587     36.656710   0.000000   0.000000
   14       36.658587     36.656711   0.000000   0.000000
   15       43.713776     43.711464   0.000000   0.000000
   16       52.471208     52.469108   0.000000   0.000000
   17       52.471208     52.469109   0.000000   0.000000
   18       54.159312     54.158723   0.000000   0.000000
   19       56.428796     56.427733   0.000000   0.000000
   20       56.428796     56.427733   0.000000   0.000000
   21       56.521639     56.521138   0.000000   0.000000
   22       58.966198     58.964125   0.000000   0.000000
   23       61.657571     61.656082   0.000000   0.000000
   24       61.657572     61.656083   0.000000   0.000000
   25       65.744093     65.740519   0.000000   0.000000
   26       69.326199     69.324863   0.000000   0.000000
   27       71.256239     71.254015   0.000000   0.000000
   28       71.256239     71.254016   0.000000   0.000000
   29       73.533405     73.531346   0.000000   0.000000
   30       73.533405     73.531347   0.000000   0.000000
   31       79.351655     79.349470   0.000000   0.000000
   32       79.351655     79.349470   0.000000   0.000000
   33       79.458483     79.454829   0.000000   0.000000
   34       83.385237     83.385447   0.000000   0.000000
   35       83.385237     83.385448   0.000000   0.000000
   36       85.482822     85.481491   0.000000   0.000000
   37       86.344856     86.343323   0.000000   0.000000
   38       86.588177     86.586703   0.000000   0.000000
   39       86.588177     86.586704   0.000000   0.000000
   40       87.507166     87.506276   0.000000   0.000000
   41       89.537549     89.532601   0.000000   0.000000
   42       90.157098     90.155023   0.000000   0.000000
   43       90.157098     90.155024   0.000000   0.000000
   44       93.996756     93.997155   0.000000   0.000000
   45       97.175829     97.175574   0.000000   0.000000
   46       97.175830     97.175574   0.000000   0.000000
   47       99.120435     99.118450   0.000000   0.000000
   48       99.120435     99.118450   0.000000   0.000000

  0.2500000E+00  0.1265975E-14  0.1265975E-14  0.4629630E-02
    1       -1.467259     -1.468926   1.000000   1.000000
    2       11.377696     11.375904   0.000000   0.000000
    3       18.820450     18.818029   0.000000   0.000000
    4       18.820450     18.818030   0.000000   0.000000
    5       22.257225     22.254597   0.000000   0.000000
    6       22.658782     22.655862   0.000000   0.000000
    7       22.658782     22.655862   0.000000   0.000000
    8       26.651510     26.649050   0.000000   0.000000
    9       26.774843     26.771733   0.000000   0.000000
   10       26.774843     26.771734   0.000000   0.000000
   11       32.501263     32.499450   0.000000   0.000000
   12       39.413689     39.411109   0.000000   0.000000
   13       39.950582     39.948335   0.000000   0.000000
   14       39.950582     39.948335   0.000000   0.000000
   15       46.284163     46.282214   0.000000   0.000000
   16       48.376204     48.374339   0.000000   0.000000
   17       48.376204     48.374340   0.000000   0.000000
   18       52.429353     52.428660   0.000000   0.000000
   19       56.369528     56.368581   0.000000   0.000000
   20       56.369529     56.368581   0.000000   0.000000
   21       56.721426     56.720730   0.000000   0.000000
   22       58.222789     58.221368   0.000000   0.000000
   23       62.067002     62.065320   0.000000   0.000000
   24       62.067002     62.065320   0.000000   0.000000
   25       66.544179     66.540390   0.000000   0.000000
   26       66.983582     66.981507   0.000000   0.000000
   27       68.865712     68.863203   0.000000   0.000000
   28       68.865713     68.863204   0.000000   0.000000
   29       74.535986     74.534926   0.000000   0.000000
   30       74.535988     74.534928   0.000000   0.000000
   31       76.540818     76.536857   0.000000   0.000000
   32       79.035632     79.034071   0.000000   0.000000
   33       79.035634     79.034072   0.000000   0.000000
   34       79.956316     79.956435   0.000000   0.000000
   35       80.433932     80.433372   0.000000   0.000000
   36       80.433932     80.433372   0.000000   0.000000
   37       82.037123     82.036041   0.000000   0.000000
   38       87.497384     87.495999   0.000000   0.000000
   39       87.497385     87.496002   0.000000   0.000000
   40       88.808690     88.805231   0.000000   0.000000
   41       89.585833     89.583762   0.000000   0.000000
   42       89.585835     89.583762   0.000000   0.000000
   43       90.501429     90.498839   0.000000   0.000000
   44       93.171988     93.171931   0.000000   0.000000
   45       97.398027     97.396834   0.000000   0.000000
   46       97.398042     97.396869   0.000000   0.000000
   47      101.374869    101.373608   0.000000   0.000000
   48      101.697972    101.697377   0.000000   0.000000

  0.3333333E+00  0.1237143E-14  0.1237143E-14  0.4629630E-02
    1       -0.170932     -0.172598   1.000000   1.000000
    2        8.442446      8.440690   0.252088   0.252928
    3       18.681249     18.678767   0.000000   0.000000
    4       18.681249     18.678768   0.000000   0.000000
    5       21.268750     21.266089   0.000000   0.000000
    6       21.268750     21.266090   0.000000   0.000000
    7       22.233928     22.231420   0.000000   0.000000
    8       25.227147     25.224654   0.000000   0.000000
    9       29.027045     29.023576   0.000000   0.000000
   10       29.027045     29.023576   0.000000   0.000000
   11       35.427255     35.425098   0.000000   0.000000
   12       42.383371     42.380626   0.000000   0.000000
   13       42.383371     42.380627   0.000000   0.000000
   14       43.563099     43.560037   0.000000   0.000000
   15       45.809974     45.808695   0.000000   0.000000
   16       45.809975     45.808696   0.000000   0.000000
   17       48.502754     48.501105   0.000000   0.000000
   18       51.114676     51.114339   0.000000   0.000000
   19       56.325286     56.324367   0.000000   0.000000
   20       56.325287     56.324368   0.000000   0.000000
   21       56.962417     56.961342   0.000000   0.000000
   22       56.977805     56.976987   0.000000   0.000000
   23       62.051257     62.048856   0.000000   0.000000
   24       62.051257     62.048858   0.000000   0.000000
   25       64.582024     64.578992   0.000000   0.000000
   26       65.157466     65.155768   0.000000   0.000000
   27       65.157466     65.155768   0.000000   0.000000
   28       67.571133     67.566955   0.000000   0.000000
   29       71.955477     71.953892   0.000000   0.000000
   30       73.980992     73.980152   0.000000   0.000000
   31       73.980994     73.980153   0.000000   0.000000
   32       76.654960     76.653323   0.000000   0.000000
   33       77.689472     77.689321   0.000000   0.000000
   34       77.689473     77.689321   0.000000   0.000000
   35       79.117104     79.116433   0.000000   0.000000
   36       80.309034     80.307600   0.000000   0.000000
   37       80.309034     80.307602   0.000000   0.000000
   38       88.583453     88.579691   0.000000   0.000000
   39       89.234207     89.232228   0.000000   0.000000
   40       89.234214     89.232230   0.000000   0.000000
   41       90.645154     90.643341   0.000000   0.000000
   42       90.645154     90.643341   0.000000   0.000000
   43       90.946707     90.946335   0.000000   0.000000
   44       93.872717     93.871577   0.000000   0.000000
   45       98.283750     98.282158   0.000000   0.000000
   46       98.283741     98.282167   0.000000   0.000000
   47      101.823914    101.821647   0.000000   0.000000
   48      103.862607    103.862051   0.000000   0.000000

  0.4166667E+00  0.1248944E-14  0.1248944E-14  0.4629630E-02
    1        1.478882      1.477223   1.000000   1.000000
    2        5.802897      5.801156   1.025695   1.025512
    3       18.854567     18.852011   0.000000   0.000000
    4       18.854567     18.852011   0.000000   0.000000
    5       20.153812     20.151298   0.000000   0.000000
    6       20.153812     20.151299   0.000000   0.000000
    7       22.505038     22.502654   0.000000   0.000000
    8       24.023649     24.021073   0.000000   0.000000
    9       31.351473     31.347446   0.000000   0.000000
   10       31.351473     31.347447   0.000000   0.000000
   11       38.086082     38.083348   0.000000   0.000000
   12       40.252989     40.251269   0.000000   0.000000
   13       40.252989     40.251269   0.000000   0.000000
   14       46.386306     46.384828   0.000000   0.000000
   15       48.316510     48.313787   0.000000   0.000000
   16       48.639746     48.637791   0.000000   0.000000
   17       48.639746     48.637791   0.000000   0.000000
   18       53.848622     53.848391   0.000000   0.000000
   19       55.219233     55.218219   0.000000   0.000000
   20       56.044649     56.043684   0.000000   0.000000
   21       56.044650     56.043684   0.000000   0.000000
   22       57.299314     57.298035   0.000000   0.000000
   23       59.193776     59.191118   0.000000   0.000000
   24       59.193776     59.191118   0.000000   0.000000
   25       62.497812     62.494642   0.000000   0.000000
   26       64.173235     64.172103   0.000000   0.000000
   27       64.173235     64.172103   0.000000   0.000000
   28       65.855663     65.854786   0.000000   0.000000
   29       68.613086     68.608287   0.000000   0.000000
   30       73.663343     73.662522   0.000000   0.000000
   31       73.663346     73.662524   0.000000   0.000000
   32       75.977518     75.977093   0.000000   0.000000
   33       75.977519     75.977094   0.000000   0.000000
   34       76.710265     76.708207   0.000000   0.000000
   35       76.939764     76.939728   0.000000   0.000000
   36       80.528661     80.527799   0.000000   0.000000
   37       80.528662     80.527801   0.000000   0.000000
   38       88.538602     88.534835   0.000000   0.000000
   39       88.958315     88.956432   0.000000   0.000000
   40       88.958324     88.956427   0.000000   0.000000
   41       89.659252     89.659084   0.000000   0.000000
   42       94.106955     94.105108   0.000000   0.000000
   43       94.106954     94.105110   0.000000   0.000000
   44       94.319768     94.319193   0.000000   0.000000
   45      100.470442    100.468941   0.000000   0.000000
   46      100.470668    100.469064   0.000000   0.000000
   47      104.028838    104.025972   0.000000   0.000000
   48      104.255227    104.253771   0.000000   0.000000

  0.5000000E+00  0.1247534E-14  0.1247534E-14  0.2314815E-02
    1        3.375191      3.374054   1.000000   1.000000
    2        3.575859      3.573603   1.000000   1.000000
    3       19.305630     19.301939   0.000000   0.000000
    4       19.305630     19.301939   0.000000   0.000000
    5       19.386599     19.385241   0.000000   0.000000
    6       19.386599     19.385242   0.000000   0.000000
    7       23.042791     23.041919   0.000000   0.000000
    8       23.165769     23.161691   0.000000   0.000000
    9       32.671650     32.666953   0.000000   0.000000
   10       32.671650     32.666954   0.000000   0.000000
   11       38.689766     38.688809   0.000000   0.000000
   12       38.689766     38.688810   0.000000   0.000000
   13       39.485926     39.482559   0.000000   0.000000
   14       45.405021     45.404838   0.000000   0.000000
   15       50.568688     50.564972   0.000000   0.000000
   16       51.534723     51.532369   0.000000   0.000000
   17       51.534723     51.532369   0.000000   0.000000
   18       53.502310     53.501216   0.000000   0.000000
   19       54.652107     54.650737   0.000000   0.000000
   20       54.652107     54.650737   0.000000   0.000000
   21       56.247681     56.247439   0.000000   0.000000
   22       57.503014     57.501142   0.000000   0.000000
   23       57.503015     57.501142   0.000000   0.000000
   24       58.421723     58.419967   0.000000   0.000000
   25       60.612513     60.611922   0.000000   0.000000
   26       62.630520     62.627937   0.000000   0.000000
   27       64.275255     64.274069   0.000000   0.000000
   28       64.275255     64.274070   0.000000   0.000000
   29       69.123241     69.117984   0.000000   0.000000
   30       73.579460     73.578671   0.000000   0.000000
   31       73.579461     73.578671   0.000000   0.000000
   32       75.333115     75.332580   0.000000   0.000000
   33       75.333115     75.332581   0.000000   0.000000
   34       76.051804     76.052230   0.000000   0.000000
   35       76.948616     76.946492   0.000000   0.000000
   36       80.545143     80.544433   0.000000   0.000000
   37       80.545144     80.544435   0.000000   0.000000
   38       88.686923     88.681671   0.000000   0.000000
   39       88.848442     88.846580   0.000000   0.000000
   40       88.848442     88.846582   0.000000   0.000000
   41       88.941292     88.942631   0.000000   0.000000
   42       94.133205     94.132796   0.000000   0.000000
   43       95.545809     95.543985   0.000000   0.000000
   44       95.545810     95.543986   0.000000   0.000000
   45      101.359792    101.359226   0.000000   0.000000
   46      101.359792    101.359226   0.000000   0.000000
   47      107.180171    107.177022   0.000000   0.000000
   48      107.180172    107.177022   0.000000   0.000000

  0.8333333E-01  0.8333333E-01  0.1262379E-14  0.3472222E-02
    1       -2.900537     -2.902204   1.000000   1.000000
    2       18.817009     18.814769   0.000000   0.000000
    3       18.817009     18.814769   0.000000   0.000000
    4       19.119810     19.118762   0.000000   0.000000
    5       21.424298     21.419742   0.000000   0.000000
    6       24.082833     24.079040   0.000000   0.000000
    7       24.082833     24.079040   0.000000   0.000000
    8       24.667159     24.664713   0.000000   0.000000
    9       26.299333     26.298647   0.000000   0.000000
   10       27.546875     27.543557   0.000000   0.000000
   11       30.482008     30.478906   0.000000   0.000000
   12       32.800615     32.799713   0.000000   0.000000
   13       32.800615     32.799714   0.000000   0.000000
   14       35.248828     35.246846   0.000000   0.000000
   15       42.155883     42.153356   0.000000   0.000000
   16       55.382398     55.381066   0.000000   0.000000
   17       55.382398     55.381066   0.000000   0.000000
   18       55.489870     55.489858   0.000000   0.000000
   19       56.507002     56.506500   0.000000   0.000000
   20       57.610125     57.607798   0.000000   0.000000
   21       57.610125     57.607798   0.000000   0.000000
   22       58.327389     58.325886   0.000000   0.000000
   23       59.379861     59.377092   0.000000   0.000000
   24       62.779085     62.778616   0.000000   0.000000
   25       67.191692     67.188431   0.000000   0.000000
   26       67.191692     67.188431   0.000000   0.000000
   27       69.908643     69.906386   0.000000   0.000000
   28       70.737041     70.735381   0.000000   0.000000
   29       73.400846     73.399631   0.000000   0.000000
   30       73.400847     73.399632   0.000000   0.000000
   31       80.845289     80.843281   0.000000   0.000000
   32       82.640882     82.639182   0.000000   0.000000
   33       83.252153     83.249812   0.000000   0.000000
   34       83.252154     83.249812   0.000000   0.000000
   35       83.789954     83.788512   0.000000   0.000000
   36       83.907741     83.904470   0.000000   0.000000
   37       89.206012     89.207813   0.000000   0.000000
   38       90.020760     90.019005   0.000000   0.000000
   39       90.020760     90.019005   0.000000   0.000000
   40       90.335315     90.333188   0.000000   0.000000
   41       90.335315     90.333188   0.000000   0.000000
   42       92.331212     92.329307   0.000000   0.000000
   43       92.746086     92.741197   0.000000   0.000000
   44       94.137787     94.133544   0.000000   0.000000
   45       94.594982     94.594761   0.000000   0.000000
   46       97.620316     97.618527   0.000000   0.000000
   47       97.620319     97.618528   0.000000   0.000000
   48       98.179556     98.178288   0.000000   0.000000

  0.1666667E+00  0.8333333E-01  0.1261691E-14  0.1388889E-01
    1       -2.462786     -2.464453   1.000000   1.000000
    2       15.773396     15.771576   0.000000   0.000000
    3       17.939479     17.937175   0.000000   0.000000
    4       19.220020     19.218156   0.000000   0.000000
    5       21.784386     21.779820   0.000000   0.000000
    6       22.721015     22.719223   0.000000   0.000000
    7       24.462504     24.459383   0.000000   0.000000
    8       25.449220     25.445104   0.000000   0.000000
    9       26.989664     26.986996   0.000000   0.000000
   10       28.975087     28.973503   0.000000   0.000000
   11       29.904991     29.902576   0.000000   0.000000
   12       34.411151     34.409874   0.000000   0.000000
   13       34.612875     34.611299   0.000000   0.000000
   14       37.368071     37.365684   0.000000   0.000000
   15       43.894209     43.891920   0.000000   0.000000
   16       52.481841     52.479799   0.000000   0.000000
   17       53.365325     53.363526   0.000000   0.000000
   18       55.495626     55.495120   0.000000   0.000000
   19       55.815544     55.814721   0.000000   0.000000
   20       56.323274     56.322267   0.000000   0.000000
   21       56.974705     56.973534   0.000000   0.000000
   22       58.231789     58.229719   0.000000   0.000000
   23       59.372825     59.370328   0.000000   0.000000
   24       62.311008     62.310142   0.000000   0.000000
   25       67.943568     67.941537   0.000000   0.000000
   26       68.064203     68.061045   0.000000   0.000000
   27       71.076928     71.074351   0.000000   0.000000
   28       72.402564     72.400954   0.000000   0.000000
   29       72.619941     72.618412   0.000000   0.000000
   30       74.368815     74.367309   0.000000   0.000000
   31       78.079343     78.077019   0.000000   0.000000
   32       79.218778     79.215900   0.000000   0.000000
   33       81.012671     81.009845   0.000000   0.000000
   34       82.209603     82.207664   0.000000   0.000000
   35       82.679498     82.678147   0.000000   0.000000
   36       84.647283     84.646518   0.000000   0.000000
   37       86.045993     86.044694   0.000000   0.000000
   38       86.657105     86.655364   0.000000   0.000000
   39       89.245143     89.244150   0.000000   0.000000
   40       89.417356     89.415385   0.000000   0.000000
   41       90.250279     90.249512   0.000000   0.000000
   42       91.537287     91.536867   0.000000   0.000000
   43       93.819791     93.817966   0.000000   0.000000
   44       94.079316     94.075912   0.000000   0.000000
   45       94.477620     94.475694   0.000000   0.000000
   46       96.289998     96.288162   0.000000   0.000000
   47       97.165685     97.165425   0.000000   0.000000
   48       97.269373     97.268140   0.000000   0.000000

  0.2500000E+00  0.8333333E-01  0.1267219E-14  0.1388889E-01
    1       -1.653388     -1.655055   1.000000   1.000000
    2       12.548717     12.546930   0.000000   0.000000
    3       17.369198     17.366867   0.000000   0.000000
    4       18.881858     18.879655   0.000000   0.000000
    5       20.680768     20.677982   0.000000   0.000000
    6       23.581320     23.577809   0.000000   0.000000
    7       24.367753     24.365263   0.000000   0.000000
    8       24.920218     24.916868   0.000000   0.000000
    9       27.899485     27.896284   0.000000   0.000000
   10       28.427710     28.425320   0.000000   0.000000
   11       32.196995     32.195195   0.000000   0.000000
   12       37.394678     37.392939   0.000000   0.000000
   13       38.053902     38.051808   0.000000   0.000000
   14       40.109671     40.107000   0.000000   0.000000
   15       46.440609     46.438596   0.000000   0.000000
   16       48.230244     48.228398   0.000000   0.000000
   17       50.009076     50.007110   0.000000   0.000000
   18       53.987353     53.986474   0.000000   0.000000
   19       55.605969     55.605592   0.000000   0.000000
   20       56.246952     56.246035   0.000000   0.000000
   21       57.085563     57.084392   0.000000   0.000000
   22       58.745570     58.743392   0.000000   0.000000
   23       58.807128     58.805280   0.000000   0.000000
   24       62.418988     62.417841   0.000000   0.000000
   25       65.835789     65.833494   0.000000   0.000000
   26       68.546903     68.543652   0.000000   0.000000
   27       69.674217     69.671743   0.000000   0.000000
   28       71.738219     71.736881   0.000000   0.000000
   29       72.769545     72.768415   0.000000   0.000000
   30       74.657323     74.654745   0.000000   0.000000
   31       76.580232     76.577379   0.000000   0.000000
   32       77.147331     77.146444   0.000000   0.000000
   33       79.455110     79.452786   0.000000   0.000000
   34       81.237082     81.235496   0.000000   0.000000
   35       81.261566     81.260565   0.000000   0.000000
   36       81.974506     81.972817   0.000000   0.000000
   37       83.398169     83.398092   0.000000   0.000000
   38       86.323936     86.321981   0.000000   0.000000
   39       86.827738     86.825385   0.000000   0.000000
   40       87.157166     87.156535   0.000000   0.000000
   41       90.576385     90.574574   0.000000   0.000000
   42       92.251686     92.251470   0.000000   0.000000
   43       92.510090     92.508183   0.000000   0.000000
   44       93.829979     93.826973   0.000000   0.000000
   45       94.597179     94.595610   0.000000   0.000000
   46       97.161544     97.160594   0.000000   0.000000
   47       99.361038     99.360151   0.000000   0.000000
   48      100.192356    100.191913   0.000000   0.000000

  0.3333333E+00  0.8333333E-01  0.1266309E-14  0.1388889E-01
    1       -0.478571     -0.480237   1.000000   1.000000
    2        9.536431      9.534675  -0.059775  -0.059729
    3       17.114175     17.111823   0.000000   0.000000
    4       18.679892     18.677826   0.000000   0.000000
    5       19.132895     19.130085   0.000000   0.000000
    6       23.540934     23.537978   0.000000   0.000000
    7       24.094677     24.091436   0.000000   0.000000
    8       25.760546     25.757819   0.000000   0.000000
    9       27.183781     27.181347   0.000000   0.000000
   10       29.970708     29.967035   0.000000   0.000000
   11       35.198344     35.196196   0.000000   0.000000
   12       40.514511     40.512271   0.000000   0.000000
   13       42.251376     42.248707   0.000000   0.000000
   14       42.910497     42.907506   0.000000   0.000000
   15       44.715023     44.713718   0.000000   0.000000
   16       46.745795     46.744339   0.000000   0.000000
   17       49.157445     49.155564   0.000000   0.000000
   18       52.202103     52.201515   0.000000   0.000000
   19       55.701003     55.700546   0.000000   0.000000
   20       56.286007     56.285124   0.000000   0.000000
   21       57.058681     57.057215   0.000000   0.000000
   22       57.735672     57.734605   0.000000   0.000000