       N       E                     dE             d eps       ncg     rms          rms(c)
DAV:   1    -0.363749721821E+01   -0.36375E+01   -0.86376E+02 19392   0.339E+01
DAV:   2    -0.368616421192E+01   -0.48667E-01   -0.48447E-01 18096   0.108E+00
DAV:   3    -0.368616619708E+01   -0.19852E-05   -0.19462E-05 20064   0.660E-03
DAV:   4    -0.368616619785E+01   -0.77868E-09   -0.85939E-11 20688   0.933E-06
DAV:   5    -0.368616619694E+01    0.91389E-09   -0.39937E-13 19440   0.427E-09    0.177E+00
RMM:   6    -0.375869605183E+01   -0.72530E-01   -0.25257E-03 13828   0.785E-02    0.835E-01
RMM:   7    -0.375051406976E+01    0.81820E-02   -0.99540E-04 14305   0.475E-02    0.678E-01
RMM:   8    -0.375041750756E+01    0.96562E-04   -0.20486E-04 14285   0.239E-02    0.227E-01
RMM:   9    -0.375043854704E+01   -0.21039E-04   -0.29363E-05 14947   0.835E-03
   1 F= -.37504385E+01 E0= -.37504385E+01  d E =0.000000E+00  mag=     0.0014
