 vasp.6.2.1 16May21 (build Aug 15 2022 14:47:30) complex                         
 executed on             LinuxGNU date 2025.12.11  13:46:06
 running on   48 total cores
 distrk:  each k-point on   48 cores,    1 groups
 distr:  one band on NCORE=   1 cores,   48 groups


--------------------------------------------------------------------------------------------------------


 INCAR:
   ALGO = Fast
   EDIFF = 5e-05
   ENCUT = 520.0
   ISMEAR = -5
   ISPIN = 2
   LASPH = True
   LCHARG = True
   LORBIT = 11
   LREAL = False
   LWAVE = False
   MAGMOM = 1*0.6
   NELM = 100
   NSW = 0
   PREC = Accurate
   SIGMA = 0.05

 POTCAR:    PAW_PBE Al 04Jan2001                  
 -----------------------------------------------------------------------------
|                                                                             |
|           W    W    AA    RRRRR   N    N  II  N    N   GGGG   !!!           |
|           W    W   A  A   R    R  NN   N  II  NN   N  G    G  !!!           |
|           W    W  A    A  R    R  N N  N  II  N N  N  G       !!!           |
|           W WW W  AAAAAA  RRRRR   N  N N  II  N  N N  G  GGG   !            |
|           WW  WW  A    A  R   R   N   NN  II  N   NN  G    G                |
|           W    W  A    A  R    R  N    N  II  N    N   GGGG   !!!           |
|                                                                             |
|     For optimal performance we recommend to set                             |
|       NCORE = 2 up to number-of-cores-per-socket                            |
|     NCORE specifies how many cores store one orbital (NPAR=cpu/NCORE).      |
|     This setting can greatly improve the performance of VASP for DFT.       |
|     The default, NCORE=1 might be grossly inefficient on modern             |
|     multi-core architectures or massively parallel machines. Do your        |
|     own testing! More info at https://www.vasp.at/wiki/index.php/NCORE      |
|     Unfortunately you need to use the default for GW and RPA                |
|     calculations (for HF NCORE is supported but not extensively tested      |
|     yet).                                                                   |
|                                                                             |
 -----------------------------------------------------------------------------

 POTCAR:    PAW_PBE Al 04Jan2001                  
   VRHFIN =Al: s2p1                                                                                 
   LEXCH  = PE                                                                                      
   EATOM  =    53.5387 eV,    3.9350 Ry                                                             
                                                                                                    
   TITEL  = PAW_PBE Al 04Jan2001                                                                    
   LULTRA =        F    use ultrasoft PP ?                                                          
   IUNSCR =        1    unscreen: 0-lin 1-nonlin 2-no                                               
   RPACOR =    1.500    partial core radius                                                         
   POMASS =   26.981; ZVAL   =    3.000    mass and valenz                                          
   RCORE  =    1.900    outmost cutoff radius                                                       
   RWIGS  =    2.650; RWIGS  =    1.402    wigner-seitz radius (au A)                               
   ENMAX  =  240.300; ENMIN  =  180.225 eV                                                          
   ICORE  =        2    local potential                                                             
   LCOR   =        T    correct aug charges                                                         
   LPAW   =        T    paw PP                                                                      
   EAUG   =  291.052                                                                                
   DEXC   =    0.000                                                                                
   RMAX   =    1.939    core radius for proj-oper                                                   
   RAUG   =    1.300    factor for augmentation sphere                                              
   RDEP   =    1.966    radius for radial grids                                                     
   RDEPT  =    1.856    core radius for aug-charge                                                  
                                                                                                    
   Atomic configuration                                                                             
    6 entries                                                                                       
     n  l   j            E        occ.                                                              
     1  0  0.50     -1511.1048   2.0000                                                             
     2  0  0.50      -108.1629   2.0000                                                             
     2  1  1.50       -69.6402   6.0000                                                             
     3  0  0.50        -7.7528   2.0000                                                             
     3  1  1.50        -2.7121   1.0000                                                             
     3  2  2.50        -2.7212   0.0000                                                             
   Description                                                                                      
     l       E           TYP  RCUT    TYP  RCUT                                                     
     0     -7.7528455     23  1.900                                                                 
     0     -3.3096929     23  1.900                                                                 
     1     -2.7120682     23  1.900                                                                 
     1     13.6058260     23  1.900                                                                 
     2     -2.7211652      7  1.900                                                                 
  local pseudopotential read in
  partial core-charges read in
  partial kinetic energy density read in
  atomic valenz-charges read in
  non local Contribution for L=           0  read in
    real space projection operators read in
  non local Contribution for L=           0  read in
    real space projection operators read in
  non local Contribution for L=           1  read in
    real space projection operators read in
  non local Contribution for L=           1  read in
    real space projection operators read in
    PAW grid and wavefunctions read in

   number of l-projection  operators is LMAX  =           4
   number of lm-projection operators is LMMAX =           8

  PAW_PBE Al 04Jan2001                  :
 energy of atom  1       EATOM=  -53.5387
 kinetic energy error for atom=    0.0002 (will be added to EATOM!!)


 POSCAR: # Generated by Masgent for k-point conve
  positions in direct lattice
  No initial velocities read in
 exchange correlation table for  LEXCH =        8
   RHO(1)=    0.500       N(1)  =     2000
   RHO(2)=  100.500       N(2)  =     4000

 VTST: version 4.2, (08/11/21)

 CHAIN: initializing optimizer
 
 OPT: Using VASP Dynamics algorithm
 CHAIN: Read ICHAIN            0

 POSCAR: # Generated by Masgent for k-point conve
  positions in direct lattice
  No initial velocities read in



--------------------------------------------------------------------------------------------------------


 ion  position               nearest neighbor table
   1  0.000  0.000  0.000-

  LATTYP: Found a face centered cubic cell.
 ALAT       =     4.0480000000
  
  Lattice vectors:
  
 A1 = (   0.0000000000,   2.0240000000,   2.0240000000)
 A2 = (   2.0240000000,   0.0000000000,   2.0240000000)
 A3 = (   2.0240000000,   2.0240000000,   0.0000000000)


Analysis of symmetry for initial positions (statically):
=====================================================================
 Subroutine PRICEL returns:
 Original cell was already a primitive cell.
 

 Routine SETGRP: Setting up the symmetry group for a 
 face centered cubic supercell.


 Subroutine GETGRP returns: Found 48 space group operations
 (whereof 48 operations were pure point group operations)
 out of a pool of 48 trial point group operations.


The static configuration has the point symmetry O_h .


Analysis of symmetry for dynamics (positions and initial velocities):
=====================================================================
 Subroutine PRICEL returns:
 Original cell was already a primitive cell.
 

 Routine SETGRP: Setting up the symmetry group for a 
 face centered cubic supercell.


 Subroutine GETGRP returns: Found 48 space group operations
 (whereof 48 operations were pure point group operations)
 out of a pool of 48 trial point group operations.


The dynamic configuration has the point symmetry O_h .


Analysis of structural, dynamic, and magnetic symmetry:
=====================================================================
 Subroutine PRICEL returns:
 Original cell was already a primitive cell.
 

 Routine SETGRP: Setting up the symmetry group for a 
 face centered cubic supercell.


 Subroutine GETGRP returns: Found 48 space group operations
 (whereof 48 operations were pure point group operations)
 out of a pool of 48 trial point group operations.


The overall configuration has the point symmetry O_h .


 Subroutine INISYM returns: Found 48 space group operations
 (whereof 48 operations are pure point group operations),
 and found     1 'primitive' translations


----------------------------------------------------------------------------------------

                                     Primitive cell                                     

  volume of cell :      16.5829

  direct lattice vectors                    reciprocal lattice vectors
     0.000000000  2.024000000  2.024000000    -0.247035573  0.247035573  0.247035573
     2.024000000  0.000000000  2.024000000     0.247035573 -0.247035573  0.247035573
     2.024000000  2.024000000  0.000000000     0.247035573  0.247035573 -0.247035573

  length of vectors
     2.862368250  2.862368250  2.862368250     0.427878164  0.427878164  0.427878164

  position of ions in fractional coordinates (direct lattice)
     0.000000000  0.000000000  0.000000000

  ion indices of the primitive-cell ions
   primitive index   ion index
                 1           1

----------------------------------------------------------------------------------------



 KPOINTS: # Generated by Masgent for k-point conve

Automatic generation of k-mesh.
 Grid dimensions read from file:
 generate k-points for:   12   12   12

 Generating k-lattice:

  Cartesian coordinates                     Fractional coordinates (reciprocal lattice)
    -0.020586298  0.020586298  0.020586298     0.083333333  0.000000000  0.000000000
     0.020586298 -0.020586298  0.020586298     0.000000000  0.083333333  0.000000000
     0.020586298  0.020586298 -0.020586298     0.000000000  0.000000000  0.083333333

  Length of vectors
     0.035656514  0.035656514  0.035656514

  Shift w.r.t. Gamma in fractional coordinates (k-lattice)
     0.000000000  0.000000000  0.000000000

 TETIRR: Found    247 inequivalent tetrahedra from    10368
 
 Subroutine IBZKPT returns following result:
 ===========================================
 
 Found     72 irreducible k-points:
 
 Following reciprocal coordinates:
            Coordinates               Weight
  0.000000  0.000000  0.000000      1.000000
  0.083333  0.000000  0.000000      8.000000
  0.166667  0.000000  0.000000      8.000000
  0.250000  0.000000  0.000000      8.000000
  0.333333  0.000000  0.000000      8.000000
  0.416667  0.000000  0.000000      8.000000
  0.500000  0.000000  0.000000      4.000000
  0.083333  0.083333  0.000000      6.000000
  0.166667  0.083333  0.000000     24.000000
  0.250000  0.083333  0.000000     24.000000
  0.333333  0.083333  0.000000     24.000000
  0.416667  0.083333  0.000000     24.000000
  0.500000  0.083333  0.000000     24.000000
 -0.416667  0.083333  0.000000     24.000000
 -0.333333  0.083333  0.000000     24.000000
 -0.250000  0.083333  0.000000     24.000000
 -0.166667  0.083333  0.000000     24.000000
 -0.083333  0.083333  0.000000     12.000000
  0.166667  0.166667  0.000000      6.000000
  0.250000  0.166667  0.000000     24.000000
  0.333333  0.166667  0.000000     24.000000
  0.416667  0.166667  0.000000     24.000000
  0.500000  0.166667  0.000000     24.000000
 -0.416667  0.166667  0.000000     24.000000
 -0.333333  0.166667  0.000000     24.000000
 -0.250000  0.166667  0.000000     24.000000
 -0.166667  0.166667  0.000000     12.000000
  0.250000  0.250000  0.000000      6.000000
  0.333333  0.250000  0.000000     24.000000
  0.416667  0.250000  0.000000     24.000000
  0.500000  0.250000  0.000000     24.000000
 -0.416667  0.250000  0.000000     24.000000
 -0.333333  0.250000  0.000000     24.000000
 -0.250000  0.250000  0.000000     12.000000
  0.333333  0.333333  0.000000      6.000000
  0.416667  0.333333  0.000000     24.000000
  0.500000  0.333333  0.000000     24.000000
 -0.416667  0.333333  0.000000     24.000000
 -0.333333  0.333333  0.000000     12.000000
  0.416667  0.416667  0.000000      6.000000
  0.500000  0.416667  0.000000     24.000000
 -0.416667  0.416667  0.000000     12.000000
  0.500000  0.500000  0.000000      3.000000
  0.250000  0.166667  0.083333     24.000000
  0.333333  0.166667  0.083333     48.000000
  0.416667  0.166667  0.083333     48.000000
  0.500000  0.166667  0.083333     48.000000
 -0.416667  0.166667  0.083333     24.000000
  0.333333  0.250000  0.083333     24.000000
  0.416667  0.250000  0.083333     48.000000
  0.500000  0.250000  0.083333     48.000000
 -0.416667  0.250000  0.083333     48.000000
 -0.333333  0.250000  0.083333     48.000000
 -0.250000  0.250000  0.083333     48.000000
 -0.166667  0.250000  0.083333     24.000000
  0.416667  0.333333  0.083333     24.000000
  0.500000  0.333333  0.083333     48.000000
 -0.416667  0.333333  0.083333     48.000000
 -0.333333  0.333333  0.083333     48.000000
 -0.250000  0.333333  0.083333     24.000000
  0.500000  0.416667  0.083333     24.000000
 -0.416667  0.416667  0.083333     48.000000
 -0.333333  0.416667  0.083333     24.000000
 -0.416667  0.500000  0.083333     12.000000
  0.500000  0.333333  0.166667     24.000000
 -0.416667  0.333333  0.166667     48.000000
 -0.333333  0.333333  0.166667     24.000000
 -0.416667  0.416667  0.166667     24.000000
 -0.333333  0.416667  0.166667     48.000000
 -0.250000  0.416667  0.166667     24.000000
 -0.333333  0.500000  0.166667     12.000000
 -0.250000  0.500000  0.250000      6.000000
 
 Following cartesian coordinates:
            Coordinates               Weight
  0.000000  0.000000  0.000000      1.000000
 -0.020586  0.020586  0.020586      8.000000
 -0.041173  0.041173  0.041173      8.000000
 -0.061759  0.061759  0.061759      8.000000
 -0.082345  0.082345  0.082345      8.000000
 -0.102931  0.102931  0.102931      8.000000
 -0.123518  0.123518  0.123518      4.000000
  0.000000  0.000000  0.041173      6.000000
 -0.020586  0.020586  0.061759     24.000000
 -0.041173  0.041173  0.082345     24.000000
 -0.061759  0.061759  0.102931     24.000000
 -0.082345  0.082345  0.123518     24.000000
 -0.102931  0.102931  0.144104     24.000000
  0.123518 -0.123518 -0.082345     24.000000
  0.102931 -0.102931 -0.061759     24.000000
  0.082345 -0.082345 -0.041173     24.000000
  0.061759 -0.061759 -0.020586     24.000000
  0.041173 -0.041173  0.000000     12.000000
  0.000000  0.000000  0.082345      6.000000
 -0.020586  0.020586  0.102931     24.000000
 -0.041173  0.041173  0.123518     24.000000
 -0.061759  0.061759  0.144104     24.000000
 -0.082345  0.082345  0.164690     24.000000
  0.144104 -0.144104 -0.061759     24.000000
  0.123518 -0.123518 -0.041173     24.000000
  0.102931 -0.102931 -0.020586     24.000000
  0.082345 -0.082345  0.000000     12.000000
  0.000000  0.000000  0.123518      6.000000
 -0.020586  0.020586  0.144104     24.000000
 -0.041173  0.041173  0.164690     24.000000
 -0.061759  0.061759  0.185277     24.000000
  0.164690 -0.164690 -0.041173     24.000000
  0.144104 -0.144104 -0.020586     24.000000
  0.123518 -0.123518  0.000000     12.000000
  0.000000  0.000000  0.164690      6.000000
 -0.020586  0.020586  0.185277     24.000000
 -0.041173  0.041173  0.205863     24.000000
  0.185277 -0.185277 -0.020586     24.000000
  0.164690 -0.164690  0.000000     12.000000
  0.000000  0.000000  0.205863      6.000000
 -0.020586  0.020586  0.226449     24.000000
  0.205863 -0.205863  0.000000     12.000000
  0.000000  0.000000  0.247036      3.000000
  0.000000  0.041173  0.082345     24.000000
 -0.020586  0.061759  0.102931     48.000000
 -0.041173  0.082345  0.123518     48.000000
 -0.061759  0.102931  0.144104     48.000000
  0.164690 -0.123518 -0.082345     24.000000
  0.000000  0.041173  0.123518     24.000000
 -0.020586  0.061759  0.144104     48.000000
 -0.041173  0.082345  0.164690     48.000000
  0.185277 -0.144104 -0.061759     48.000000
  0.164690 -0.123518 -0.041173     48.000000
  0.144104 -0.102931 -0.020586     48.000000
  0.123518 -0.082345  0.000000     24.000000
  0.000000  0.041173  0.164690     24.000000
 -0.020586  0.061759  0.185277     48.000000
  0.205863 -0.164690 -0.041173     48.000000
  0.185277 -0.144104 -0.020586     48.000000
  0.164690 -0.123518  0.000000     24.000000
  0.000000  0.041173  0.205863     24.000000
  0.226449 -0.185277 -0.020586     48.000000
  0.205863 -0.164690 -0.000000     24.000000
  0.247036 -0.205863  0.000000     12.000000
  0.000000  0.082345  0.164690     24.000000
  0.226449 -0.144104 -0.061759     48.000000
  0.205863 -0.123518 -0.041173     24.000000
  0.247036 -0.164690 -0.041173     24.000000
  0.226449 -0.144104 -0.020586     48.000000
  0.205863 -0.123518  0.000000     24.000000
  0.247036 -0.164690  0.000000     12.000000
  0.247036 -0.123518  0.000000      6.000000
 


--------------------------------------------------------------------------------------------------------




 Dimension of arrays:
   k-points           NKPTS =     72   k-points in BZ     NKDIM =     72   number of bands    NBANDS=     48
   number of dos      NEDOS =    301   number of ions     NIONS =      1
   non local maximal  LDIM  =      4   non local SUM 2l+1 LMDIM =      8
   total plane-waves  NPLWV =  13824
   max r-space proj   IRMAX =      1   max aug-charges    IRDMAX=  32640
   dimension x,y,z NGX =    24 NGY =   24 NGZ =   24
   dimension x,y,z NGXF=    48 NGYF=   48 NGZF=   48
   support grid    NGXF=    48 NGYF=   48 NGZF=   48
   ions per type =               1
   NGX,Y,Z   is equivalent  to a cutoff of  13.94, 13.94, 13.94 a.u.
   NGXF,Y,Z  is equivalent  to a cutoff of  27.88, 27.88, 27.88 a.u.

 SYSTEM =  unknown system                          
 POSCAR =  # Generated by Masgent for k-point conve

 Startparameter for this run:
   NWRITE =      2    write-flag & timer
   PREC   = accura    normal or accurate (medium, high low for compatibility)
   ISTART =      0    job   : 0-new  1-cont  2-samecut
   ICHARG =      2    charge: 1-file 2-atom 10-const
   ISPIN  =      2    spin polarized calculation?
   LNONCOLLINEAR =      F non collinear calculations
   LSORBIT =      F    spin-orbit coupling
   INIWAV =      1    electr: 0-lowe 1-rand  2-diag
   LASPH  =      T    aspherical Exc in radial PAW
 Electronic Relaxation 1
   ENCUT  =  520.0 eV  38.22 Ry    6.18 a.u.   5.32  5.32  5.32*2*pi/ulx,y,z
   ENINI  =  520.0     initial cutoff
   ENAUG  =  291.1 eV  augmentation charge cutoff
   NELM   =    100;   NELMIN=  2; NELMDL= -5     # of ELM steps 
   EDIFF  = 0.5E-04   stopping-criterion for ELM
   LREAL  =      F    real-space projection
   NLSPLINE    = F    spline interpolate recip. space projectors
   LCOMPAT=      F    compatible to vasp.4.4
   GGA_COMPAT  = T    GGA compatible to vasp.4.4-vasp.4.6
   LMAXPAW     = -100 max onsite density
   LMAXMIX     =    2 max onsite mixed and CHGCAR
   VOSKOWN=      0    Vosko Wilk Nusair interpolation
   ROPT   =    0.00000
 Ionic relaxation
   EDIFFG = 0.5E-03   stopping-criterion for IOM
   NSW    =      0    number of steps for IOM
   NBLOCK =      1;   KBLOCK =      1    inner block; outer block 
   IBRION =     -1    ionic relax: 0-MD 1-quasi-New 2-CG
   NFREE  =      0    steps in history (QN), initial steepest desc. (CG)
   ISIF   =      2    stress and relaxation
   IWAVPR =     10    prediction:  0-non 1-charg 2-wave 3-comb
   ISYM   =      2    0-nonsym 1-usesym 2-fastsym
   LCORR  =      T    Harris-Foulkes like correction to forces

   POTIM  = 0.5000    time-step for ionic-motion
   TEIN   =    0.0    initial temperature
   TEBEG  =    0.0;   TEEND  =   0.0 temperature during run
   SMASS  =  -3.00    Nose mass-parameter (am)
   estimated Nose-frequenzy (Omega)   =  0.10E-29 period in steps = 0.13E+47 mass=  -0.187E-27a.u.
   SCALEE = 1.0000    scale energy and forces
   NPACO  =    256;   APACO  = 16.0  distance and # of slots for P.C.
   PSTRESS=    0.0 pullay stress

  Mass of Ions in am
   POMASS =  26.98
  Ionic Valenz
   ZVAL   =   3.00
  Atomic Wigner-Seitz radii
   RWIGS  =  -1.00
  virtual crystal weights 
   VCA    =   1.00
   NELECT =       3.0000    total number of electrons
   NUPDOWN=      -1.0000    fix difference up-down

 DOS related values:
   EMIN   =  10.00;   EMAX   =-10.00  energy-range for DOS
   EFERMI =   0.00
   ISMEAR =    -5;   SIGMA  =   0.05  broadening in eV -4-tet -1-fermi 0-gaus

 Electronic relaxation 2 (details)
   IALGO  =     68    algorithm
   LDIAG  =      T    sub-space diagonalisation (order eigenvalues)
   LSUBROT=      F    optimize rotation matrix (better conditioning)
   TURBO    =      0    0=normal 1=particle mesh
   IRESTART =      0    0=no restart 2=restart with 2 vectors
   NREBOOT  =      0    no. of reboots
   NMIN     =      0    reboot dimension
   EREF     =   0.00    reference energy to select bands
   IMIX   =      4    mixing-type and parameters
     AMIX     =   0.40;   BMIX     =  1.00
     AMIX_MAG =   1.60;   BMIX_MAG =  1.00
     AMIN     =   0.10
     WC   =   100.;   INIMIX=   1;  MIXPRE=   1;  MAXMIX= -45

 Intra band minimization:
   WEIMIN = 0.0000     energy-eigenvalue tresh-hold
   EBREAK =  0.26E-06  absolut break condition
   DEPER  =   0.30     relativ break condition  

   TIME   =   0.40     timestep for ELM

  volume/ion in A,a.u.               =      16.58       111.91
  Fermi-wavevector in a.u.,A,eV,Ry     =   0.925894  1.749687 11.664006  0.857280
  Thomas-Fermi vector in A             =   2.051798

 Write flags
   LWAVE        =      F    write WAVECAR
   LDOWNSAMPLE  =      F    k-point downsampling of WAVECAR
   LCHARG       =      T    write CHGCAR
   LVTOT        =      F    write LOCPOT, total local potential
   LVHAR        =      F    write LOCPOT, Hartree potential only
   LELF         =      F    write electronic localiz. function (ELF)
   LORBIT       =     11    0 simple, 1 ext, 2 COOP (PROOUT), +10 PAW based schemes


 Dipole corrections
   LMONO  =      F    monopole corrections only (constant potential shift)
   LDIPOL =      F    correct potential (dipole corrections)
   IDIPOL =      0    1-x, 2-y, 3-z, 4-all directions 
   EPSILON=  1.0000000 bulk dielectric constant

 Exchange correlation treatment:
   GGA     =    --    GGA type
   LEXCH   =     8    internal setting for exchange type
   VOSKOWN=      0    Vosko Wilk Nusair interpolation
   LHFCALC =     F    Hartree Fock is set to
   LHFONE  =     F    Hartree Fock one center treatment
   AEXX    =    0.0000 exact exchange contribution

 Linear response parameters
   LEPSILON=     F    determine dielectric tensor
   LRPA    =     F    only Hartree local field effects (RPA)
   LNABLA  =     F    use nabla operator in PAW spheres
   LVEL    =     F    velocity operator in full k-point grid
   LINTERFAST=   F  fast interpolation
   KINTER  =     0    interpolate to denser k-point grid
   CSHIFT  =0.1000    complex shift for real part using Kramers Kronig
   OMEGAMAX=  -1.0    maximum frequency
   DEG_THRESHOLD= 0.2000000E-02 threshold for treating states as degnerate
   RTIME   =   -0.100 relaxation time in fs
  (WPLASMAI=    0.000 imaginary part of plasma frequency in eV, 0.658/RTIME)
   DFIELD  = 0.0000000 0.0000000 0.0000000 field for delta impulse in time

 Orbital magnetization related:
   ORBITALMAG=     F  switch on orbital magnetization
   LCHIMAG   =     F  perturbation theory with respect to B field
   DQ        =  0.001000  dq finite difference perturbation B field
   LLRAUG    =     F  two centre corrections for induced B field



--------------------------------------------------------------------------------------------------------


 Static calculation
 charge density and potential will be updated during run
 spin polarized calculation
 RMM-DIIS sequential band-by-band and
  variant of blocked Davidson during initial phase
 perform sub-space diagonalisation
    before iterative eigenvector-optimisation
 modified Broyden-mixing scheme, WC =      100.0
 initial mixing is a Kerker type mixing with AMIX =  0.4000 and BMIX =      1.0000
 Hartree-type preconditioning will be used
 using additional bands           46
 reciprocal scheme for non local part
 use partial core corrections
 calculate Harris-corrections to forces   (improved forces if not selfconsistent)
 use gradient corrections 
 use of overlap-Matrix (Vanderbilt PP)
 Fermi weights with tetrahedron method with Bloechl corrections


--------------------------------------------------------------------------------------------------------


  energy-cutoff  :      520.00
  volume of cell :       16.58
      direct lattice vectors                 reciprocal lattice vectors
     0.000000000  2.024000000  2.024000000    -0.247035573  0.247035573  0.247035573
     2.024000000  0.000000000  2.024000000     0.247035573 -0.247035573  0.247035573
     2.024000000  2.024000000  0.000000000     0.247035573  0.247035573 -0.247035573

  length of vectors
     2.862368250  2.862368250  2.862368250     0.427878164  0.427878164  0.427878164



 k-points in units of 2pi/SCALE and weight: # Generated by Masgent for k-point conve
   0.00000000  0.00000000  0.00000000       0.001
  -0.02058630  0.02058630  0.02058630       0.005
  -0.04117260  0.04117260  0.04117260       0.005
  -0.06175889  0.06175889  0.06175889       0.005
  -0.08234519  0.08234519  0.08234519       0.005
  -0.10293149  0.10293149  0.10293149       0.005
  -0.12351779  0.12351779  0.12351779       0.002
   0.00000000  0.00000000  0.04117260       0.003
  -0.02058630  0.02058630  0.06175889       0.014
  -0.04117260  0.04117260  0.08234519       0.014
  -0.06175889  0.06175889  0.10293149       0.014
  -0.08234519  0.08234519  0.12351779       0.014
  -0.10293149  0.10293149  0.14410408       0.014
   0.12351779 -0.12351779 -0.08234519       0.014
   0.10293149 -0.10293149 -0.06175889       0.014
   0.08234519 -0.08234519 -0.04117260       0.014
   0.06175889 -0.06175889 -0.02058630       0.014
   0.04117260 -0.04117260  0.00000000       0.007
   0.00000000  0.00000000  0.08234519       0.003
  -0.02058630  0.02058630  0.10293149       0.014
  -0.04117260  0.04117260  0.12351779       0.014
  -0.06175889  0.06175889  0.14410408       0.014
  -0.08234519  0.08234519  0.16469038       0.014
   0.14410408 -0.14410408 -0.06175889       0.014
   0.12351779 -0.12351779 -0.04117260       0.014
   0.10293149 -0.10293149 -0.02058630       0.014
   0.08234519 -0.08234519  0.00000000       0.007
   0.00000000  0.00000000  0.12351779       0.003
  -0.02058630  0.02058630  0.14410408       0.014
  -0.04117260  0.04117260  0.16469038       0.014
  -0.06175889  0.06175889  0.18527668       0.014
   0.16469038 -0.16469038 -0.04117260       0.014
   0.14410408 -0.14410408 -0.02058630       0.014
   0.12351779 -0.12351779  0.00000000       0.007
   0.00000000  0.00000000  0.16469038       0.003
  -0.02058630  0.02058630  0.18527668       0.014
  -0.04117260  0.04117260  0.20586298       0.014
   0.18527668 -0.18527668 -0.02058630       0.014
   0.16469038 -0.16469038  0.00000000       0.007
   0.00000000  0.00000000  0.20586298       0.003
  -0.02058630  0.02058630  0.22644928       0.014
   0.20586298 -0.20586298  0.00000000       0.007
   0.00000000  0.00000000  0.24703557       0.002
   0.00000000  0.04117260  0.08234519       0.014
  -0.02058630  0.06175889  0.10293149       0.028
  -0.04117260  0.08234519  0.12351779       0.028
  -0.06175889  0.10293149  0.14410408       0.028
   0.16469038 -0.12351779 -0.08234519       0.014
   0.00000000  0.04117260  0.12351779       0.014
  -0.02058630  0.06175889  0.14410408       0.028
  -0.04117260  0.08234519  0.16469038       0.028
   0.18527668 -0.14410408 -0.06175889       0.028
   0.16469038 -0.12351779 -0.04117260       0.028
   0.14410408 -0.10293149 -0.02058630       0.028
   0.12351779 -0.08234519  0.00000000       0.014
   0.00000000  0.04117260  0.16469038       0.014
  -0.02058630  0.06175889  0.18527668       0.028
   0.20586298 -0.16469038 -0.04117260       0.028
   0.18527668 -0.14410408 -0.02058630       0.028
   0.16469038 -0.12351779  0.00000000       0.014
   0.00000000  0.04117260  0.20586298       0.014
   0.22644928 -0.18527668 -0.02058630       0.028
   0.20586298 -0.16469038 -0.00000000       0.014
   0.24703557 -0.20586298  0.00000000       0.007
   0.00000000  0.08234519  0.16469038       0.014
   0.22644928 -0.14410408 -0.06175889       0.028
   0.20586298 -0.12351779 -0.04117260       0.014
   0.24703557 -0.16469038 -0.04117260       0.014
   0.22644928 -0.14410408 -0.02058630       0.028
   0.20586298 -0.12351779  0.00000000       0.014
   0.24703557 -0.16469038  0.00000000       0.007
   0.24703557 -0.12351779  0.00000000       0.003

 k-points in reciprocal lattice and weights: # Generated by Masgent for k-point conve
   0.00000000  0.00000000  0.00000000       0.001
   0.08333333  0.00000000  0.00000000       0.005
   0.16666667  0.00000000  0.00000000       0.005
   0.25000000  0.00000000  0.00000000       0.005
   0.33333333  0.00000000  0.00000000       0.005
   0.41666667  0.00000000  0.00000000       0.005
   0.50000000  0.00000000  0.00000000       0.002
   0.08333333  0.08333333  0.00000000       0.003
   0.16666667  0.08333333  0.00000000       0.014
   0.25000000  0.08333333  0.00000000       0.014
   0.33333333  0.08333333  0.00000000       0.014
   0.41666667  0.08333333  0.00000000       0.014
   0.50000000  0.08333333  0.00000000       0.014
  -0.41666667  0.08333333  0.00000000       0.014
  -0.33333333  0.08333333  0.00000000       0.014
  -0.25000000  0.08333333  0.00000000       0.014
  -0.16666667  0.08333333  0.00000000       0.014
  -0.08333333  0.08333333  0.00000000       0.007
   0.16666667  0.16666667  0.00000000       0.003
   0.25000000  0.16666667  0.00000000       0.014
   0.33333333  0.16666667  0.00000000       0.014
   0.41666667  0.16666667  0.00000000       0.014
   0.50000000  0.16666667  0.00000000       0.014
  -0.41666667  0.16666667  0.00000000       0.014
  -0.33333333  0.16666667  0.00000000       0.014
  -0.25000000  0.16666667  0.00000000       0.014
  -0.16666667  0.16666667  0.00000000       0.007
   0.25000000  0.25000000  0.00000000       0.003
   0.33333333  0.25000000  0.00000000       0.014
   0.41666667  0.25000000  0.00000000       0.014
   0.50000000  0.25000000  0.00000000       0.014
  -0.41666667  0.25000000  0.00000000       0.014
  -0.33333333  0.25000000  0.00000000       0.014
  -0.25000000  0.25000000  0.00000000       0.007
   0.33333333  0.33333333  0.00000000       0.003
   0.41666667  0.33333333  0.00000000       0.014
   0.50000000  0.33333333  0.00000000       0.014
  -0.41666667  0.33333333  0.00000000       0.014
  -0.33333333  0.33333333  0.00000000       0.007
   0.41666667  0.41666667  0.00000000       0.003
   0.50000000  0.41666667  0.00000000       0.014
  -0.41666667  0.41666667  0.00000000       0.007
   0.50000000  0.50000000  0.00000000       0.002
   0.25000000  0.16666667  0.08333333       0.014
   0.33333333  0.16666667  0.08333333       0.028
   0.41666667  0.16666667  0.08333333       0.028
   0.50000000  0.16666667  0.08333333       0.028
  -0.41666667  0.16666667  0.08333333       0.014
   0.33333333  0.25000000  0.08333333       0.014
   0.41666667  0.25000000  0.08333333       0.028
   0.50000000  0.25000000  0.08333333       0.028
  -0.41666667  0.25000000  0.08333333       0.028
  -0.33333333  0.25000000  0.08333333       0.028
  -0.25000000  0.25000000  0.08333333       0.028
  -0.16666667  0.25000000  0.08333333       0.014
   0.41666667  0.33333333  0.08333333       0.014
   0.50000000  0.33333333  0.08333333       0.028
  -0.41666667  0.33333333  0.08333333       0.028
  -0.33333333  0.33333333  0.08333333       0.028
  -0.25000000  0.33333333  0.08333333       0.014
   0.50000000  0.41666667  0.08333333       0.014
  -0.41666667  0.41666667  0.08333333       0.028
  -0.33333333  0.41666667  0.08333333       0.014
  -0.41666667  0.50000000  0.08333333       0.007
   0.50000000  0.33333333  0.16666667       0.014
  -0.41666667  0.33333333  0.16666667       0.028
  -0.33333333  0.33333333  0.16666667       0.014
  -0.41666667  0.41666667  0.16666667       0.014
  -0.33333333  0.41666667  0.16666667       0.028
  -0.25000000  0.41666667  0.16666667       0.014
  -0.33333333  0.50000000  0.16666667       0.007
  -0.25000000  0.50000000  0.25000000       0.003

 position of ions in fractional coordinates (direct lattice) 
   0.00000000  0.00000000  0.00000000

 position of ions in cartesian coordinates  (Angst):
   0.00000000  0.00000000  0.00000000



--------------------------------------------------------------------------------------------------------


 k-point   1 :   0.0000 0.0000 0.0000  plane waves:     459
 k-point   2 :   0.0833 0.0000 0.0000  plane waves:     441
 k-point   3 :   0.1667 0.0000 0.0000  plane waves:     456
 k-point   4 :   0.2500 0.0000 0.0000  plane waves:     450
 k-point   5 :   0.3333 0.0000 0.0000  plane waves:     450
 k-point   6 :   0.4167 0.0000 0.0000  plane waves:     443
 k-point   7 :   0.5000 0.0000 0.0000  plane waves:     434
 k-point   8 :   0.0833 0.0833 0.0000  plane waves:     435
 k-point   9 :   0.1667 0.0833 0.0000  plane waves:     452
 k-point  10 :   0.2500 0.0833 0.0000  plane waves:     456
 k-point  11 :   0.3333 0.0833 0.0000  plane waves:     446
 k-point  12 :   0.4167 0.0833 0.0000  plane waves:     446
 k-point  13 :   0.5000 0.0833 0.0000  plane waves:     449
 k-point  14 :  -0.4167 0.0833 0.0000  plane waves:     448
 k-point  15 :  -0.3333 0.0833 0.0000  plane waves:     444
 k-point  16 :  -0.2500 0.0833 0.0000  plane waves:     449
 k-point  17 :  -0.1667 0.0833 0.0000  plane waves:     455
 k-point  18 :  -0.0833 0.0833 0.0000  plane waves:     449
 k-point  19 :   0.1667 0.1667 0.0000  plane waves:     451
 k-point  20 :   0.2500 0.1667 0.0000  plane waves:     452
 k-point  21 :   0.3333 0.1667 0.0000  plane waves:     445
 k-point  22 :   0.4167 0.1667 0.0000  plane waves:     446
 k-point  23 :   0.5000 0.1667 0.0000  plane waves:     440
 k-point  24 :  -0.4167 0.1667 0.0000  plane waves:     446
 k-point  25 :  -0.3333 0.1667 0.0000  plane waves:     446
 k-point  26 :  -0.2500 0.1667 0.0000  plane waves:     445
 k-point  27 :  -0.1667 0.1667 0.0000  plane waves:     457
 k-point  28 :   0.2500 0.2500 0.0000  plane waves:     456
 k-point  29 :   0.3333 0.2500 0.0000  plane waves:     447
 k-point  30 :   0.4167 0.2500 0.0000  plane waves:     446
 k-point  31 :   0.5000 0.2500 0.0000  plane waves:     447
 k-point  32 :  -0.4167 0.2500 0.0000  plane waves:     447
 k-point  33 :  -0.3333 0.2500 0.0000  plane waves:     447
 k-point  34 :  -0.2500 0.2500 0.0000  plane waves:     443
 k-point  35 :   0.3333 0.3333 0.0000  plane waves:     444
 k-point  36 :   0.4167 0.3333 0.0000  plane waves:     448
 k-point  37 :   0.5000 0.3333 0.0000  plane waves:     445
 k-point  38 :  -0.4167 0.3333 0.0000  plane waves:     445
 k-point  39 :  -0.3333 0.3333 0.0000  plane waves:     443
 k-point  40 :   0.4167 0.4167 0.0000  plane waves:     452
 k-point  41 :   0.5000 0.4167 0.0000  plane waves:     454
 k-point  42 :  -0.4167 0.4167 0.0000  plane waves:     444
 k-point  43 :   0.5000 0.5000 0.0000  plane waves:     444
 k-point  44 :   0.2500 0.1667 0.0833  plane waves:     453
 k-point  45 :   0.3333 0.1667 0.0833  plane waves:     450
 k-point  46 :   0.4167 0.1667 0.0833  plane waves:     442
 k-point  47 :   0.5000 0.1667 0.0833  plane waves:     444
 k-point  48 :  -0.4167 0.1667 0.0833  plane waves:     446
 k-point  49 :   0.3333 0.2500 0.0833  plane waves:     453
 k-point  50 :   0.4167 0.2500 0.0833  plane waves:     449
 k-point  51 :   0.5000 0.2500 0.0833  plane waves:     445
 k-point  52 :  -0.4167 0.2500 0.0833  plane waves:     444
 k-point  53 :  -0.3333 0.2500 0.0833  plane waves:     441
 k-point  54 :  -0.2500 0.2500 0.0833  plane waves:     443
 k-point  55 :  -0.1667 0.2500 0.0833  plane waves:     450
 k-point  56 :   0.4167 0.3333 0.0833  plane waves:     445
 k-point  57 :   0.5000 0.3333 0.0833  plane waves:     447
 k-point  58 :  -0.4167 0.3333 0.0833  plane waves:     444
 k-point  59 :  -0.3333 0.3333 0.0833  plane waves:     447
 k-point  60 :  -0.2500 0.3333 0.0833  plane waves:     436
 k-point  61 :   0.5000 0.4167 0.0833  plane waves:     448
 k-point  62 :  -0.4167 0.4167 0.0833  plane waves:     446
 k-point  63 :  -0.3333 0.4167 0.0833  plane waves:     447
 k-point  64 :  -0.4167 0.5000 0.0833  plane waves:     454
 k-point  65 :   0.5000 0.3333 0.1667  plane waves:     452
 k-point  66 :  -0.4167 0.3333 0.1667  plane waves:     443
 k-point  67 :  -0.3333 0.3333 0.1667  plane waves:     442
 k-point  68 :  -0.4167 0.4167 0.1667  plane waves:     444
 k-point  69 :  -0.3333 0.4167 0.1667  plane waves:     446
 k-point  70 :  -0.2500 0.4167 0.1667  plane waves:     446
 k-point  71 :  -0.3333 0.5000 0.1667  plane waves:     444
 k-point  72 :  -0.2500 0.5000 0.2500  plane waves:     444

 maximum and minimum number of plane-waves per node :       459      434

 maximum number of plane-waves:       459
 maximum index in each direction: 
   IXMAX=    5   IYMAX=    5   IZMAX=    5
   IXMIN=   -5   IYMIN=   -5   IZMIN=   -5


 serial   3D FFT for wavefunctions
 parallel 3D FFT for charge:
    minimum data exchange during FFTs selected (reduces bandwidth)


 total amount of memory used by VASP MPI-rank0    34886. kBytes
=======================================================================

   base      :      30000. kBytes
   nonl-proj :       2219. kBytes
   fftplans  :        150. kBytes
   grid      :       1295. kBytes
   one-center:          6. kBytes
   wavefun   :       1216. kBytes

     INWAV:  cpu time    0.0000: real time    0.0001
 Broyden mixing: mesh for mixing (old mesh)
   NGX = 11   NGY = 11   NGZ = 11
  (NGX  = 48   NGY  = 48   NGZ  = 48)
  gives a total of   1331 points

 initial charge density was supplied:
 charge density of overlapping atoms calculated
 number of electron       3.0000000 magnetization       0.6000000
 keeping initial charge density in first step


--------------------------------------------------------------------------------------------------------


 Maximum index for augmentation-charges         1111 (set IRDMAX)


--------------------------------------------------------------------------------------------------------


 First call to EWALD:  gamma=   0.695
 Maximum number of real-space cells 3x 3x 3
 Maximum number of reciprocal cells 3x 3x 3

    FEWALD:  cpu time    0.0006: real time    0.0007


--------------------------------------- Iteration      1(   1)  ---------------------------------------


    POTLOK:  cpu time    0.0148: real time    0.0151
    SETDIJ:  cpu time    0.1590: real time    0.1592
     EDDAV:  cpu time   10.6912: real time   10.6917
 BZINTS: Fermi energy:    8.053920;    3.000000 electrons
         Band energy: 0.107646E+02;  BLOECHL correction:   -0.104388
       DOS:  cpu time    0.0523: real time    0.0525
    --------------------------------------------
      LOOP:  cpu time   10.9173: real time   10.9185

 eigenvalue-minimisations  : 19392
 total energy-change (2. order) :-0.3637497E+01  (-0.8637560E+02)
 number of electron       3.0000000 magnetization       0.6000000
 augmentation part        3.0000000 magnetization       0.6000000

 Free energy of the ion-electron system (eV)
  ---------------------------------------------------
  alpha Z        PSCENC =        -0.20254611
  Ewald energy   TEWEN  =       -73.39295237
  -Hartree energ DENC   =        -0.10329695
  -exchange      EXHF   =         0.00000000
  -V(xc)+E(xc)   XCENC  =       -26.19545267
  PAW double counting   =        66.16230985      -34.20858819
  entropy T*S    EENTRO =         0.00000000
  eigenvalues    EBANDS =        10.76457216
  atomic energy  EATOM  =        53.53845706
  Solvation  Ediel_sol  =         0.00000000
  ---------------------------------------------------
  free energy    TOTEN  =        -3.63749722 eV

  energy without entropy =       -3.63749722  energy(sigma->0) =       -3.63749722


--------------------------------------------------------------------------------------------------------




--------------------------------------- Iteration      1(   2)  ---------------------------------------


     EDDAV:  cpu time    9.7163: real time    9.7166
 BZINTS: Fermi energy:    8.023469;    3.000000 electrons
         Band energy: 0.107159E+02;  BLOECHL correction:   -0.103178
       DOS:  cpu time    0.0539: real time    0.0541
    --------------------------------------------
      LOOP:  cpu time    9.7703: real time    9.7706

 eigenvalue-minimisations  : 18096
 total energy-change (2. order) :-0.4866699E-01  (-0.4844672E-01)
 number of electron       3.0000000 magnetization       0.6000000
 augmentation part        3.0000000 magnetization       0.6000000

 Free energy of the ion-electron system (eV)
  ---------------------------------------------------
  alpha Z        PSCENC =        -0.20254611
  Ewald energy   TEWEN  =       -73.39295237
  -Hartree energ DENC   =        -0.10329695
  -exchange      EXHF   =         0.00000000
  -V(xc)+E(xc)   XCENC  =       -26.19545267
  PAW double counting   =        66.16230985      -34.20858819
  entropy T*S    EENTRO =         0.00000000
  eigenvalues    EBANDS =        10.71590517
  atomic energy  EATOM  =        53.53845706
  Solvation  Ediel_sol  =         0.00000000
  ---------------------------------------------------
  free energy    TOTEN  =        -3.68616421 eV

  energy without entropy =       -3.68616421  energy(sigma->0) =       -3.68616421


--------------------------------------------------------------------------------------------------------




--------------------------------------- Iteration      1(   3)  ---------------------------------------


     EDDAV:  cpu time   13.7108: real time   13.7109
 BZINTS: Fermi energy:    8.023468;    3.000000 electrons
         Band energy: 0.107159E+02;  BLOECHL correction:   -0.103178
       DOS:  cpu time    0.0577: real time    0.0578
    --------------------------------------------
      LOOP:  cpu time   13.7685: real time   13.7687

 eigenvalue-minimisations  : 20064
 total energy-change (2. order) :-0.1985157E-05  (-0.1946166E-05)
 number of electron       3.0000000 magnetization       0.6000000
 augmentation part        3.0000000 magnetization       0.6000000

 Free energy of the ion-electron system (eV)
  ---------------------------------------------------
  alpha Z        PSCENC =        -0.20254611
  Ewald energy   TEWEN  =       -73.39295237
  -Hartree energ DENC   =        -0.10329695
  -exchange      EXHF   =         0.00000000
  -V(xc)+E(xc)   XCENC  =       -26.19545267
  PAW double counting   =        66.16230985      -34.20858819
  entropy T*S    EENTRO =         0.00000000
  eigenvalues    EBANDS =        10.71590319
  atomic energy  EATOM  =        53.53845706
  Solvation  Ediel_sol  =         0.00000000
  ---------------------------------------------------
  free energy    TOTEN  =        -3.68616620 eV

  energy without entropy =       -3.68616620  energy(sigma->0) =       -3.68616620


--------------------------------------------------------------------------------------------------------




--------------------------------------- Iteration      1(   4)  ---------------------------------------


     EDDAV:  cpu time   15.1343: real time   15.1345
 BZINTS: Fermi energy:    8.023468;    3.000000 electrons
         Band energy: 0.107159E+02;  BLOECHL correction:   -0.103178
       DOS:  cpu time    0.0606: real time    0.0607
    --------------------------------------------
      LOOP:  cpu time   15.1949: real time   15.1952

 eigenvalue-minimisations  : 20688
 total energy-change (2. order) :-0.7786838E-09  (-0.8593949E-11)
 number of electron       3.0000000 magnetization       0.6000000
 augmentation part        3.0000000 magnetization       0.6000000

 Free energy of the ion-electron system (eV)
  ---------------------------------------------------
  alpha Z        PSCENC =        -0.20254611
  Ewald energy   TEWEN  =       -73.39295237
  -Hartree energ DENC   =        -0.10329695
  -exchange      EXHF   =         0.00000000
  -V(xc)+E(xc)   XCENC  =       -26.19545267
  PAW double counting   =        66.16230985      -34.20858819
  entropy T*S    EENTRO =         0.00000000
  eigenvalues    EBANDS =        10.71590319
  atomic energy  EATOM  =        53.53845706
  Solvation  Ediel_sol  =         0.00000000
  ---------------------------------------------------
  free energy    TOTEN  =        -3.68616620 eV

  energy without entropy =       -3.68616620  energy(sigma->0) =       -3.68616620


--------------------------------------------------------------------------------------------------------




--------------------------------------- Iteration      1(   5)  ---------------------------------------


     EDDAV:  cpu time   13.4041: real time   13.4042
 BZINTS: Fermi energy:    8.023468;    3.000000 electrons
         Band energy: 0.107159E+02;  BLOECHL correction:   -0.103178
       DOS:  cpu time    0.0582: real time    0.0583
    CHARGE:  cpu time    0.0521: real time    0.0524
    MIXING:  cpu time    0.0088: real time    0.0090
    --------------------------------------------
      LOOP:  cpu time   13.5231: real time   13.5239

 eigenvalue-minimisations  : 19440
 total energy-change (2. order) : 0.9138859E-09  (-0.3993716E-13)
 number of electron       3.0000000 magnetization      -0.0688037
 augmentation part       -0.0369495 magnetization      -0.1928014

 Broyden mixing:
  rms(total) = 0.17689E+00    rms(broyden)= 0.17689E+00
  rms(prec ) = 0.38280E+00
  weight for this iteration     100.00

 Free energy of the ion-electron system (eV)
  ---------------------------------------------------
  alpha Z        PSCENC =        -0.20254611
  Ewald energy   TEWEN  =       -73.39295237
  -Hartree energ DENC   =        -0.10329695
  -exchange      EXHF   =         0.00000000
  -V(xc)+E(xc)   XCENC  =       -26.19545267
  PAW double counting   =        66.16230985      -34.20858819
  entropy T*S    EENTRO =         0.00000000
  eigenvalues    EBANDS =        10.71590319
  atomic energy  EATOM  =        53.53845706
  Solvation  Ediel_sol  =         0.00000000
  ---------------------------------------------------
  free energy    TOTEN  =        -3.68616620 eV

  energy without entropy =       -3.68616620  energy(sigma->0) =       -3.68616620


--------------------------------------------------------------------------------------------------------




--------------------------------------- Iteration      1(   6)  ---------------------------------------


    POTLOK:  cpu time    0.0070: real time    0.0073
    SETDIJ:  cpu time    0.1602: real time    0.1602
    EDDIAG:  cpu time    0.4682: real time    0.4692
  RMM-DIIS:  cpu time    0.2713: real time    0.2713
    ORTHCH:  cpu time    0.0585: real time    0.0585
 BZINTS: Fermi energy:    7.992232;    3.000000 electrons
         Band energy: 0.106458E+02;  BLOECHL correction:   -0.098754
       DOS:  cpu time    0.0566: real time    0.0567
    CHARGE:  cpu time    0.0482: real time    0.0482
    MIXING:  cpu time    0.0004: real time    0.0004
    --------------------------------------------
      LOOP:  cpu time    1.0704: real time    1.0718

 eigenvalue-minimisations  : 13828
 total energy-change (2. order) :-0.7252985E-01  (-0.2525706E-03)
 number of electron       3.0000000 magnetization       0.0712627
 augmentation part       -0.0372908 magnetization       0.0818143

 Broyden mixing:
  rms(total) = 0.83488E-01    rms(broyden)= 0.83488E-01
  rms(prec ) = 0.23111E+00
  weight for this iteration     100.00

 eigenvalues of (default mixing * dielectric matrix)
  average eigenvalue GAMMA=   0.8806
  0.8806

 Free energy of the ion-electron system (eV)
  ---------------------------------------------------
  alpha Z        PSCENC =        -0.20254611
  Ewald energy   TEWEN  =       -73.39295237
  -Hartree energ DENC   =        -0.08650475
  -exchange      EXHF   =         0.00000000
  -V(xc)+E(xc)   XCENC  =       -26.21251140
  PAW double counting   =        94.49606193      -62.54449980
  entropy T*S    EENTRO =         0.00000000
  eigenvalues    EBANDS =        10.64579939
  atomic energy  EATOM  =        53.53845706
  Solvation  Ediel_sol  =         0.00000000
  ---------------------------------------------------
  free energy    TOTEN  =        -3.75869605 eV

  energy without entropy =       -3.75869605  energy(sigma->0) =       -3.75869605


--------------------------------------------------------------------------------------------------------




--------------------------------------- Iteration      1(   7)  ---------------------------------------


    POTLOK:  cpu time    0.0069: real time    0.0071
    SETDIJ:  cpu time    0.1597: real time    0.1597
    EDDIAG:  cpu time    0.4577: real time    0.4577
  RMM-DIIS:  cpu time    0.3156: real time    0.3156
    ORTHCH:  cpu time    0.0581: real time    0.0581
 BZINTS: Fermi energy:    7.981567;    3.000000 electrons
         Band energy: 0.106172E+02;  BLOECHL correction:   -0.098906
       DOS:  cpu time    0.0531: real time    0.0532
    CHARGE:  cpu time    0.0478: real time    0.0478
    MIXING:  cpu time    0.0002: real time    0.0002
    --------------------------------------------
      LOOP:  cpu time    1.0991: real time    1.0994

 eigenvalue-minimisations  : 14305
 total energy-change (2. order) : 0.8181982E-02  (-0.9953983E-04)
 number of electron       3.0000000 magnetization       0.0168325
 augmentation part       -0.0379583 magnetization       0.0065443

 Broyden mixing:
  rms(total) = 0.67758E-01    rms(broyden)= 0.67758E-01
  rms(prec ) = 0.10258E+00
  weight for this iteration     100.00

 eigenvalues of (default mixing * dielectric matrix)
  average eigenvalue GAMMA=   0.9206
  1.1678  0.6734

 Free energy of the ion-electron system (eV)
  ---------------------------------------------------
  alpha Z        PSCENC =        -0.20254611
  Ewald energy   TEWEN  =       -73.39295237
  -Hartree energ DENC   =        -0.09117063
  -exchange      EXHF   =         0.00000000
  -V(xc)+E(xc)   XCENC  =       -26.16724804
  PAW double counting   =       129.55699423      -97.60925311
  entropy T*S    EENTRO =         0.00000000
  eigenvalues    EBANDS =        10.61720489
  atomic energy  EATOM  =        53.53845706
  Solvation  Ediel_sol  =         0.00000000
  ---------------------------------------------------
  free energy    TOTEN  =        -3.75051407 eV

  energy without entropy =       -3.75051407  energy(sigma->0) =       -3.75051407


--------------------------------------------------------------------------------------------------------




--------------------------------------- Iteration      1(   8)  ---------------------------------------


    POTLOK:  cpu time    0.0065: real time    0.0067
    SETDIJ:  cpu time    0.1560: real time    0.1560
    EDDIAG:  cpu time    0.4489: real time    0.4489
  RMM-DIIS:  cpu time    0.3205: real time    0.3205
    ORTHCH:  cpu time    0.0582: real time    0.0582
 BZINTS: Fermi energy:    7.978099;    3.000000 electrons
         Band energy: 0.106083E+02;  BLOECHL correction:   -0.098944
       DOS:  cpu time    0.0534: real time    0.0536
    CHARGE:  cpu time    0.0481: real time    0.0481
    MIXING:  cpu time    0.0002: real time    0.0002
    --------------------------------------------
      LOOP:  cpu time    1.0918: real time    1.0922

 eigenvalue-minimisations  : 14285
 total energy-change (2. order) : 0.9656220E-04  (-0.2048646E-04)
 number of electron       3.0000000 magnetization      -0.0020110
 augmentation part       -0.0382743 magnetization      -0.0055165

 Broyden mixing:
  rms(total) = 0.22699E-01    rms(broyden)= 0.22699E-01
  rms(prec ) = 0.26889E-01
  weight for this iteration     100.00

 eigenvalues of (default mixing * dielectric matrix)
  average eigenvalue GAMMA=   1.2649
  2.2814  0.8925  0.6208

 Free energy of the ion-electron system (eV)
  ---------------------------------------------------
  alpha Z        PSCENC =        -0.20254611
  Ewald energy   TEWEN  =       -73.39295237
  -Hartree energ DENC   =        -0.10146581
  -exchange      EXHF   =         0.00000000
  -V(xc)+E(xc)   XCENC  =       -26.14588253
  PAW double counting   =       144.99202086     -113.04635127
  entropy T*S    EENTRO =         0.00000000
  eigenvalues    EBANDS =        10.60830266
  atomic energy  EATOM  =        53.53845706
  Solvation  Ediel_sol  =         0.00000000
  ---------------------------------------------------
  free energy    TOTEN  =        -3.75041751 eV

  energy without entropy =       -3.75041751  energy(sigma->0) =       -3.75041751


--------------------------------------------------------------------------------------------------------




--------------------------------------- Iteration      1(   9)  ---------------------------------------


    POTLOK:  cpu time    0.0065: real time    0.0067
    SETDIJ:  cpu time    0.1548: real time    0.1548
    EDDIAG:  cpu time    0.4478: real time    0.4478
  RMM-DIIS:  cpu time    0.3777: real time    0.3777
    ORTHCH:  cpu time    0.0585: real time    0.0585
 BZINTS: Fermi energy:    7.977613;    3.000000 electrons
         Band energy: 0.106072E+02;  BLOECHL correction:   -0.098957
       DOS:  cpu time    0.0578: real time    0.0579
    --------------------------------------------
      LOOP:  cpu time    1.1030: real time    1.1033

 eigenvalue-minimisations  : 14947
 total energy-change (2. order) :-0.2103949E-04  (-0.2936319E-05)
 number of electron       3.0000000 magnetization      -0.0020110
 augmentation part       -0.0382743 magnetization      -0.0055165

 Free energy of the ion-electron system (eV)
  ---------------------------------------------------
  alpha Z        PSCENC =        -0.20254611
  Ewald energy   TEWEN  =       -73.39295237
  -Hartree energ DENC   =        -0.10449584
  -exchange      EXHF   =         0.00000000
  -V(xc)+E(xc)   XCENC  =       -26.14077520
  PAW double counting   =       145.51521554     -113.57052986
  entropy T*S    EENTRO =         0.00000000
  eigenvalues    EBANDS =        10.60718823
  atomic energy  EATOM  =        53.53845706
  Solvation  Ediel_sol  =         0.00000000
  ---------------------------------------------------
  free energy    TOTEN  =        -3.75043855 eV

  energy without entropy =       -3.75043855  energy(sigma->0) =       -3.75043855


--------------------------------------------------------------------------------------------------------




 average (electrostatic) potential at core
  the test charge radii are     1.0406
  (the norm of the test charge is              1.0000)
       1 -72.6895



 E-fermi :   7.9776     XC(G=0): -10.1783     alpha+bet :-14.8020

 Fermi energy:         7.9776127451

 spin component 1

 k-point     1 :       0.0000    0.0000    0.0000
  band No.  band energies     occupation 
      1      -3.1513      1.00000
      2      20.5403      0.00000
      3      20.5403      0.00000
      4      20.5403      0.00000
      5      21.9950      0.00000
      6      21.9950      0.00000
      7      21.9950      0.00000
      8      24.3776      0.00000
      9      27.3148      0.00000
     10      27.3148      0.00000
     11      30.1609      0.00000
     12      32.5111      0.00000
     13      32.5111      0.00000
     14      32.5111      0.00000
     15      41.0633      0.00000
     16      56.0204      0.00000
     17      56.0204      0.00000
     18      56.0204      0.00000
     19      56.0566      0.00000
     20      59.2143      0.00000
     21      59.2143      0.00000
     22      59.2143      0.00000
     23      62.8342      0.00000
     24      62.8342      0.00000
     25      65.0772      0.00000
     26      65.0772      0.00000
     27      65.0772      0.00000
     28      73.1783      0.00000
     29      73.1783      0.00000
     30      73.1783      0.00000
     31      80.8194      0.00000
     32      83.0781      0.00000
     33      83.0781      0.00000
     34      87.2066      0.00000
     35      87.2066      0.00000
     36      87.2066      0.00000
     37      90.0889      0.00000
     38      90.0889      0.00000
     39      90.0889      0.00000
     40      90.8975      0.00000
     41      93.4603      0.00000
     42      93.4603      0.00000
     43      93.4603      0.00000
     44      93.9350      0.00000
     45      93.9350      0.00000
     46      93.9350      0.00000
     47      96.3744      0.00000
     48      96.3744      0.00000

 k-point     2 :       0.0833    0.0000    0.0000
  band No.  band energies     occupation 
      1      -2.9632      1.00000
      2      17.9241      0.00000
      3      19.9648      0.00000
      4      19.9648      0.00000
      5      22.6680      0.00000
      6      22.8575      0.00000
      7      22.8575      0.00000
      8      26.1907      0.00000
      9      26.3444      0.00000
     10      26.3444      0.00000
     11      29.5137      0.00000
     12      33.4399      0.00000
     13      33.8639      0.00000
     14      33.8639      0.00000
     15      41.8048      0.00000
     16      55.3826      0.00000
     17      55.7121      0.00000
     18      55.7121      0.00000
     19      56.3467      0.00000
     20      57.4065      0.00000
     21      57.4065      0.00000
     22      59.2136      0.00000
     23      61.6152      0.00000
     24      61.6152      0.00000
     25      65.2462      0.00000
     26      68.5422      0.00000
     27      68.5422      0.00000
     28      71.7461      0.00000
     29      73.0087      0.00000
     30      73.0087      0.00000
     31      82.0374      0.00000
     32      82.0374      0.00000
     33      82.2718      0.00000
     34      84.2222      0.00000
     35      85.9691      0.00000
     36      85.9691      0.00000
     37      88.2458      0.00000
     38      88.2458      0.00000
     39      89.3774      0.00000
     40      90.1423      0.00000
     41      91.4693      0.00000
     42      91.4693      0.00000
     43      92.7989      0.00000
     44      95.4379      0.00000
     45      95.5031      0.00000
     46      95.5031      0.00000
     47      96.8039      0.00000
     48      96.8039      0.00000

 k-point     3 :       0.1667    0.0000    0.0000
  band No.  band energies     occupation 
      1      -2.4004      1.00000
      2      14.5712      0.00000
      3      19.2626      0.00000
      4      19.2626      0.00000
      5      22.4866      0.00000
      6      23.9187      0.00000
      7      23.9187      0.00000
      8      25.1771      0.00000
      9      25.1771      0.00000
     10      28.1656      0.00000
     11      29.4001      0.00000
     12      35.8575      0.00000
     13      36.6586      0.00000
     14      36.6586      0.00000
     15      43.7138      0.00000
     16      52.4712      0.00000
     17      52.4712      0.00000
     18      54.1593      0.00000
     19      56.4288      0.00000
     20      56.4288      0.00000
     21      56.5216      0.00000
     22      58.9662      0.00000
     23      61.6576      0.00000
     24      61.6576      0.00000
     25      65.7441      0.00000
     26      69.3262      0.00000
     27      71.2562      0.00000
     28      71.2562      0.00000
     29      73.5334      0.00000
     30      73.5334      0.00000
     31      79.3517      0.00000
     32      79.3517      0.00000
     33      79.4585      0.00000
     34      83.3852      0.00000
     35      83.3852      0.00000
     36      85.4828      0.00000
     37      86.3449      0.00000
     38      86.5882      0.00000
     39      86.5882      0.00000
     40      87.5072      0.00000
     41      89.5375      0.00000
     42      90.1571      0.00000
     43      90.1571      0.00000
     44      93.9968      0.00000
     45      97.1758      0.00000
     46      97.1758      0.00000
     47      99.1204      0.00000
     48      99.1204      0.00000

 k-point     4 :       0.2500    0.0000    0.0000
  band No.  band energies     occupation 
      1      -1.4673      1.00000
      2      11.3777      0.00000
      3      18.8205      0.00000
      4      18.8205      0.00000
      5      22.2572      0.00000
      6      22.6588      0.00000
      7      22.6588      0.00000
      8      26.6515      0.00000
      9      26.7748      0.00000
     10      26.7748      0.00000
     11      32.5013      0.00000
     12      39.4137      0.00000
     13      39.9506      0.00000
     14      39.9506      0.00000
     15      46.2842      0.00000
     16      48.3762      0.00000
     17      48.3762      0.00000
     18      52.4294      0.00000
     19      56.3695      0.00000
     20      56.3695      0.00000
     21      56.7214      0.00000
     22      58.2228      0.00000
     23      62.0670      0.00000
     24      62.0670      0.00000
     25      66.5442      0.00000
     26      66.9836      0.00000
     27      68.8657      0.00000
     28      68.8657      0.00000
     29      74.5360      0.00000
     30      74.5360      0.00000
     31      76.5408      0.00000
     32      79.0356      0.00000
     33      79.0356      0.00000
     34      79.9563      0.00000
     35      80.4339      0.00000
     36      80.4339      0.00000
     37      82.0371      0.00000
     38      87.4974      0.00000
     39      87.4974      0.00000
     40      88.8087      0.00000
     41      89.5858      0.00000
     42      89.5858      0.00000
     43      90.5014      0.00000
     44      93.1720      0.00000
     45      97.3980      0.00000
     46      97.3980      0.00000
     47     101.3749      0.00000
     48     101.6980      0.00000

 k-point     5 :       0.3333    0.0000    0.0000
  band No.  band energies     occupation 
      1      -0.1709      1.00000
      2       8.4424      0.25209
      3      18.6812      0.00000
      4      18.6812      0.00000
      5      21.2688      0.00000
      6      21.2688      0.00000
      7      22.2339      0.00000
      8      25.2271      0.00000
      9      29.0270      0.00000
     10      29.0270      0.00000
     11      35.4273      0.00000
     12      42.3834      0.00000
     13      42.3834      0.00000
     14      43.5631      0.00000
     15      45.8100      0.00000
     16      45.8100      0.00000
     17      48.5028      0.00000
     18      51.1147      0.00000
     19      56.3253      0.00000
     20      56.3253      0.00000
     21      56.9624      0.00000
     22      56.9778      0.00000
     23      62.0513      0.00000
     24      62.0513      0.00000
     25      64.5820      0.00000
     26      65.1575      0.00000
     27      65.1575      0.00000
     28      67.5711      0.00000
     29      71.9555      0.00000
     30      73.9810      0.00000
     31      73.9810      0.00000
     32      76.6550      0.00000
     33      77.6895      0.00000
     34      77.6895      0.00000
     35      79.1171      0.00000
     36      80.3090      0.00000
     37      80.3090      0.00000
     38      88.5835      0.00000
     39      89.2342      0.00000
     40      89.2342      0.00000
     41      90.6452      0.00000
     42      90.6452      0.00000
     43      90.9467      0.00000
     44      93.8727      0.00000
     45      98.2837      0.00000
     46      98.2837      0.00000
     47     101.8239      0.00000
     48     103.8626      0.00000

 k-point     6 :       0.4167    0.0000    0.0000
  band No.  band energies     occupation 
      1       1.4789      1.00000
      2       5.8029      1.02570
      3      18.8546      0.00000
      4      18.8546      0.00000
      5      20.1538      0.00000
      6      20.1538      0.00000
      7      22.5050      0.00000
      8      24.0236      0.00000
      9      31.3515      0.00000
     10      31.3515      0.00000
     11      38.0861      0.00000
     12      40.2530      0.00000
     13      40.2530      0.00000
     14      46.3863      0.00000
     15      48.3165      0.00000
     16      48.6397      0.00000
     17      48.6397      0.00000
     18      53.8486      0.00000
     19      55.2192      0.00000
     20      56.0446      0.00000
     21      56.0446      0.00000
     22      57.2993      0.00000
     23      59.1938      0.00000
     24      59.1938      0.00000
     25      62.4978      0.00000
     26      64.1732      0.00000
     27      64.1732      0.00000
     28      65.8557      0.00000
     29      68.6131      0.00000
     30      73.6633      0.00000
     31      73.6633      0.00000
     32      75.9775      0.00000
     33      75.9775      0.00000
     34      76.7103      0.00000
     35      76.9398      0.00000
     36      80.5287      0.00000
     37      80.5287      0.00000
     38      88.5386      0.00000
     39      88.9583      0.00000
     40      88.9583      0.00000
     41      89.6593      0.00000
     42      94.1070      0.00000
     43      94.1070      0.00000
     44      94.3198      0.00000
     45     100.4704      0.00000
     46     100.4707      0.00000
     47     104.0288      0.00000
     48     104.2552      0.00000

 k-point     7 :       0.5000    0.0000    0.0000
  band No.  band energies     occupation 
      1       3.3752      1.00000
      2       3.5759      1.00000
      3      19.3056      0.00000
      4      19.3056      0.00000
      5      19.3866      0.00000
      6      19.3866      0.00000
      7      23.0428      0.00000
      8      23.1658      0.00000
      9      32.6717      0.00000
     10      32.6717      0.00000
     11      38.6898      0.00000
     12      38.6898      0.00000
     13      39.4859      0.00000
     14      45.4050      0.00000
     15      50.5687      0.00000
     16      51.5347      0.00000
     17      51.5347      0.00000
     18      53.5023      0.00000
     19      54.6521      0.00000
     20      54.6521      0.00000
     21      56.2477      0.00000
     22      57.5030      0.00000
     23      57.5030      0.00000
     24      58.4217      0.00000
     25      60.6125      0.00000
     26      62.6305      0.00000
     27      64.2753      0.00000
     28      64.2753      0.00000
     29      69.1232      0.00000
     30      73.5795      0.00000
     31      73.5795      0.00000
     32      75.3331      0.00000
     33      75.3331      0.00000
     34      76.0518      0.00000
     35      76.9486      0.00000
     36      80.5451      0.00000
     37      80.5451      0.00000
     38      88.6869      0.00000
     39      88.8484      0.00000
     40      88.8484      0.00000
     41      88.9413      0.00000
     42      94.1332      0.00000
     43      95.5458      0.00000
     44      95.5458      0.00000
     45     101.3598      0.00000
     46     101.3598      0.00000
     47     107.1802      0.00000
     48     107.1802      0.00000

 k-point     8 :       0.0833    0.0833    0.0000
  band No.  band energies     occupation 
      1      -2.9005      1.00000
      2      18.8170      0.00000
      3      18.8170      0.00000
      4      19.1198      0.00000
      5      21.4243      0.00000
      6      24.0828      0.00000
      7      24.0828      0.00000
      8      24.6672      0.00000
      9      26.2993      0.00000
     10      27.5469      0.00000
     11      30.4820      0.00000
     12      32.8006      0.00000
     13      32.8006      0.00000
     14      35.2488      0.00000
     15      42.1559      0.00000
     16      55.3824      0.00000
     17      55.3824      0.00000
     18      55.4899      0.00000
     19      56.5070      0.00000
     20      57.6101      0.00000
     21      57.6101      0.00000
     22      58.3274      0.00000
     23      59.3799      0.00000
     24      62.7791      0.00000
     25      67.1917      0.00000
     26      67.1917      0.00000
     27      69.9086      0.00000
     28      70.7370      0.00000
     29      73.4008      0.00000
     30      73.4008      0.00000
     31      80.8453      0.00000
     32      82.6409      0.00000
     33      83.2522      0.00000
     34      83.2522      0.00000
     35      83.7900      0.00000
     36      83.9077      0.00000
     37      89.2060      0.00000
     38      90.0208      0.00000
     39      90.0208      0.00000
     40      90.3353      0.00000
     41      90.3353      0.00000
     42      92.3312      0.00000
     43      92.7461      0.00000
     44      94.1378      0.00000
     45      94.5950      0.00000
     46      97.6203      0.00000
     47      97.6203      0.00000
     48      98.1796      0.00000

 k-point     9 :       0.1667    0.0833    0.0000
  band No.  band energies     occupation 
      1      -2.4628      1.00000
      2      15.7734      0.00000
      3      17.9395      0.00000
      4      19.2200      0.00000
      5      21.7844      0.00000
      6      22.7210      0.00000
      7      24.4625      0.00000
      8      25.4492      0.00000
      9      26.9897      0.00000
     10      28.9751      0.00000
     11      29.9050      0.00000
     12      34.4112      0.00000
     13      34.6129      0.00000
     14      37.3681      0.00000
     15      43.8942      0.00000
     16      52.4818      0.00000
     17      53.3653      0.00000
     18      55.4956      0.00000
     19      55.8155      0.00000
     20      56.3233      0.00000
     21      56.9747      0.00000
     22      58.2318      0.00000
     23      59.3728      0.00000
     24      62.3110      0.00000
     25      67.9436      0.00000
     26      68.0642      0.00000
     27      71.0769      0.00000
     28      72.4026      0.00000
     29      72.6199      0.00000
     30      74.3688      0.00000
     31      78.0793      0.00000
     32      79.2188      0.00000
     33      81.0127      0.00000
     34      82.2096      0.00000
     35      82.6795      0.00000
     36      84.6473      0.00000
     37      86.0460      0.00000
     38      86.6571      0.00000
     39      89.2451      0.00000
     40      89.4174      0.00000
     41      90.2503      0.00000
     42      91.5373      0.00000
     43      93.8198      0.00000
     44      94.0793      0.00000
     45      94.4776      0.00000
     46      96.2900      0.00000
     47      97.1657      0.00000
     48      97.2694      0.00000

 k-point    10 :       0.2500    0.0833    0.0000
  band No.  band energies     occupation 
      1      -1.6534      1.00000
      2      12.5487      0.00000
      3      17.3692      0.00000
      4      18.8819      0.00000
      5      20.6808      0.00000
      6      23.5813      0.00000
      7      24.3678      0.00000
      8      24.9202      0.00000
      9      27.8995      0.00000
     10      28.4277      0.00000
     11      32.1970      0.00000
     12      37.3947      0.00000
     13      38.0539      0.00000
     14      40.1097      0.00000
     15      46.4406      0.00000
     16      48.2302      0.00000
     17      50.0091      0.00000
     18      53.9874      0.00000
     19      55.6060      0.00000
     20      56.2470      0.00000
     21      57.0856      0.00000
     22      58.7456      0.00000
     23      58.8071      0.00000
     24      62.4190      0.00000
     25      65.8358      0.00000
     26      68.5469      0.00000
     27      69.6742      0.00000
     28      71.7382      0.00000
     29      72.7695      0.00000
     30      74.6573      0.00000
     31      76.5802      0.00000
     32      77.1473      0.00000
     33      79.4551      0.00000
     34      81.2371      0.00000
     35      81.2616      0.00000
     36      81.9745      0.00000
     37      83.3982      0.00000
     38      86.3239      0.00000
     39      86.8277      0.00000
     40      87.1572      0.00000
     41      90.5764      0.00000
     42      92.2517      0.00000
     43      92.5101      0.00000
     44      93.8300      0.00000
     45      94.5972      0.00000
     46      97.1615      0.00000
     47      99.3610      0.00000
     48     100.1924      0.00000

 k-point    11 :       0.3333    0.0833    0.0000
  band No.  band energies     occupation 
      1      -0.4786      1.00000
      2       9.5364     -0.05977
      3      17.1142      0.00000
      4      18.6799      0.00000
      5      19.1329      0.00000
      6      23.5409      0.00000
      7      24.0947      0.00000
      8      25.7605      0.00000
      9      27.1838      0.00000
     10      29.9707      0.00000
     11      35.1983      0.00000
     12      40.5145      0.00000
     13      42.2514      0.00000
     14      42.9105      0.00000
     15      44.7150      0.00000
     16      46.7458      0.00000
     17      49.1574      0.00000
     18      52.2021      0.00000
     19      55.7010      0.00000
     20      56.2860      0.00000
     21      57.0587      0.00000
     22      57.7357      0.00000
     23      59.3394      0.00000
     24      62.7184      0.00000
     25      63.2948      0.00000
     26      66.0706      0.00000
     27      67.4655      0.00000
     28      70.5887      0.00000
     29      71.0866      0.00000
     30      71.8324      0.00000
     31      74.6388      0.00000
     32      76.5703      0.00000
     33      77.7652      0.00000
     34      78.3292      0.00000
     35      80.6040      0.00000
     36      81.4197      0.00000
     37      83.1667      0.00000
     38      84.8300      0.00000
     39      87.1710      0.00000
     40      88.3653      0.00000
     41      92.2655      0.00000
     42      92.7760      0.00000
     43      92.9282      0.00000
     44      94.1074      0.00000
     45      95.5049      0.00000
     46      98.2904      0.00000
     47     100.4854      0.00000
     48     102.9401      0.00000

 k-point    12 :       0.4167    0.0833    0.0000
  band No.  band energies     occupation 
      1       1.0528      1.00000
      2       6.8025      0.99587
      3      17.1772      0.00000
      4      17.8571      0.00000
      5      18.7928      0.00000
      6      22.3553      0.00000
      7      24.2684      0.00000
      8      25.5249      0.00000
      9      28.6289      0.00000
     10      32.0445      0.00000
     11      37.9902      0.00000
     12      39.9674      0.00000
     13      41.8606      0.00000
     14      45.9430      0.00000
     15      46.2577      0.00000
     16      48.1209      0.00000
     17      48.8703      0.00000
     18      53.6306      0.00000
     19      55.3592      0.00000
     20      55.8240      0.00000
     21      56.2839      0.00000
     22      57.3069      0.00000
     23      59.4429      0.00000
     24      59.7754      0.00000
     25      62.9854      0.00000
     26      63.7089      0.00000
     27      63.9247      0.00000
     28      68.4101      0.00000
     29      70.0055      0.00000
     30      70.3500      0.00000
     31      71.3269      0.00000
     32      75.3455      0.00000
     33      76.3682      0.00000
     34      78.4754      0.00000
     35      80.4721      0.00000
     36      80.8569      0.00000
     37      82.8669      0.00000
     38      83.9480      0.00000
     39      88.3557      0.00000
     40      88.7960      0.00000
     41      92.4493      0.00000
     42      94.1393      0.00000
     43      94.7675      0.00000
     44      95.6483      0.00000
     45      98.8372      0.00000
     46      99.1434      0.00000
     47     101.9343      0.00000
     48     102.9405      0.00000

 k-point    13 :       0.5000    0.0833    0.0000
  band No.  band energies     occupation 
      1       2.9258      1.00000
      2       4.3803      1.00000
      3      16.9200      0.00000
      4      17.5596      0.00000
      5      19.2081      0.00000
      6      21.4563      0.00000
      7      24.4106      0.00000
      8      24.8996      0.00000
      9      31.0148      0.00000
     10      32.7277      0.00000
     11      38.9260      0.00000
     12      38.9706      0.00000
     13      40.2075      0.00000
     14      46.4547      0.00000
     15      49.8408      0.00000
     16      49.9857      0.00000
     17      50.9811      0.00000
     18      53.8687      0.00000
     19      54.5123      0.00000
     20      55.8076      0.00000
     21      56.2499      0.00000
     22      56.7159      0.00000
     23      57.6702      0.00000
     24      58.8735      0.00000
     25      61.7134      0.00000
     26      62.2377      0.00000
     27      63.2531      0.00000
     28      64.3326      0.00000
     29      69.2865      0.00000
     30      69.8585      0.00000
     31      71.8510      0.00000
     32      74.6235      0.00000
     33      76.0398      0.00000
     34      78.4526      0.00000
     35      80.3373      0.00000
     36      80.8186      0.00000
     37      81.6980      0.00000
     38      83.8662      0.00000
     39      88.6432      0.00000
     40      88.8454      0.00000
     41      92.0175      0.00000
     42      94.3988      0.00000
     43      96.3197      0.00000
     44      98.9171      0.00000
     45      99.4389      0.00000
     46     100.9722      0.00000
     47     102.5669      0.00000
     48     104.8862      0.00000

 k-point    14 :      -0.4167    0.0833    0.0000
  band No.  band energies     occupation 
      1       2.2657      1.00000
      2       5.1498      1.00000
      3      16.3086      0.00000
      4      18.2612      0.00000
      5      19.9506      0.00000
      6      20.8656      0.00000
      7      23.8262      0.00000
      8      25.5555      0.00000
      9      30.8793      0.00000
     10      32.0555      0.00000
     11      38.0167      0.00000
     12      39.8290      0.00000
     13      40.8554      0.00000
     14      46.6188      0.00000
     15      47.9217      0.00000
     16      49.5151      0.00000
     17      51.2227      0.00000
     18      54.2797      0.00000
     19      55.0432      0.00000
     20      55.4401      0.00000
     21      55.9321      0.00000
     22      57.4786      0.00000
     23      57.5901      0.00000
     24      59.1039      0.00000
     25      61.6724      0.00000
     26      61.8089      0.00000
     27      63.9350      0.00000
     28      65.6113      0.00000
     29      69.6476      0.00000
     30      69.7562      0.00000
     31      71.5419      0.00000
[...]
     15      48.3762      0.00000
     16      49.0333      0.00000
     17      52.1224      0.00000
     18      52.8872      0.00000
     19      54.4410      0.00000
     20      54.8929      0.00000
     21      55.0388      0.00000
     22      55.7884      0.00000
     23      57.8632      0.00000
     24      58.3502      0.00000
     25      58.9014      0.00000
     26      60.7340      0.00000
     27      63.8191      0.00000
     28      64.5988      0.00000
     29      66.3520      0.00000
     30      67.5896      0.00000
     31      68.2379      0.00000
     32      70.4677      0.00000
     33      71.7220      0.00000
     34      77.6037      0.00000
     35      83.9559      0.00000
     36      85.4356      0.00000
     37      87.4024      0.00000
     38      87.7392      0.00000
     39      89.0061      0.00000
     40      90.0707      0.00000
     41      92.7018      0.00000
     42      94.9738      0.00000
     43      97.0272      0.00000
     44      99.2714      0.00000
     45     101.9222      0.00000
     46     102.2228      0.00000
     47     102.6166      0.00000
     48     105.4701      0.00000

 k-point    68 :      -0.4167    0.4167    0.1667
  band No.  band energies     occupation 
      1       3.9221      1.00000
      2       8.9549      0.04991
      3       9.6629      0.00000
      4      10.6127      0.00000
      5      20.0670      0.00000
      6      21.8552      0.00000
      7      26.1614      0.00000
      8      30.8068      0.00000
      9      33.7858      0.00000
     10      37.4203      0.00000
     11      39.9420      0.00000
     12      40.2383      0.00000
     13      43.3052      0.00000
     14      43.8921      0.00000
     15      46.9915      0.00000
     16      49.5990      0.00000
     17      49.9885      0.00000
     18      50.9379      0.00000
     19      51.8720      0.00000
     20      54.0033      0.00000
     21      55.1978      0.00000
     22      55.5000      0.00000
     23      58.1996      0.00000
     24      59.4219      0.00000
     25      60.4843      0.00000
     26      61.9153      0.00000
     27      63.7606      0.00000
     28      65.0499      0.00000
     29      65.7394      0.00000
     30      67.2237      0.00000
     31      70.5019      0.00000
     32      70.9128      0.00000
     33      76.0420      0.00000
     34      79.2460      0.00000
     35      79.9335      0.00000
     36      85.3771      0.00000
     37      86.3074      0.00000
     38      87.4866      0.00000
     39      88.8363      0.00000
     40      90.9513      0.00000
     41      94.0087      0.00000
     42      94.4232      0.00000
     43      95.4766      0.00000
     44      98.2369      0.00000
     45      98.9848      0.00000
     46     100.3392      0.00000
     47     103.2936      0.00000
     48     105.7363      0.00000

 k-point    69 :      -0.3333    0.4167    0.1667
  band No.  band energies     occupation 
      1       5.6916      1.00000
      2       7.1025      1.01177
      3       8.8498     -0.00225
      4      10.3921      0.00000
      5      21.1167      0.00000
      6      23.9649      0.00000
      7      25.2839      0.00000
      8      28.0466      0.00000
      9      34.1204      0.00000
     10      37.7885      0.00000
     11      41.0752      0.00000
     12      41.7904      0.00000
     13      42.9962      0.00000
     14      43.9084      0.00000
     15      45.7004      0.00000
     16      47.8822      0.00000
     17      51.0078      0.00000
     18      52.8053      0.00000
     19      54.2242      0.00000
     20      55.0798      0.00000
     21      55.1101      0.00000
     22      56.4198      0.00000
     23      57.7985      0.00000
     24      58.9858      0.00000
     25      60.0591      0.00000
     26      61.0933      0.00000
     27      62.4052      0.00000
     28      63.3600      0.00000
     29      64.7433      0.00000
     30      66.2051      0.00000
     31      68.0555      0.00000
     32      72.3949      0.00000
     33      73.5847      0.00000
     34      77.8028      0.00000
     35      81.2639      0.00000
     36      83.8131      0.00000
     37      87.6750      0.00000
     38      88.0062      0.00000
     39      90.5674      0.00000
     40      92.6213      0.00000
     41      95.0366      0.00000
     42      95.6820      0.00000
     43      97.9982      0.00000
     44      98.2939      0.00000
     45     100.3926      0.00000
     46     100.6691      0.00000
     47     102.8207      0.00000
     48     105.1098      0.00000

 k-point    70 :      -0.2500    0.4167    0.1667
  band No.  band energies     occupation 
      1       5.1059      1.00000
      2       7.3380      0.99696
      3       8.7717     -0.00053
      4      11.0439      0.00000
      5      21.9320      0.00000
      6      23.9394      0.00000
      7      25.1680      0.00000
      8      27.5718      0.00000
      9      33.3610      0.00000
     10      36.9055      0.00000
     11      39.9093      0.00000
     12      40.5506      0.00000
     13      43.6196      0.00000
     14      45.1193      0.00000
     15      46.7921      0.00000
     16      49.1507      0.00000
     17      51.5817      0.00000
     18      51.8721      0.00000
     19      54.5642      0.00000
     20      54.8494      0.00000
     21      55.0745      0.00000
     22      57.1180      0.00000
     23      57.6876      0.00000
     24      59.4205      0.00000
     25      59.5424      0.00000
     26      60.5073      0.00000
     27      63.0328      0.00000
     28      64.4129      0.00000
     29      64.4130      0.00000
     30      66.2925      0.00000
     31      67.3390      0.00000
     32      70.5777      0.00000
     33      74.1874      0.00000
     34      78.9994      0.00000
     35      79.4766      0.00000
     36      86.0928      0.00000
     37      87.3050      0.00000
     38      88.1892      0.00000
     39      89.9907      0.00000
     40      92.6288      0.00000
     41      94.6728      0.00000
     42      94.9880      0.00000
     43      97.2889      0.00000
     44      98.9730      0.00000
     45     100.2008      0.00000
     46     101.4330      0.00000
     47     103.4506      0.00000
     48     105.2692      0.00000

 k-point    71 :      -0.3333    0.5000    0.1667
  band No.  band energies     occupation 
      1       5.9553      1.00000
      2       7.2960      1.01118
      3       8.7238     -0.00208
      4      10.2813      0.00000
      5      19.8433      0.00000
      6      21.6703      0.00000
      7      27.9421      0.00000
      8      28.9710      0.00000
      9      34.9412      0.00000
     10      39.7679      0.00000
     11      41.7508      0.00000
     12      41.9706      0.00000
     13      43.0101      0.00000
     14      44.1123      0.00000
     15      44.6976      0.00000
     16      45.4334      0.00000
     17      49.9823      0.00000
     18      53.4587      0.00000
     19      53.9808      0.00000
     20      54.0208      0.00000
     21      55.7322      0.00000
     22      55.9249      0.00000
     23      56.0074      0.00000
     24      56.4511      0.00000
     25      59.3626      0.00000
     26      61.9279      0.00000
     27      62.7367      0.00000
     28      64.7338      0.00000
     29      66.4725      0.00000
     30      66.7213      0.00000
     31      70.3610      0.00000
     32      72.6378      0.00000
     33      76.0157      0.00000
     34      79.0864      0.00000
     35      79.2036      0.00000
     36      81.9599      0.00000
     37      87.5825      0.00000
     38      87.9554      0.00000
     39      88.4785      0.00000
     40      91.1988      0.00000
     41      93.6227      0.00000
     42      96.1284      0.00000
     43      96.2704      0.00000
     44      99.9824      0.00000
     45     100.3511      0.00000
     46     103.4205      0.00000
     47     104.1559      0.00000
     48     104.7155      0.00000

 k-point    72 :      -0.2500    0.5000    0.2500
  band No.  band energies     occupation 
      1       7.1074      1.00000
      2       7.1074      1.00000
      3       8.1256      0.00000
      4       9.0248      0.00000
      5      23.7265      0.00000
      6      23.7265      0.00000
      7      24.2525      0.00000
      8      26.2913      0.00000
      9      34.9979      0.00000
     10      39.7984      0.00000
     11      42.3422      0.00000
     12      42.3422      0.00000
     13      43.1564      0.00000
     14      43.1564      0.00000
     15      43.8801      0.00000
     16      44.9350      0.00000
     17      52.5094      0.00000
     18      52.5094      0.00000
     19      54.1793      0.00000
     20      54.8173      0.00000
     21      57.7021      0.00000
     22      57.7021      0.00000
     23      58.9401      0.00000
     24      59.2956      0.00000
     25      59.8729      0.00000
     26      60.2298      0.00000
     27      62.1213      0.00000
     28      62.1213      0.00000
     29      64.6190      0.00000
     30      64.6190      0.00000
     31      64.9197      0.00000
     32      73.0274      0.00000
     33      74.8246      0.00000
     34      79.3411      0.00000
     35      79.3411      0.00000
     36      80.9977      0.00000
     37      89.2510      0.00000
     38      89.2510      0.00000
     39      94.3661      0.00000
     40      94.5558      0.00000
     41      96.1687      0.00000
     42      96.3113      0.00000
     43      97.4400      0.00000
     44      97.4400      0.00000
     45      99.1016      0.00000
     46      99.1016      0.00000
     47     102.5100      0.00000
     48     102.5145      0.00000


--------------------------------------------------------------------------------------------------------


 soft charge-density along one line, spin component           1
         0         1         2         3         4         5         6         7         8         9
 total charge-density along one line

 soft charge-density along one line, spin component           2
         0         1         2         3         4         5         6         7         8         9
 total charge-density along one line

 pseudopotential strength for first ion, spin component:           1
  8.445  14.393  -0.000   0.000   0.000  -0.000   0.000   0.000
 14.393  24.530  -0.000   0.000   0.000  -0.000   0.000   0.000
 -0.000  -0.000   1.987  -0.000  -0.000   5.730  -0.000  -0.000
  0.000   0.000  -0.000   1.987  -0.000  -0.000   5.730  -0.000
  0.000   0.000  -0.000  -0.000   1.987  -0.000  -0.000   5.730
 -0.000  -0.000   5.730  -0.000  -0.000  16.434  -0.000  -0.000
  0.000   0.000  -0.000   5.730  -0.000  -0.000  16.434  -0.000
  0.000   0.000  -0.000  -0.000   5.730  -0.000  -0.000  16.434
 pseudopotential strength for first ion, spin component:           2
  8.445  14.393  -0.000   0.000   0.000  -0.000   0.000   0.000
 14.393  24.531  -0.000   0.000   0.000  -0.000   0.000   0.000
 -0.000  -0.000   1.987  -0.000  -0.000   5.730  -0.000  -0.000
  0.000   0.000  -0.000   1.987  -0.000  -0.000   5.730  -0.000
  0.000   0.000  -0.000  -0.000   1.987  -0.000  -0.000   5.730
 -0.000  -0.000   5.730  -0.000  -0.000  16.434  -0.000  -0.000
  0.000   0.000  -0.000   5.730  -0.000  -0.000  16.434  -0.000
  0.000   0.000  -0.000  -0.000   5.730  -0.000  -0.000  16.434
 total augmentation occupancy for first ion, spin component:           1
  3.356  -0.828   0.000   0.000   0.000   0.000   0.000   0.000
 -0.828   0.269   0.000   0.000   0.000   0.000   0.000   0.000
  0.000   0.000   1.102   0.000  -0.000  -0.070   0.000   0.000
  0.000   0.000   0.000   1.102  -0.000  -0.000  -0.070  -0.000
  0.000   0.000  -0.000   0.000   1.102   0.000  -0.000  -0.070
  0.000   0.000  -0.070  -0.000   0.000   0.005  -0.000  -0.000
  0.000   0.000   0.000  -0.070   0.000  -0.000   0.005  -0.000
  0.000   0.000   0.000  -0.000  -0.070   0.000   0.000   0.005
 total augmentation occupancy for first ion, spin component:           2
  0.020  -0.007   0.000   0.000   0.000   0.000   0.000   0.000
 -0.007   0.002   0.000   0.000   0.000   0.000   0.000   0.000
  0.000   0.000   0.003   0.000   0.000  -0.000   0.000   0.000
  0.000   0.000   0.000   0.003   0.000   0.000  -0.000   0.000
  0.000   0.000   0.000   0.000   0.003   0.000   0.000  -0.000
  0.000   0.000  -0.000   0.000   0.000   0.000   0.000   0.000
  0.000   0.000   0.000  -0.000   0.000   0.000   0.000   0.000
  0.000   0.000   0.000   0.000  -0.000   0.000   0.000   0.000


------------------------ aborting loop because EDIFF is reached ----------------------------------------





 total charge

# of ion       s       p       d       tot
------------------------------------------
    1        0.425   0.339   0.000   0.765



 magnetization (x)

# of ion       s       p       d       tot
------------------------------------------
    1       -0.000  -0.000   0.000  -0.000

    CHARGE:  cpu time    0.0516: real time    0.0516
    FORLOC:  cpu time    0.0001: real time    0.0002
    FORNL :  cpu time    0.0078: real time    0.0079
    STRESS:  cpu time    0.1020: real time    0.1021
    FORCOR:  cpu time    0.0052: real time    0.0053
    FORHAR:  cpu time    0.0008: real time    0.0008
    MIXING:  cpu time    0.0003: real time    0.0003
    OFIELD:  cpu time    0.0000: real time    0.0000

  FORCE on cell =-STRESS in cart. coord.  units (eV):
  Direction    XX          YY          ZZ          XY          YZ          ZX
  --------------------------------------------------------------------------------------
  Alpha Z    -0.20255    -0.20255    -0.20255
  Ewald     -24.46432   -24.46432   -24.46432    -0.00000    -0.00000     0.00000
  Hartree     0.03537     0.03537     0.03537     0.00000     0.00000     0.00000
  E(xc)      -8.54923    -8.54923    -8.54923     0.00000     0.00000     0.00000
  Local       0.34242     0.34242     0.34242    -0.00000    -0.00000    -0.00000
  n-local    18.85849    18.52956    19.02037     0.47732    -0.57527     0.50850
  augment    -1.02257    -1.02257    -1.02257     0.00000     0.00000     0.00000
  Kinetic    12.28098    10.96460    21.65883    -9.61079     8.17066    -6.16854
  Fock        0.00000     0.00000     0.00000     0.00000     0.00000     0.00000
  -------------------------------------------------------------------------------------
  Total      -0.08994    -0.08994    -0.08994     0.00000     0.00000    -0.00000
  in kB      -8.68920    -8.68920    -8.68920     0.00000     0.00000    -0.00000
  external pressure =       -8.69 kB  Pullay stress =        0.00 kB


 VOLUME and BASIS-vectors are now :
 -----------------------------------------------------------------------------
  energy-cutoff  :      520.00
  volume of cell :       16.58
      direct lattice vectors                 reciprocal lattice vectors
     0.000000000  2.024000000  2.024000000    -0.247035573  0.247035573  0.247035573
     2.024000000  0.000000000  2.024000000     0.247035573 -0.247035573  0.247035573
     2.024000000  2.024000000  0.000000000     0.247035573  0.247035573 -0.247035573

  length of vectors
     2.862368250  2.862368250  2.862368250     0.427878164  0.427878164  0.427878164


 FORCES acting on ions
    electron-ion (+dipol)            ewald-force                    non-local-force                 convergence-correction
 -----------------------------------------------------------------------------------------------
   0.104E-14 0.357E-15 0.155E-14   0.817E-16 0.470E-16 -.229E-15   0.000E+00 0.775E-25 -.207E-24   -.179E-17 0.817E-17 0.822E-17
 -----------------------------------------------------------------------------------------------
   0.104E-14 0.357E-15 0.155E-14   0.817E-16 0.470E-16 -.229E-15   0.000E+00 0.775E-25 -.207E-24   -.179E-17 0.817E-17 0.822E-17


 POSITION                                       TOTAL-FORCE (eV/Angst)
 -----------------------------------------------------------------------------------
      0.00000      0.00000      0.00000        -0.000000      0.000000     -0.000000
 -----------------------------------------------------------------------------------
    total drift:                                0.000000      0.000000      0.000000


--------------------------------------------------------------------------------------------------------



  FREE ENERGIE OF THE ION-ELECTRON SYSTEM (eV)
  ---------------------------------------------------
  free  energy   TOTEN  =        -3.75043855 eV

  energy  without entropy=       -3.75043855  energy(sigma->0) =       -3.75043855



--------------------------------------------------------------------------------------------------------


    POTLOK:  cpu time    0.1592: real time    0.1592


--------------------------------------------------------------------------------------------------------


 stress matrix after NEB project (eV)
     -0.08994      0.00000     -0.00000
      0.00000     -0.08994     -0.00000
      0.00000      0.00000     -0.08994
  FORCES: max atom, RMS     0.000000    0.000000
  FORCE total and by dimension    0.000000    0.000000
  Stress total and by dimension    0.155773    0.089935
     LOOP+:  cpu time   68.2538: real time   68.2609
 -----------------------------------------------------------------------------
|                                                                             |
|           W    W    AA    RRRRR   N    N  II  N    N   GGGG   !!!           |
|           W    W   A  A   R    R  NN   N  II  NN   N  G    G  !!!           |
|           W    W  A    A  R    R  N N  N  II  N N  N  G       !!!           |
|           W WW W  AAAAAA  RRRRR   N  N N  II  N  N N  G  GGG   !            |
|           WW  WW  A    A  R   R   N   NN  II  N   NN  G    G                |
|           W    W  A    A  R    R  N    N  II  N    N   GGGG   !!!           |
|                                                                             |
|     Tetrahedron method does not include variations of the Fermi             |
|     occupations, so forces and stress will be inaccurate. We suggest        |
|     using a different smearing scheme ISMEAR = 1 or 2 for metals in         |
|     relaxations.                                                            |
|                                                                             |
 -----------------------------------------------------------------------------

    4ORBIT:  cpu time    0.0000: real time    0.0000



 total charge

# of ion       s       p       d       tot
------------------------------------------
    1        0.425   0.339   0.000   0.765



 magnetization (x)

# of ion       s       p       d       tot
------------------------------------------
    1       -0.000  -0.000   0.000  -0.000

 BZINTS: Fermi energy:    7.977613;    3.000000 electrons
         Band energy: 0.106072E+02;  BLOECHL correction:   -0.098957

 total amount of memory used by VASP MPI-rank0    34886. kBytes
=======================================================================

   base      :      30000. kBytes
   nonl-proj :       2219. kBytes
   fftplans  :        150. kBytes
   grid      :       1295. kBytes
   one-center:          6. kBytes
   wavefun   :       1216. kBytes

  
  
 General timing and accounting informations for this job:
 ========================================================
  
                  Total CPU time used (sec):       71.106
                            User time (sec):       69.238
                          System time (sec):        1.868
                         Elapsed time (sec):       71.034
  
                   Maximum memory used (kb):       53136.
                   Average memory used (kb):          N/A
  
                          Minor page faults:        31451
                          Major page faults:          452
                 Voluntary context switches:         2037
