<?xml version="1.0" encoding="ISO-8859-1"?>
<modeling>
 <generator>
  <i name="program" type="string">vasp </i>
  <i name="version" type="string">6.2.1  </i>
  <i name="subversion" type="string">16May21 (build Aug 15 2022 14:47:30) complex                          parallel </i>
  <i name="platform" type="string">LinuxGNU </i>
  <i name="date" type="string">2025 12 11 </i>
  <i name="time" type="string">13:45:52 </i>
 </generator>
 <incar>
  <i type="string" name="PREC">Accurate</i>
  <i type="string" name="ALGO">Fast</i>
  <i type="int" name="ISPIN">     2</i>
  <i type="int" name="NELM">   100</i>
  <i name="EDIFF">      0.00005000</i>
  <i type="int" name="NSW">     0</i>
  <i name="ENCUT">    520.00000000</i>
  <v name="MAGMOM">      0.60000000</v>
  <i type="logical" name="LREAL"> F  </i>
  <i type="int" name="ISMEAR">    -5</i>
  <i name="SIGMA">      0.05000000</i>
  <i type="logical" name="LWAVE"> F  </i>
  <i type="logical" name="LCHARG"> T  </i>
  <i type="int" name="LORBIT">    11</i>
  <i type="logical" name="LASPH"> T  </i>
 </incar>
 <primitive_cell>
  <structure name="primitive_cell" >
   <crystal>
    <varray name="basis" >
     <v>       0.00000000       2.02400000       2.02400000 </v>
     <v>       2.02400000       0.00000000       2.02400000 </v>
     <v>       2.02400000       2.02400000       0.00000000 </v>
    </varray>
    <i name="volume">     16.58293965 </i>
    <varray name="rec_basis" >
     <v>      -0.24703557       0.24703557       0.24703557 </v>
     <v>       0.24703557      -0.24703557       0.24703557 </v>
     <v>       0.24703557       0.24703557      -0.24703557 </v>
    </varray>
   </crystal>
   <varray name="positions" >
    <v>       0.00000000       0.00000000       0.00000000 </v>
   </varray>
  </structure>
  <varray name="primitive_index" >
   <v type="int" >        1 </v>
  </varray>
 </primitive_cell>
 <kpoints>
  <generation param="Gamma">
   <v type="int" name="divisions">      11       11       11 </v>
   <v name="usershift">      0.00000000       0.00000000       0.00000000 </v>
   <v name="genvec1">      0.09090909       0.00000000       0.00000000 </v>
   <v name="genvec2">      0.00000000       0.09090909       0.00000000 </v>
   <v name="genvec3">      0.00000000       0.00000000       0.09090909 </v>
   <v name="shift">      0.00000000       0.00000000       0.00000000 </v>
  </generation>
  <varray name="kpointlist" >
   <v>       0.00000000       0.00000000       0.00000000 </v>
   <v>       0.09090909       0.00000000       0.00000000 </v>
   <v>       0.18181818       0.00000000       0.00000000 </v>
   <v>       0.27272727       0.00000000       0.00000000 </v>
   <v>       0.36363636       0.00000000       0.00000000 </v>
   <v>       0.45454545       0.00000000       0.00000000 </v>
   <v>       0.09090909       0.09090909       0.00000000 </v>
   <v>       0.18181818       0.09090909       0.00000000 </v>
   <v>       0.27272727       0.09090909       0.00000000 </v>
   <v>       0.36363636       0.09090909       0.00000000 </v>
   <v>       0.45454545       0.09090909       0.00000000 </v>
   <v>      -0.45454545       0.09090909       0.00000000 </v>
   <v>      -0.36363636       0.09090909       0.00000000 </v>
   <v>      -0.27272727       0.09090909       0.00000000 </v>
   <v>      -0.18181818       0.09090909       0.00000000 </v>
   <v>      -0.09090909       0.09090909       0.00000000 </v>
   <v>       0.18181818       0.18181818       0.00000000 </v>
   <v>       0.27272727       0.18181818       0.00000000 </v>
   <v>       0.36363636       0.18181818       0.00000000 </v>
   <v>       0.45454545       0.18181818       0.00000000 </v>
   <v>      -0.45454545       0.18181818       0.00000000 </v>
   <v>      -0.36363636       0.18181818       0.00000000 </v>
   <v>      -0.27272727       0.18181818       0.00000000 </v>
   <v>      -0.18181818       0.18181818       0.00000000 </v>
   <v>       0.27272727       0.27272727       0.00000000 </v>
   <v>       0.36363636       0.27272727       0.00000000 </v>
   <v>       0.45454545       0.27272727       0.00000000 </v>
   <v>      -0.45454545       0.27272727       0.00000000 </v>
   <v>      -0.36363636       0.27272727       0.00000000 </v>
   <v>      -0.27272727       0.27272727       0.00000000 </v>
   <v>       0.36363636       0.36363636       0.00000000 </v>
   <v>       0.45454545       0.36363636       0.00000000 </v>
   <v>      -0.45454545       0.36363636       0.00000000 </v>
   <v>      -0.36363636       0.36363636       0.00000000 </v>
   <v>       0.45454545       0.45454545       0.00000000 </v>
   <v>      -0.45454545       0.45454545       0.00000000 </v>
   <v>       0.27272727       0.18181818       0.09090909 </v>
   <v>       0.36363636       0.18181818       0.09090909 </v>
   <v>       0.45454545       0.18181818       0.09090909 </v>
   <v>      -0.45454545       0.18181818       0.09090909 </v>
   <v>       0.36363636       0.27272727       0.09090909 </v>
   <v>       0.45454545       0.27272727       0.09090909 </v>
   <v>      -0.45454545       0.27272727       0.09090909 </v>
   <v>      -0.36363636       0.27272727       0.09090909 </v>
   <v>      -0.27272727       0.27272727       0.09090909 </v>
   <v>      -0.18181818       0.27272727       0.09090909 </v>
   <v>       0.45454545       0.36363636       0.09090909 </v>
   <v>      -0.45454545       0.36363636       0.09090909 </v>
   <v>      -0.36363636       0.36363636       0.09090909 </v>
   <v>      -0.27272727       0.36363636       0.09090909 </v>
   <v>      -0.45454545       0.45454545       0.09090909 </v>
   <v>      -0.36363636       0.45454545       0.09090909 </v>
   <v>      -0.45454545       0.36363636       0.18181818 </v>
   <v>      -0.36363636       0.36363636       0.18181818 </v>
   <v>      -0.36363636       0.45454545       0.18181818 </v>
   <v>      -0.27272727       0.45454545       0.18181818 </v>
  </varray>
  <varray name="weights" >
   <v>       0.00075131 </v>
   <v>       0.00601052 </v>
   <v>       0.00601052 </v>
   <v>       0.00601052 </v>
   <v>       0.00601052 </v>
   <v>       0.00601052 </v>
   <v>       0.00450789 </v>
   <v>       0.01803156 </v>
   <v>       0.01803156 </v>
   <v>       0.01803156 </v>
   <v>       0.01803156 </v>
   <v>       0.01803156 </v>
   <v>       0.01803156 </v>
   <v>       0.01803156 </v>
   <v>       0.01803156 </v>
   <v>       0.00901578 </v>
   <v>       0.00450789 </v>
   <v>       0.01803156 </v>
   <v>       0.01803156 </v>
   <v>       0.01803156 </v>
   <v>       0.01803156 </v>
   <v>       0.01803156 </v>
   <v>       0.01803156 </v>
   <v>       0.00901578 </v>
   <v>       0.00450789 </v>
   <v>       0.01803156 </v>
   <v>       0.01803156 </v>
   <v>       0.01803156 </v>
   <v>       0.01803156 </v>
   <v>       0.00901578 </v>
   <v>       0.00450789 </v>
   <v>       0.01803156 </v>
   <v>       0.01803156 </v>
   <v>       0.00901578 </v>
   <v>       0.00450789 </v>
   <v>       0.00901578 </v>
   <v>       0.01803156 </v>
   <v>       0.03606311 </v>
   <v>       0.03606311 </v>
   <v>       0.03606311 </v>
   <v>       0.01803156 </v>
   <v>       0.03606311 </v>
   <v>       0.03606311 </v>
   <v>       0.03606311 </v>
   <v>       0.03606311 </v>
   <v>       0.01803156 </v>
   <v>       0.01803156 </v>
   <v>       0.03606311 </v>
   <v>       0.03606311 </v>
   <v>       0.01803156 </v>
   <v>       0.01803156 </v>
   <v>       0.01803156 </v>
   <v>       0.01803156 </v>
   <v>       0.03606311 </v>
   <v>       0.01803156 </v>
   <v>       0.01803156 </v>
  </varray>
  <varray name="tetrahedronlist"  type="int" >
   <v type="int" >       24        1        2        2        7 </v>
   <v type="int" >       48        2        7        8       16 </v>
   <v type="int" >       48        2        3        8       16 </v>
   <v type="int" >       24        2        2        7       16 </v>
   <v type="int" >       48        3        8        9       15 </v>
   <v type="int" >       48        3        4        9       15 </v>
   <v type="int" >       48        3        8       15       16 </v>
   <v type="int" >       48        4        9       10       14 </v>
   <v type="int" >       48        4        5       10       14 </v>
   <v type="int" >       48        4        9       14       15 </v>
   <v type="int" >       48        5       10       11       13 </v>
   <v type="int" >       48        5        6       11       13 </v>
   <v type="int" >       48        5       10       13       14 </v>
   <v type="int" >       48        6       11       12       12 </v>
   <v type="int" >       24        6        6       12       12 </v>
   <v type="int" >       48        6       11       12       13 </v>
   <v type="int" >       24        7        8        8       17 </v>
   <v type="int" >       24        7        8        8       16 </v>
   <v type="int" >       48        8       17       18       37 </v>
   <v type="int" >       48        8        9       18       37 </v>
   <v type="int" >       48        8        9       15       37 </v>
   <v type="int" >       24        8        8       17       37 </v>
   <v type="int" >       24        8        8       16       37 </v>
   <v type="int" >       48        8       15       16       37 </v>
   <v type="int" >       48        9       18       19       38 </v>
   <v type="int" >       48        9       10       19       38 </v>
   <v type="int" >       48        9       10       14       38 </v>
   <v type="int" >       48        9       18       37       38 </v>
   <v type="int" >       48        9       15       37       38 </v>
   <v type="int" >       48        9       14       15       38 </v>
   <v type="int" >       48       10       19       20       39 </v>
   <v type="int" >       48       10       11       20       39 </v>
   <v type="int" >       48       10       11       13       39 </v>
   <v type="int" >       48       10       19       38       39 </v>
   <v type="int" >       48       10       14       38       39 </v>
   <v type="int" >       48       10       13       14       39 </v>
   <v type="int" >       48       11       20       21       40 </v>
   <v type="int" >       48       11       12       21       40 </v>
   <v type="int" >       48       11       12       12       40 </v>
   <v type="int" >       48       11       20       39       40 </v>
   <v type="int" >       48       11       13       39       40 </v>
   <v type="int" >       48       11       12       13       40 </v>
   <v type="int" >       48       12       21       22       40 </v>
   <v type="int" >       48       12       13       22       40 </v>
   <v type="int" >       48       12       21       40       40 </v>
   <v type="int" >       24       12       12       40       40 </v>
   <v type="int" >       48       13       22       23       39 </v>
   <v type="int" >       48       13       14       23       39 </v>
   <v type="int" >       48       13       22       39       40 </v>
   <v type="int" >       48       14       23       24       38 </v>
   <v type="int" >       48       14       15       24       38 </v>
   <v type="int" >       48       14       23       38       39 </v>
   <v type="int" >       24       15       15       24       37 </v>
   <v type="int" >       24       15       15       16       37 </v>
   <v type="int" >       48       15       24       37       38 </v>
   <v type="int" >       24       17       18       18       25 </v>
   <v type="int" >       24       17       18       18       37 </v>
   <v type="int" >       48       18       25       26       41 </v>
   <v type="int" >       48       18       19       26       41 </v>
   <v type="int" >       48       18       19       38       41 </v>
   <v type="int" >       24       18       18       25       41 </v>
   <v type="int" >       24       18       18       37       41 </v>
   <v type="int" >       48       18       37       38       41 </v>
   <v type="int" >       48       19       26       27       42 </v>
   <v type="int" >       48       19       20       27       42 </v>
   <v type="int" >       48       19       20       39       42 </v>
   <v type="int" >       48       19       26       41       42 </v>
   <v type="int" >       48       19       38       41       42 </v>
   <v type="int" >       48       19       38       39       42 </v>
   <v type="int" >       48       20       27       28       43 </v>
   <v type="int" >       48       20       21       28       43 </v>
   <v type="int" >       48       20       21       40       43 </v>
   <v type="int" >       48       20       27       42       43 </v>
   <v type="int" >       48       20       39       42       43 </v>
   <v type="int" >       48       20       39       40       43 </v>
   <v type="int" >       48       21       28       29       44 </v>
   <v type="int" >       48       21       22       29       44 </v>
   <v type="int" >       48       21       22       40       44 </v>
   <v type="int" >       48       21       28       43       44 </v>
   <v type="int" >       48       21       40       43       44 </v>
   <v type="int" >       48       21       40       40       44 </v>
   <v type="int" >       48       22       29       30       45 </v>
   <v type="int" >       48       22       23       30       45 </v>
   <v type="int" >       48       22       23       39       45 </v>
   <v type="int" >       48       22       29       44       45 </v>
   <v type="int" >       48       22       40       44       45 </v>
   <v type="int" >       48       22       39       40       45 </v>
   <v type="int" >       24       23       23       30       46 </v>
   <v type="int" >       24       23       23       24       46 </v>
   <v type="int" >       48       23       24       38       46 </v>
   <v type="int" >       48       23       30       45       46 </v>
   <v type="int" >       48       23       39       45       46 </v>
   <v type="int" >       48       23       38       39       46 </v>
   <v type="int" >       24       24       38       38       46 </v>
   <v type="int" >       24       24       37       38       38 </v>
   <v type="int" >       24       25       26       26       31 </v>
   <v type="int" >       24       25       26       26       41 </v>
   <v type="int" >       48       26       31       32       47 </v>
   <v type="int" >       48       26       27       32       47 </v>
   <v type="int" >       48       26       27       42       47 </v>
   <v type="int" >       24       26       26       31       47 </v>
   <v type="int" >       24       26       26       41       47 </v>
   <v type="int" >       48       26       41       42       47 </v>
   <v type="int" >       48       27       32       33       48 </v>
   <v type="int" >       48       27       28       33       48 </v>
   <v type="int" >       48       27       28       43       48 </v>
   <v type="int" >       48       27       32       47       48 </v>
   <v type="int" >       48       27       42       47       48 </v>
   <v type="int" >       48       27       42       43       48 </v>
   <v type="int" >       48       28       33       34       49 </v>
   <v type="int" >       48       28       29       34       49 </v>
   <v type="int" >       48       28       29       44       49 </v>
   <v type="int" >       48       28       33       48       49 </v>
   <v type="int" >       48       28       43       48       49 </v>
   <v type="int" >       48       28       43       44       49 </v>
   <v type="int" >       24       29       29       34       50 </v>
   <v type="int" >       24       29       29       30       50 </v>
   <v type="int" >       48       29       30       45       50 </v>
   <v type="int" >       48       29       34       49       50 </v>
   <v type="int" >       48       29       44       49       50 </v>
   <v type="int" >       48       29       44       45       50 </v>
   <v type="int" >       24       30       45       45       50 </v>
   <v type="int" >       24       30       45       45       46 </v>
   <v type="int" >       24       31       32       32       35 </v>
   <v type="int" >       24       31       32       32       47 </v>
   <v type="int" >       48       32       35       36       51 </v>
   <v type="int" >       48       32       33       36       51 </v>
   <v type="int" >       48       32       33       48       51 </v>
   <v type="int" >       24       32       32       35       51 </v>
   <v type="int" >       24       32       32       47       51 </v>
   <v type="int" >       48       32       47       48       51 </v>
   <v type="int" >       24       33       33       36       52 </v>
   <v type="int" >       24       33       33       34       52 </v>
   <v type="int" >       48       33       34       49       52 </v>
   <v type="int" >       48       33       36       51       52 </v>
   <v type="int" >       48       33       48       51       52 </v>
   <v type="int" >       48       33       48       49       52 </v>
   <v type="int" >       24       34       49       49       52 </v>
   <v type="int" >       24       34       49       49       50 </v>
   <v type="int" >       12       35       35       36       36 </v>
   <v type="int" >       24       35       36       36       51 </v>
   <v type="int" >       12       36       36       51       51 </v>
   <v type="int" >       24       36       51       51       52 </v>
   <v type="int" >       24       37       38       38       41 </v>
   <v type="int" >       48       38       41       42       46 </v>
   <v type="int" >       48       38       39       42       46 </v>
   <v type="int" >       24       38       38       41       46 </v>
   <v type="int" >       48       39       42       43       45 </v>
   <v type="int" >       48       39       40       43       45 </v>
   <v type="int" >       48       39       42       45       46 </v>
   <v type="int" >       48       40       43       44       44 </v>
   <v type="int" >       24       40       40       44       44 </v>
   <v type="int" >       48       40       43       44       45 </v>
   <v type="int" >       24       41       42       42       47 </v>
   <v type="int" >       24       41       42       42       46 </v>
   <v type="int" >       48       42       47       48       53 </v>
   <v type="int" >       48       42       43       48       53 </v>
   <v type="int" >       48       42       43       45       53 </v>
   <v type="int" >       24       42       42       47       53 </v>
   <v type="int" >       24       42       42       46       53 </v>
   <v type="int" >       48       42       45       46       53 </v>
   <v type="int" >       48       43       48       49       54 </v>
   <v type="int" >       48       43       44       49       54 </v>
   <v type="int" >       48       43       44       44       54 </v>
   <v type="int" >       48       43       48       53       54 </v>
   <v type="int" >       48       43       45       53       54 </v>
   <v type="int" >       48       43       44       45       54 </v>
   <v type="int" >       48       44       49       50       54 </v>
   <v type="int" >       48       44       45       50       54 </v>
   <v type="int" >       48       44       49       54       54 </v>
   <v type="int" >       24       44       44       54       54 </v>
   <v type="int" >       24       45       45       50       53 </v>
   <v type="int" >       24       45       45       46       53 </v>
   <v type="int" >       48       45       50       53       54 </v>
   <v type="int" >       24       47       48       48       51 </v>
   <v type="int" >       24       47       48       48       53 </v>
   <v type="int" >       48       48       51       52       55 </v>
   <v type="int" >       48       48       49       52       55 </v>
   <v type="int" >       48       48       49       54       55 </v>
   <v type="int" >       24       48       48       51       55 </v>
   <v type="int" >       24       48       48       53       55 </v>
   <v type="int" >       48       48       53       54       55 </v>
   <v type="int" >       24       49       49       52       56 </v>
   <v type="int" >       24       49       49       50       56 </v>
   <v type="int" >       48       49       50       54       56 </v>
   <v type="int" >       48       49       52       55       56 </v>
   <v type="int" >       48       49       54       55       56 </v>
   <v type="int" >       48       49       54       54       56 </v>
   <v type="int" >       24       50       54       54       56 </v>
   <v type="int" >       24       50       53       54       54 </v>
   <v type="int" >       12       51       51       52       52 </v>
   <v type="int" >       24       51       52       52       55 </v>
   <v type="int" >       12       52       52       55       55 </v>
   <v type="int" >       24       52       55       55       56 </v>
   <v type="int" >       24       53       54       54       55 </v>
   <v type="int" >       48       54       55       56       56 </v>
   <v type="int" >       24       54       54       56       56 </v>
   <v type="int" >       24       54       54       55       56 </v>
   <v type="int" >       12       55       55       56       56 </v>
   <v type="int" >       24       55       56       56       56 </v>
   <v type="int" >        6       56       56       56       56 </v>
  </varray>
  <i name="volumeweight">      0.00012522 </i>
 </kpoints>
 <parameters>
  <separator name="general" >
   <i type="string" name="SYSTEM">unknown system</i>
   <i type="logical" name="LCOMPAT"> F  </i>
  </separator>
  <separator name="electronic" >
   <i type="string" name="PREC">accura</i>
   <i name="ENMAX">    520.00000000</i>
   <i name="ENAUG">    291.05200000</i>
   <i name="EDIFF">      0.00005000</i>
   <i type="int" name="IALGO">    68</i>
   <i type="int" name="IWAVPR">    10</i>
   <i type="int" name="NBANDS">    48</i>
   <i type="int" name="NBANDSLOW">    -1</i>
   <i type="int" name="NBANDSHIGH">    -1</i>
   <i name="NELECT">      3.00000000</i>
   <i type="int" name="TURBO">     0</i>
   <i type="int" name="IRESTART">     0</i>
   <i type="int" name="NREBOOT">     0</i>
   <i type="int" name="NMIN">     0</i>
   <i name="EREF">      0.00000000</i>
   <separator name="electronic smearing" >
    <i type="int" name="ISMEAR">    -5</i>
    <i name="SIGMA">      0.05000000</i>
    <i name="KSPACING">      0.50000000</i>
    <i type="logical" name="KGAMMA"> T  </i>
    <i type="logical" name="KBLOWUP"> T  </i>
   </separator>
   <separator name="electronic projectors" >
    <i type="logical" name="LREAL"> F  </i>
    <v name="ROPT">      0.00000000</v>
    <i type="int" name="LMAXPAW">  -100</i>
    <i type="int" name="LMAXMIX">     2</i>
    <i type="logical" name="NLSPLINE"> F  </i>
   </separator>
   <separator name="electronic startup" >
    <i type="int" name="ISTART">     0</i>
    <i type="int" name="ICHARG">     2</i>
    <i type="int" name="INIWAV">     1</i>
   </separator>
   <separator name="electronic spin" >
    <i type="int" name="ISPIN">     2</i>
    <i type="logical" name="LNONCOLLINEAR"> F  </i>
    <v name="MAGMOM">      0.60000000</v>
    <i name="NUPDOWN">     -1.00000000</i>
    <i type="logical" name="LSORBIT"> F  </i>
    <v name="SAXIS">      0.00000000      0.00000000      1.00000000</v>
    <i type="logical" name="LSPIRAL"> F  </i>
    <v name="QSPIRAL">      0.00000000      0.00000000      0.00000000</v>
    <i type="logical" name="LZEROZ"> F  </i>
   </separator>
   <separator name="electronic exchange-correlation" >
    <i type="logical" name="LASPH"> T  </i>
    <i type="logical" name="LMETAGGA"> F  </i>
   </separator>
   <separator name="electronic convergence" >
    <i type="int" name="NELM">   100</i>
    <i type="int" name="NELMDL">    -5</i>
    <i type="int" name="NELMIN">     2</i>
    <i name="ENINI">    520.00000000</i>
    <separator name="electronic convergence detail" >
     <i type="logical" name="LDIAG"> T  </i>
     <i type="logical" name="LSUBROT"> F  </i>
     <i name="WEIMIN">      0.00000000</i>
     <i name="EBREAK">      0.00000026</i>
     <i name="DEPER">      0.30000000</i>
     <i type="int" name="NRMM">     4</i>
     <i name="TIME">      0.40000000</i>
    </separator>
   </separator>
   <separator name="electronic mixer" >
    <i name="AMIX">      0.40000000</i>
    <i name="BMIX">      1.00000000</i>
    <i name="AMIN">      0.10000000</i>
    <i name="AMIX_MAG">      1.60000000</i>
    <i name="BMIX_MAG">      1.00000000</i>
    <separator name="electronic mixer details" >
     <i type="int" name="IMIX">     4</i>
     <i type="logical" name="MIXFIRST"> F  </i>
     <i type="int" name="MAXMIX">   -45</i>
     <i name="WC">    100.00000000</i>
     <i type="int" name="INIMIX">     1</i>
     <i type="int" name="MIXPRE">     1</i>
     <i type="int" name="MREMOVE">     5</i>
    </separator>
   </separator>
   <separator name="electronic dipolcorrection" >
    <i type="logical" name="LDIPOL"> F  </i>
    <i type="logical" name="LMONO"> F  </i>
    <i type="int" name="IDIPOL">     0</i>
    <i name="EPSILON">      1.00000000</i>
    <v name="DIPOL">   -100.00000000   -100.00000000   -100.00000000</v>
    <i name="EFIELD">      0.00000000</i>
   </separator>
  </separator>
  <separator name="grids" >
   <i type="int" name="NGX">    24</i>
   <i type="int" name="NGY">    24</i>
   <i type="int" name="NGZ">    24</i>
   <i type="int" name="NGXF">    48</i>
   <i type="int" name="NGYF">    48</i>
   <i type="int" name="NGZF">    48</i>
   <i type="logical" name="ADDGRID"> F  </i>
  </separator>
  <separator name="ionic" >
   <i type="int" name="NSW">     0</i>
   <i type="int" name="IBRION">    -1</i>
   <i type="int" name="MDALGO">     0</i>
   <i type="int" name="ISIF">     2</i>
   <i name="PSTRESS">      0.00000000</i>
   <i name="EDIFFG">      0.00050000</i>
   <i type="int" name="NFREE">     0</i>
   <i name="POTIM">      0.50000000</i>
   <i name="SMASS">     -3.00000000</i>
   <i name="SCALEE">      1.00000000</i>
  </separator>
  <separator name="ionic md" >
   <i name="TEBEG">      0.00010000</i>
   <i name="TEEND">      0.00010000</i>
   <i type="int" name="NBLOCK">     1</i>
   <i type="int" name="KBLOCK">     1</i>
   <i type="int" name="NPACO">   256</i>
   <i name="APACO">     16.00000000</i>
  </separator>
  <separator name="symmetry" >
   <i type="int" name="ISYM">     2</i>
   <i name="SYMPREC">      0.00001000</i>
  </separator>
  <separator name="dos" >
   <i type="int" name="LORBIT">    11</i>
   <v name="RWIGS">     -1.00000000</v>
   <i type="int" name="NEDOS">   301</i>
   <i name="EMIN">     10.00000000</i>
   <i name="EMAX">    -10.00000000</i>
   <i name="EFERMI">      0.00000000</i>
  </separator>
  <separator name="writing" >
   <i type="int" name="NWRITE">     2</i>
   <i type="logical" name="LWAVE"> F  </i>
   <i type="logical" name="LDOWNSAMPLE"> F  </i>
   <i type="logical" name="LCHARG"> T  </i>
   <i type="logical" name="LPARD"> F  </i>
   <i type="logical" name="LVTOT"> F  </i>
   <i type="logical" name="LVHAR"> F  </i>
   <i type="logical" name="LELF"> F  </i>
   <i type="logical" name="LOPTICS"> F  </i>
   <v name="STM">      0.00000000      0.00000000      0.00000000      0.00000000      0.00000000      0.00000000      0.00000000</v>
  </separator>
  <separator name="performance" >
   <i type="int" name="NPAR">    48</i>
   <i type="int" name="NSIM">     4</i>
   <i type="int" name="NBLK">    -1</i>
   <i type="logical" name="LPLANE"> T  </i>
   <i type="logical" name="LSCALAPACK"> T  </i>
   <i type="logical" name="LSCAAWARE"> T  </i>
   <i type="logical" name="LSCALU"> F  </i>
   <i type="logical" name="LASYNC"> F  </i>
   <i type="logical" name="LORBITALREAL"> F  </i>
  </separator>
  <separator name="miscellaneous" >
   <i type="int" name="IDIOT">     3</i>
   <i type="int" name="PHON_NSTRUCT">    -1</i>
   <i type="logical" name="LMUSIC"> F  </i>
   <v name="POMASS">     26.98100000</v>
   <v name="DARWINR">      0.00000000</v>
   <v name="DARWINV">      1.00000000</v>
   <i type="logical" name="LCORR"> T  </i>
  </separator>
  <i type="logical" name="GGA_COMPAT"> T  </i>
  <i type="logical" name="LBERRY"> F  </i>
  <i type="int" name="ICORELEVEL">     0</i>
  <i type="logical" name="LDAU"> F  </i>
  <i type="int" name="I_CONSTRAINED_M">     0</i>
  <separator name="electronic exchange-correlation" >
   <i type="string" name="GGA">--</i>
   <i type="int" name="VOSKOWN">     0</i>
   <i type="logical" name="LHFCALC"> F  </i>
   <i type="string" name="PRECFOCK"></i>
   <i type="logical" name="LSYMGRAD"> F  </i>
   <i type="logical" name="LHFONE"> F  </i>
   <i type="logical" name="LRHFCALC"> F  </i>
   <i type="logical" name="LTHOMAS"> F  </i>
   <i type="logical" name="LMODELHF"> F  </i>
   <i type="logical" name="LFOCKACE"> F  </i>
   <i name="ENCUT4O">     -1.00000000</i>
   <i type="int" name="EXXOEP">     0</i>
   <i type="int" name="FOURORBIT">     0</i>
   <i name="AEXX">      0.00000000</i>
   <i name="HFALPHA">      0.00000000</i>
   <i name="MCALPHA">      0.00000000</i>
   <i name="ALDAX">      1.00000000</i>
   <i name="AGGAX">      1.00000000</i>
   <i name="ALDAC">      1.00000000</i>
   <i name="AGGAC">      1.00000000</i>
   <i type="int" name="NKREDX">     1</i>
   <i type="int" name="NKREDY">     1</i>
   <i type="int" name="NKREDZ">     1</i>
   <i type="logical" name="SHIFTRED"> F  </i>
   <i type="logical" name="ODDONLY"> F  </i>
   <i type="logical" name="EVENONLY"> F  </i>
   <i type="int" name="LMAXFOCK">     0</i>
   <i type="int" name="NMAXFOCKAE">     0</i>
   <i type="logical" name="LFOCKAEDFT"> F  </i>
   <i name="HFSCREEN">      0.00000000</i>
   <i name="HFSCREENC">      0.00000000</i>
   <i type="int" name="NBANDSGWLOW">     0</i>
  </separator>
  <separator name="vdW DFT" >
   <i type="logical" name="LUSE_VDW"> F  </i>
   <i name="Zab_VDW">     -0.84910000</i>
   <i name="PARAM1">      0.12340000</i>
   <i name="PARAM2">      1.00000000</i>
   <i name="PARAM3">      0.00000000</i>
  </separator>
  <separator name="model GW" >
   <i type="int" name="MODEL_GW">     0</i>
   <i name="MODEL_EPS0">      9.94976379</i>
   <i name="MODEL_ALPHA">      1.00000000</i>
  </separator>
  <separator name="linear response parameters" >
   <i type="logical" name="LEPSILON"> F  </i>
   <i type="logical" name="LRPA"> F  </i>
   <i type="logical" name="LNABLA"> F  </i>
   <i type="logical" name="LVEL"> F  </i>
   <i type="int" name="KINTER">     0</i>
   <i name="CSHIFT">      0.10000000</i>
   <i name="OMEGAMAX">     -1.00000000</i>
   <i name="DEG_THRESHOLD">      0.00200000</i>
   <i name="RTIME">     -0.10000000</i>
   <i name="WPLASMAI">      0.00000000</i>
   <v name="DFIELD">      0.00000000      0.00000000      0.00000000</v>
   <v name="WPLASMA">      0.00000000      0.00000000      0.00000000      0.00000000      0.00000000      0.00000000      0.00000000      0.00000000      0.00000000</v>
  </separator>
  <separator name="orbital magnetization" >
   <i type="logical" name="NUCIND"> F  </i>
   <v name="MAGPOS">      0.00000000      0.00000000      0.00000000</v>
   <i type="logical" name="LNICSALL"> T  </i>
   <i type="logical" name="ORBITALMAG"> F  </i>
   <i type="logical" name="LMAGBLOCH"> F  </i>
   <i type="logical" name="LCHIMAG"> F  </i>
   <i type="logical" name="LGAUGE"> T  </i>
   <i type="int" name="MAGATOM">     0</i>
   <v name="MAGDIPOL">      0.00000000      0.00000000      0.00000000</v>
   <v name="AVECCONST">      0.00000000      0.00000000      0.00000000</v>
  </separator>
  <separator name="response functions" >
   <i type="logical" name="LFINITE_TEMPERATURE"> F  </i>
   <i type="logical" name="LADDER"> F  </i>
   <i type="logical" name="LRPAFORCE"> F  </i>
   <i type="logical" name="LFXC"> F  </i>
   <i type="logical" name="LHARTREE"> T  </i>
   <i type="int" name="IBSE">     0</i>
   <v type="int" name="KPOINT">    -1     0     0     0</v>
   <i type="logical" name="LTCTC"> F  </i>
   <i type="logical" name="LTCTE"> F  </i>
   <i type="logical" name="LTETE"> F  </i>
   <i type="logical" name="LTRIPLET"> F  </i>
   <i type="logical" name="LFXCEPS"> F  </i>
   <i type="logical" name="LFXHEG"> F  </i>
   <i type="int" name="NATURALO">     2</i>
   <i type="logical" name="LHOLEGF"> F  </i>
   <i type="logical" name="L2ORDER"> F  </i>
   <i type="logical" name="LDMP1"> F  </i>
   <i type="logical" name="LMP2LT"> F  </i>
   <i type="logical" name="LSMP2LT"> F  </i>
   <i type="logical" name="LGWLF"> F  </i>
   <i name="ENCUTGW">     -2.00000000</i>
   <i name="ENCUTGWSOFT">     -2.00000000</i>
   <i name="ENCUTLF">     -1.00000000</i>
   <i type="logical" name="LESF_SPLINES"> F  </i>
   <i type="int" name="LMAXMP2">    -1</i>
   <i name="SCISSOR">      0.00000000</i>
   <i type="int" name="NOMEGA">     0</i>
   <i type="int" name="NOMEGAR">     0</i>
   <i type="int" name="NBANDSGW">    -1</i>
   <i type="int" name="NBANDSO">    -1</i>
   <i type="int" name="NBANDSV">    -1</i>
   <i type="int" name="NELM">   100</i>
   <i type="int" name="NELMHF">     1</i>
   <i type="int" name="DIM">     3</i>
   <i type="int" name="IESPILON">     4</i>
   <i type="int" name="ANTIRES">     0</i>
   <i name="OMEGAMAX">    -30.00000000</i>
   <i name="OMEGAMIN">    -30.00000000</i>
   <i name="OMEGATL">   -200.00000000</i>
   <i type="int" name="OMEGAGRID">     0</i>
   <i name="CSHIFT">     -0.10000000</i>
   <i type="logical" name="LSELFENERGY"> F  </i>
   <i type="logical" name="LSPECTRAL"> F  </i>
   <i type="logical" name="LSPECTRALGW"> F  </i>
   <i type="logical" name="LSINGLES"> F  </i>
   <i type="logical" name="LFERMIGW"> F  </i>
   <i type="logical" name="ODDONLYGW"> F  </i>
   <i type="logical" name="EVENONLYGW"> F  </i>
   <i type="int" name="NKREDLFX">     1</i>
   <i type="int" name="NKREDLFY">     1</i>
   <i type="int" name="NKREDLFZ">     1</i>
   <i type="int" name="MAXMEM">  2800</i>
   <i type="int" name="TELESCOPE">     0</i>
   <i type="int" name="NTAUPAR">    -1</i>
   <i type="int" name="NOMEGAPAR">    -1</i>
   <i name="DAMP_NEWTON">      0.80000001</i>
   <i name="LAMBDA">      1.00000000</i>
  </separator>
  <separator name="External order field" >
   <i name="OFIELD_KAPPA">      0.00000000</i>
   <v name="OFIELD_K">      0.00000000      0.00000000      0.00000000</v>
   <i name="OFIELD_Q6_NEAR">      0.00000000</i>
   <i name="OFIELD_Q6_FAR">      0.00000000</i>
   <i name="OFIELD_A">      0.00000000</i>
  </separator>
 </parameters>
 <atominfo>
  <atoms>       1 </atoms>
  <types>       1 </types>
  <array name="atoms" >
   <dimension dim="1">ion</dimension>
   <field type="string">element</field>
   <field type="int">atomtype</field>
   <set>
    <rc><c>Al</c><c>   1</c></rc>
   </set>
  </array>
  <array name="atomtypes" >
   <dimension dim="1">type</dimension>
   <field type="int">atomspertype</field>
   <field type="string">element</field>
   <field>mass</field>
   <field>valence</field>
   <field type="string">pseudopotential</field>
   <set>
    <rc><c>   1</c><c>Al</c><c>     26.98100000</c><c>      3.00000000</c><c>  PAW_PBE Al 04Jan2001                  </c></rc>
   </set>
  </array>
 </atominfo>
 <structure name="initialpos" >
  <crystal>
   <varray name="basis" >
    <v>       0.00000000       2.02400000       2.02400000 </v>
    <v>       2.02400000       0.00000000       2.02400000 </v>
    <v>       2.02400000       2.02400000       0.00000000 </v>
   </varray>
   <i name="volume">     16.58293965 </i>
   <varray name="rec_basis" >
    <v>      -0.24703557       0.24703557       0.24703557 </v>
    <v>       0.24703557      -0.24703557       0.24703557 </v>
    <v>       0.24703557       0.24703557      -0.24703557 </v>
   </varray>
  </crystal>
  <varray name="positions" >
   <v>       0.00000000       0.00000000       0.00000000 </v>
  </varray>
 </structure>
 <calculation>
  <scstep>
   <time name="dav">   10.70   11.09</time>
   <time name="total">   10.86   11.24</time>
   <energy>
    <i name="alphaZ">     -0.20254611 </i>
    <i name="ewald">    -73.39295237 </i>
    <i name="hartreedc">     -0.10329695 </i>
    <i name="XCdc">    -26.19545267 </i>
    <i name="pawpsdc">     66.16230985 </i>
    <i name="pawaedc">    -34.20858819 </i>
    <i name="eentropy">      0.00000000 </i>
    <i name="bandstr">     10.77638802 </i>
    <i name="atom">     53.53845706 </i>
    <i name="e_fr_energy">     -3.62568136 </i>
    <i name="e_wo_entrp">     -3.62568136 </i>
    <i name="e_0_energy">     -3.62568136 </i>
   </energy>
  </scstep>
  <scstep>
   <time name="dav">    7.70    7.87</time>
   <time name="total">    7.73    7.89</time>
   <energy>
    <i name="e_fr_energy">     -3.68271319 </i>
    <i name="e_wo_entrp">     -3.68271319 </i>
    <i name="e_0_energy">     -3.68271319 </i>
   </energy>
  </scstep>
  <scstep>
   <time name="dav">    8.60    8.60</time>
   <time name="total">    8.62    8.62</time>
   <energy>
    <i name="e_fr_energy">     -3.68271622 </i>
    <i name="e_wo_entrp">     -3.68271622 </i>
    <i name="e_0_energy">     -3.68271622 </i>
   </energy>
  </scstep>
  <scstep>
   <time name="dav">   83.04   86.95</time>
   <time name="total">   83.15   87.06</time>
   <energy>
    <i name="e_fr_energy">     -3.68271622 </i>
    <i name="e_wo_entrp">     -3.68271622 </i>
    <i name="e_0_energy">     -3.68271622 </i>
   </energy>
  </scstep>
  <scstep>
   <time name="dav">  213.67  213.69</time>
   <time name="total">  214.66  214.68</time>
   <energy>
    <i name="e_fr_energy">     -3.68271622 </i>
    <i name="e_wo_entrp">     -3.68271622 </i>
    <i name="e_0_energy">     -3.68271622 </i>
   </energy>
  </scstep>
  <scstep>
   <time name="diag">  128.83  128.89</time>
   <time name="diis">    0.25    0.25</time>
   <time name="orth">   12.20   12.20</time>
   <time name="total">  143.62  143.68</time>
   <energy>
    <i name="e_fr_energy">     -3.75433759 </i>
    <i name="e_wo_entrp">     -3.75433759 </i>
    <i name="e_0_energy">     -3.75433759 </i>
   </energy>
  </scstep>
  <scstep>
   <time name="diag">   14.20   14.20</time>
   <time name="diis">    0.35    0.35</time>
   <time name="orth">    1.95    1.99</time>
   <time name="total">   18.66   18.69</time>
   <energy>
    <i name="e_fr_energy">     -3.74592752 </i>
    <i name="e_wo_entrp">     -3.74592752 </i>
    <i name="e_0_energy">     -3.74592752 </i>
   </energy>
  </scstep>
  <scstep>
   <time name="diag">    0.38    0.38</time>
   <time name="diis">    0.15    0.15</time>
   <time name="orth">    0.09    0.09</time>
   <time name="total">    0.78    0.78</time>
   <energy>
    <i name="e_fr_energy">     -3.74586340 </i>
    <i name="e_wo_entrp">     -3.74586340 </i>
    <i name="e_0_energy">     -3.74586340 </i>
   </energy>
  </scstep>
  <scstep>
   <time name="diag">    0.38    0.38</time>
   <time name="diis">    0.18    0.18</time>
   <time name="orth">    0.09    0.09</time>
   <time name="total">    0.78    0.78</time>
   <energy>
    <i name="alphaZ">     -0.20254611 </i>
    <i name="ewald">    -73.39295237 </i>
    <i name="hartreedc">     -0.10530619 </i>
    <i name="XCdc">    -26.14042837 </i>
    <i name="pawpsdc">    145.49791424 </i>
    <i name="pawaedc">   -113.55310553 </i>
    <i name="eentropy">      0.00000000 </i>
    <i name="bandstr">     10.61210118 </i>
    <i name="atom">     53.53845706 </i>
    <i name="e_fr_energy">     -3.74586610 </i>
    <i name="e_wo_entrp">     -3.74586610 </i>
    <i name="e_0_energy">     -3.74586610 </i>
   </energy>
  </scstep>
  <structure>
   <crystal>
    <varray name="basis" >
     <v>       0.00000000       2.02400000       2.02400000 </v>
     <v>       2.02400000       0.00000000       2.02400000 </v>
     <v>       2.02400000       2.02400000       0.00000000 </v>
    </varray>
    <i name="volume">     16.58293965 </i>
    <varray name="rec_basis" >
     <v>      -0.24703557       0.24703557       0.24703557 </v>
     <v>       0.24703557      -0.24703557       0.24703557 </v>
     <v>       0.24703557       0.24703557      -0.24703557 </v>
    </varray>
   </crystal>
   <varray name="positions" >
    <v>       0.00000000       0.00000000       0.00000000 </v>
   </varray>
  </structure>
  <varray name="forces" >
   <v>      -0.00000000      -0.00000000       0.00000000 </v>
  </varray>
  <varray name="stress" >
   <v>      -9.03681512      -0.00000000      -0.00000000 </v>
   <v>      -0.00000000      -9.03681512      -0.00000000 </v>
   <v>       0.00000000       0.00000000      -9.03681512 </v>
  </varray>
  <energy>
   <i name="e_fr_energy">     -3.74586610 </i>
   <i name="e_wo_entrp">     -3.74586610 </i>
   <i name="e_0_energy">     -3.74586610 </i>
  </energy>
  <time name="totalsc">  496.51  502.07</time>
  <eigenvalues>
   <array>
    <dimension dim="1">band</dimension>
    <dimension dim="2">kpoint</dimension>
    <dimension dim="3">spin</dimension>
    <field>eigene</field>
    <field>occ</field>
    <set>
     <set comment="spin 1">
      <set comment="kpoint 1">
       <r>   -3.1511    1.0000 </r>
       <r>   20.5406    0.0000 </r>
       <r>   20.5406    0.0000 </r>
       <r>   20.5406    0.0000 </r>
       <r>   21.9954    0.0000 </r>
       <r>   21.9954    0.0000 </r>
       <r>   21.9954    0.0000 </r>
       <r>   24.3777    0.0000 </r>
       <r>   27.3153    0.0000 </r>
       <r>   27.3153    0.0000 </r>
       <r>   30.1608    0.0000 </r>
       <r>   32.5111    0.0000 </r>
       <r>   32.5111    0.0000 </r>
       <r>   32.5111    0.0000 </r>
       <r>   41.0634    0.0000 </r>
       <r>   56.0197    0.0000 </r>
       <r>   56.0197    0.0000 </r>
       <r>   56.0197    0.0000 </r>
       <r>   56.0556    0.0000 </r>
       <r>   59.2143    0.0000 </r>
       <r>   59.2143    0.0000 </r>
       <r>   59.2143    0.0000 </r>
       <r>   62.8345    0.0000 </r>
       <r>   62.8345    0.0000 </r>
       <r>   65.0776    0.0000 </r>
       <r>   65.0776    0.0000 </r>
       <r>   65.0776    0.0000 </r>
       <r>   73.1783    0.0000 </r>
       <r>   73.1783    0.0000 </r>
       <r>   73.1783    0.0000 </r>
       <r>   80.8193    0.0000 </r>
       <r>   83.0781    0.0000 </r>
       <r>   83.0781    0.0000 </r>
       <r>   87.2066    0.0000 </r>
       <r>   87.2066    0.0000 </r>
       <r>   87.2066    0.0000 </r>
       <r>   90.0895    0.0000 </r>
       <r>   90.0895    0.0000 </r>
       <r>   90.0895    0.0000 </r>
       <r>   90.8980    0.0000 </r>
       <r>   93.4603    0.0000 </r>
       <r>   93.4603    0.0000 </r>
       <r>   93.4603    0.0000 </r>
       <r>   93.9355    0.0000 </r>
       <r>   93.9355    0.0000 </r>
       <r>   93.9355    0.0000 </r>
       <r>   96.3745    0.0000 </r>
       <r>   96.3745    0.0000 </r>
      </set>
      <set comment="kpoint 2">
       <r>   -2.9273    1.0000 </r>
       <r>   17.6194    0.0000 </r>
       <r>   19.8940    0.0000 </r>
       <r>   19.8940    0.0000 </r>
       <r>   22.6700    0.0000 </r>
       <r>   22.9806    0.0000 </r>
       <r>   22.9806    0.0000 </r>
       <r>   26.2025    0.0000 </r>
       <r>   26.2025    0.0000 </r>
       <r>   26.4708    0.0000 </r>
       <r>   29.4088    0.0000 </r>
       <r>   33.6040    0.0000 </r>
       <r>   34.0814    0.0000 </r>
       <r>   34.0814    0.0000 </r>
       <r>   41.9385    0.0000 </r>
       <r>   55.2963    0.0000 </r>
       <r>   55.5840    0.0000 </r>
       <r>   55.5840    0.0000 </r>
       <r>   56.3633    0.0000 </r>
       <r>   57.1807    0.0000 </r>
       <r>   57.1807    0.0000 </r>
       <r>   59.2075    0.0000 </r>
       <r>   61.5813    0.0000 </r>
       <r>   61.5813    0.0000 </r>
       <r>   65.2786    0.0000 </r>
       <r>   68.9367    0.0000 </r>
       <r>   68.9367    0.0000 </r>
       <r>   71.5336    0.0000 </r>
       <r>   72.9801    0.0000 </r>
       <r>   72.9801    0.0000 </r>
       <r>   81.8301    0.0000 </r>
       <r>   81.8301    0.0000 </r>
       <r>   82.3038    0.0000 </r>
       <r>   84.0909    0.0000 </r>
       <r>   85.7932    0.0000 </r>
       <r>   85.7932    0.0000 </r>
       <r>   87.9863    0.0000 </r>
       <r>   87.9863    0.0000 </r>
       <r>   89.0064    0.0000 </r>
       <r>   90.0896    0.0000 </r>
       <r>   91.3052    0.0000 </r>
       <r>   91.3052    0.0000 </r>
       <r>   92.8838    0.0000 </r>
       <r>   94.8055    0.0000 </r>
       <r>   95.6474    0.0000 </r>
       <r>   95.6474    0.0000 </r>
       <r>   97.1015    0.0000 </r>
       <r>   97.1015    0.0000 </r>
      </set>
      <set comment="kpoint 3">
       <r>   -2.2579    1.0000 </r>
       <r>   13.9744    0.0000 </r>
       <r>   19.1609    0.0000 </r>
       <r>   19.1609    0.0000 </r>
       <r>   22.4372    0.0000 </r>
       <r>   23.8030    0.0000 </r>
       <r>   23.8030    0.0000 </r>
       <r>   25.3162    0.0000 </r>
       <r>   25.3162    0.0000 </r>
       <r>   27.8929    0.0000 </r>
       <r>   29.9797    0.0000 </r>
       <r>   36.4314    0.0000 </r>
       <r>   37.2351    0.0000 </r>
       <r>   37.2351    0.0000 </r>
       <r>   44.1451    0.0000 </r>
       <r>   51.7101    0.0000 </r>
       <r>   51.7101    0.0000 </r>
       <r>   53.8785    0.0000 </r>
       <r>   56.4037    0.0000 </r>
       <r>   56.4037    0.0000 </r>
       <r>   56.5532    0.0000 </r>
       <r>   58.8678    0.0000 </r>
       <r>   61.7212    0.0000 </r>
       <r>   61.7212    0.0000 </r>
       <r>   65.8689    0.0000 </r>
       <r>   68.8958    0.0000 </r>
       <r>   71.0653    0.0000 </r>
       <r>   71.0653    0.0000 </r>
       <r>   73.9494    0.0000 </r>
       <r>   73.9494    0.0000 </r>
       <r>   78.8475    0.0000 </r>
       <r>   78.9840    0.0000 </r>
       <r>   78.9840    0.0000 </r>
       <r>   82.8147    0.0000 </r>
       <r>   82.8147    0.0000 </r>
       <r>   84.8218    0.0000 </r>
       <r>   85.6520    0.0000 </r>
       <r>   86.5838    0.0000 </r>
       <r>   86.5838    0.0000 </r>
       <r>   87.4942    0.0000 </r>
       <r>   89.4491    0.0000 </r>
       <r>   90.0158    0.0000 </r>
       <r>   90.0158    0.0000 </r>
       <r>   93.9124    0.0000 </r>
       <r>   97.2870    0.0000 </r>
       <r>   97.2870    0.0000 </r>
       <r>   99.4897    0.0000 </r>
       <r>   99.4897    0.0000 </r>
      </set>
      <set comment="kpoint 4">
       <r>   -1.1492    1.0000 </r>
       <r>   10.5497   -0.0162 </r>
       <r>   18.7521    0.0000 </r>
       <r>   18.7521    0.0000 </r>
       <r>   22.2253    0.0000 </r>
       <r>   22.2580    0.0000 </r>
       <r>   22.2580    0.0000 </r>
       <r>   26.2472    0.0000 </r>
       <r>   27.3613    0.0000 </r>
       <r>   27.3613    0.0000 </r>
       <r>   33.3145    0.0000 </r>
       <r>   40.5164    0.0000 </r>
       <r>   40.8491    0.0000 </r>
       <r>   40.8491    0.0000 </r>
       <r>   47.0302    0.0000 </r>
       <r>   47.3682    0.0000 </r>
       <r>   47.3682    0.0000 </r>
       <r>   51.9111    0.0000 </r>
       <r>   56.3551    0.0000 </r>
       <r>   56.3551    0.0000 </r>
       <r>   56.7796    0.0000 </r>
       <r>   57.9249    0.0000 </r>
       <r>   62.1690    0.0000 </r>
       <r>   62.1690    0.0000 </r>
       <r>   66.3322    0.0000 </r>
       <r>   66.8070    0.0000 </r>
       <r>   67.8380    0.0000 </r>
       <r>   67.8380    0.0000 </r>
       <r>   74.3855    0.0000 </r>
       <r>   74.3855    0.0000 </r>
       <r>   75.7466    0.0000 </r>
       <r>   78.3813    0.0000 </r>
       <r>   79.1218    0.0000 </r>
       <r>   79.1218    0.0000 </r>
       <r>   79.9698    0.0000 </r>
       <r>   79.9698    0.0000 </r>
       <r>   81.1827    0.0000 </r>
       <r>   88.1656    0.0000 </r>
       <r>   88.1656    0.0000 </r>
       <r>   88.7433    0.0000 </r>
       <r>   89.4850    0.0000 </r>
       <r>   89.4850    0.0000 </r>
       <r>   91.1178    0.0000 </r>
       <r>   93.0328    0.0000 </r>
       <r>   97.5109    0.0000 </r>
       <r>   97.5109    0.0000 </r>
       <r>  101.4968    0.0000 </r>
       <r>  102.4445    0.0000 </r>
      </set>
      <set comment="kpoint 5">
       <r>    0.3889    1.0000 </r>
       <r>    7.4472    0.7111 </r>
       <r>   18.7082    0.0000 </r>
       <r>   18.7082    0.0000 </r>
       <r>   20.8288    0.0000 </r>
       <r>   20.8288    0.0000 </r>
       <r>   22.2963    0.0000 </r>
       <r>   24.7595    0.0000 </r>
       <r>   29.8897    0.0000 </r>
       <r>   29.8897    0.0000 </r>
       <r>   36.4450    0.0000 </r>
       <r>   41.9031    0.0000 </r>
       <r>   41.9031    0.0000 </r>
       <r>   45.0385    0.0000 </r>
       <r>   46.4375    0.0000 </r>
       <r>   46.4375    0.0000 </r>
       <r>   48.3304    0.0000 </r>
       <r>   51.7459    0.0000 </r>
       <r>   56.2810    0.0000 </r>
       <r>   56.2810    0.0000 </r>
       <r>   56.4017    0.0000 </r>
       <r>   57.0652    0.0000 </r>
       <r>   61.3471    0.0000 </r>
       <r>   61.3471    0.0000 </r>
       <r>   63.7522    0.0000 </r>
       <r>   64.4070    0.0000 </r>
       <r>   64.4070    0.0000 </r>
       <r>   67.9684    0.0000 </r>
       <r>   69.6728    0.0000 </r>
       <r>   73.8331    0.0000 </r>
       <r>   73.8331    0.0000 </r>
       <r>   76.5573    0.0000 </r>
       <r>   76.9685    0.0000 </r>
       <r>   76.9685    0.0000 </r>
       <r>   78.2201    0.0000 </r>
       <r>   80.4399    0.0000 </r>
       <r>   80.4399    0.0000 </r>
       <r>   88.5424    0.0000 </r>
       <r>   89.1235    0.0000 </r>
       <r>   89.1236    0.0000 </r>
       <r>   90.4690    0.0000 </r>
       <r>   92.0166    0.0000 </r>
       <r>   92.0166    0.0000 </r>
       <r>   94.2321    0.0000 </r>
       <r>   98.9653    0.0000 </r>
       <r>   98.9653    0.0000 </r>
       <r>  102.3414    0.0000 </r>
       <r>  104.0947    0.0000 </r>
      </set>
      <set comment="kpoint 6">
       <r>    2.3418    1.0000 </r>
       <r>    4.7081    1.0000 </r>
       <r>   19.0374    0.0000 </r>
       <r>   19.0374    0.0000 </r>
       <r>   19.7496    0.0000 </r>
       <r>   19.7496    0.0000 </r>
       <r>   22.7338    0.0000 </r>
       <r>   23.5708    0.0000 </r>
       <r>   32.2132    0.0000 </r>
       <r>   32.2132    0.0000 </r>
       <r>   39.0085    0.0000 </r>
       <r>   39.2265    0.0000 </r>
       <r>   39.2265    0.0000 </r>
       <r>   45.8113    0.0000 </r>
       <r>   49.6296    0.0000 </r>
       <r>   50.3223    0.0000 </r>
       <r>   50.3223    0.0000 </r>
       <r>   54.2008    0.0000 </r>
       <r>   55.4559    0.0000 </r>
       <r>   55.4653    0.0000 </r>
       <r>   55.4653    0.0000 </r>
       <r>   57.6511    0.0000 </r>
       <r>   57.9484    0.0000 </r>
       <r>   57.9484    0.0000 </r>
       <r>   61.6710    0.0000 </r>
       <r>   63.6270    0.0000 </r>
       <r>   64.2320    0.0000 </r>
       <r>   64.2320    0.0000 </r>
       <r>   68.9577    0.0000 </r>
       <r>   73.6022    0.0000 </r>
       <r>   73.6022    0.0000 </r>
       <r>   75.5304    0.0000 </r>
       <r>   75.5304    0.0000 </r>
       <r>   76.3299    0.0000 </r>
       <r>   76.8649    0.0000 </r>
       <r>   80.5407    0.0000 </r>
       <r>   80.5407    0.0000 </r>
       <r>   88.5933    0.0000 </r>
       <r>   88.8804    0.0000 </r>
       <r>   88.8804    0.0000 </r>
       <r>   89.2091    0.0000 </r>
       <r>   94.2037    0.0000 </r>
       <r>   95.0989    0.0000 </r>
       <r>   95.0989    0.0000 </r>
       <r>  101.1918    0.0000 </r>
       <r>  101.1918    0.0000 </r>
       <r>  105.1284    0.0000 </r>
       <r>  105.1284    0.0000 </r>
      </set>
      <set comment="kpoint 7">
       <r>   -2.8527    1.0000 </r>
       <r>   18.6320    0.0000 </r>
       <r>   18.6320    0.0000 </r>
       <r>   18.9317    0.0000 </r>
       <r>   21.3284    0.0000 </r>
       <r>   24.2920    0.0000 </r>
       <r>   24.3363    0.0000 </r>
       <r>   24.3363    0.0000 </r>
       <r>   26.5830    0.0000 </r>
       <r>   27.5914    0.0000 </r>
       <r>   30.5944    0.0000 </r>
       <r>   32.8569    0.0000 </r>
       <r>   32.8569    0.0000 </r>
       <r>   35.5668    0.0000 </r>
       <r>   42.3736    0.0000 </r>
       <r>   55.2004    0.0000 </r>
       <r>   55.2004    0.0000 </r>
       <r>   55.4174    0.0000 </r>
       <r>   56.5386    0.0000 </r>
       <r>   57.4671    0.0000 </r>
       <r>   57.4671    0.0000 </r>
       <r>   57.8559    0.0000 </r>
       <r>   59.4105    0.0000 </r>
       <r>   62.7582    0.0000 </r>
       <r>   67.4739    0.0000 </r>
       <r>   67.4739    0.0000 </r>
       <r>   70.3915    0.0000 </r>
       <r>   70.4361    0.0000 </r>
       <r>   73.4369    0.0000 </r>
       <r>   73.4369    0.0000 </r>
       <r>   80.6246    0.0000 </r>
       <r>   82.5763    0.0000 </r>
       <r>   82.6861    0.0000 </r>
       <r>   82.6861    0.0000 </r>
       <r>   83.4103    0.0000 </r>
       <r>   84.1292    0.0000 </r>
       <r>   88.7412    0.0000 </r>
       <r>   90.0832    0.0000 </r>
       <r>   90.0832    0.0000 </r>
       <r>   90.1152    0.0000 </r>
       <r>   90.1152    0.0000 </r>
       <r>   92.1309    0.0000 </r>
       <r>   93.1381    0.0000 </r>
       <r>   94.4102    0.0000 </r>
       <r>   94.7977    0.0000 </r>
       <r>   97.7788    0.0000 </r>
       <r>   97.8047    0.0000 </r>
       <r>   97.8048    0.0000 </r>
      </set>
      <set comment="kpoint 8">
       <r>   -2.3321    1.0000 </r>
       <r>   15.2963    0.0000 </r>
       <r>   17.7059    0.0000 </r>
       <r>   19.0472    0.0000 </r>
       <r>   21.6657    0.0000 </r>
       <r>   22.2808    0.0000 </r>
       <r>   24.7154    0.0000 </r>
       <r>   25.7361    0.0000 </r>
       <r>   27.0760    0.0000 </r>
       <r>   29.5006    0.0000 </r>
       <r>   29.9518    0.0000 </r>
       <r>   34.7298    0.0000 </r>
       <r>   35.0375    0.0000 </r>
       <r>   37.8754    0.0000 </r>
       <r>   44.4210    0.0000 </r>
       <r>   51.7177    0.0000 </r>
       <r>   52.8051    0.0000 </r>
       <r>   55.4223    0.0000 </r>
       <r>   55.6699    0.0000 </r>
       <r>   56.1957    0.0000 </r>
       <r>   57.0074    0.0000 </r>
       <r>   57.9739    0.0000 </r>
       <r>   59.3779    0.0000 </r>
       <r>   62.3121    0.0000 </r>
       <r>   67.4637    0.0000 </r>
       <r>   68.4162    0.0000 </r>
       <r>   71.3156    0.0000 </r>
       <r>   72.5366    0.0000 </r>
       <r>   72.5794    0.0000 </r>
       <r>   74.9134    0.0000 </r>
       <r>   77.2988    0.0000 </r>
       <r>   78.4289    0.0000 </r>
       <r>   80.6621    0.0000 </r>
       <r>   81.7047    0.0000 </r>
       <r>   82.4868    0.0000 </r>
       <r>   84.0890    0.0000 </r>
       <r>   86.2116    0.0000 </r>
       <r>   86.2749    0.0000 </r>
       <r>   89.1417    0.0000 </r>
       <r>   89.2616    0.0000 </r>
       <r>   89.7824    0.0000 </r>
       <r>   91.3566    0.0000 </r>
       <r>   93.7429    0.0000 </r>
       <r>   94.4231    0.0000 </r>
       <r>   94.5198    0.0000 </r>
       <r>   96.1766    0.0000 </r>
       <r>   97.0335    0.0000 </r>
       <r>   97.6207    0.0000 </r>
      </set>
      <set comment="kpoint 9">
       <r>   -1.3702    1.0000 </r>
       <r>   11.8217    0.0000 </r>
       <r>   17.1498    0.0000 </r>
       <r>   18.7070    0.0000 </r>
       <r>   20.0161    0.0000 </r>
       <r>   23.7959    0.0000 </r>
       <r>   24.6496    0.0000 </r>
       <r>   24.7576    0.0000 </r>
       <r>   28.2545    0.0000 </r>
       <r>   28.5399    0.0000 </r>
       <r>   33.0557    0.0000 </r>
       <r>   38.0846    0.0000 </r>
       <r>   39.0266    0.0000 </r>
       <r>   40.8801    0.0000 </r>
       <r>   47.1323    0.0000 </r>
       <r>   47.3274    0.0000 </r>
       <r>   49.0799    0.0000 </r>
       <r>   53.6728    0.0000 </r>
       <r>   55.5474    0.0000 </r>
       <r>   56.1962    0.0000 </r>
       <r>   57.1417    0.0000 </r>
       <r>   58.5486    0.0000 </r>
       <r>   58.6256    0.0000 </r>
       <r>   62.5291    0.0000 </r>
       <r>   65.0157    0.0000 </r>
       <r>   68.7842    0.0000 </r>
       <r>   68.8486    0.0000 </r>
       <r>   71.5310    0.0000 </r>
       <r>   72.0162    0.0000 </r>
       <r>   73.7267    0.0000 </r>
       <r>   77.0034    0.0000 </r>
       <r>   77.1248    0.0000 </r>
       <r>   78.6110    0.0000 </r>
       <r>   80.6878    0.0000 </r>
       <r>   81.0201    0.0000 </r>
       <r>   81.4787    0.0000 </r>
       <r>   82.6272    0.0000 </r>
       <r>   86.7509    0.0000 </r>
       <r>   86.7958    0.0000 </r>
       <r>   87.0508    0.0000 </r>
       <r>   91.0111    0.0000 </r>
       <r>   92.3825    0.0000 </r>
       <r>   92.6069    0.0000 </r>
       <r>   94.1437    0.0000 </r>
       <r>   94.4852    0.0000 </r>
       <r>   97.2756    0.0000 </r>
       <r>   99.7315    0.0000 </r>
       <r>  100.7998    0.0000 </r>
      </set>
      <set comment="kpoint 10">
       <r>    0.0241    1.0000 </r>
       <r>    8.6211    0.1967 </r>
       <r>   16.9705    0.0000 </r>
       <r>   18.3665    0.0000 </r>
       <r>   18.6184    0.0000 </r>
       <r>   23.2987    0.0000 </r>
       <r>   24.3944    0.0000 </r>
       <r>   26.0461    0.0000 </r>
       <r>   27.2165    0.0000 </r>
       <r>   30.8508    0.0000 </r>
       <r>   36.2803    0.0000 </r>
       <r>   40.8719    0.0000 </r>
       <r>   43.2328    0.0000 </r>
       <r>   43.7149    0.0000 </r>
       <r>   44.2180    0.0000 </r>
       <r>   46.3848    0.0000 </r>
       <r>   49.7850    0.0000 </r>
       <r>   52.2671    0.0000 </r>
       <r>   55.6431    0.0000 </r>
       <r>   56.2596    0.0000 </r>
       <r>   56.6833    0.0000 </r>
       <r>   57.6056    0.0000 </r>
       <r>   59.1571    0.0000 </r>
       <r>   61.7309    0.0000 </r>
       <r>   63.2236    0.0000 </r>
       <r>   64.9191    0.0000 </r>
       <r>   66.4570    0.0000 </r>
       <r>   70.4283    0.0000 </r>
       <r>   70.4818    0.0000 </r>
       <r>   71.3609    0.0000 </r>
       <r>   72.6040    0.0000 </r>
       <r>   76.1259    0.0000 </r>
       <r>   77.1580    0.0000 </r>
       <r>   78.1742    0.0000 </r>
       <r>   80.5835    0.0000 </r>
       <r>   81.5403    0.0000 </r>
       <r>   83.3355    0.0000 </r>
       <r>   84.6193    0.0000 </r>
       <r>   87.2852    0.0000 </r>
       <r>   88.6217    0.0000 </r>
       <r>   92.5208    0.0000 </r>
       <r>   93.5918    0.0000 </r>
       <r>   93.7314    0.0000 </r>
       <r>   94.4694    0.0000 </r>
       <r>   96.1856    0.0000 </r>
       <r>   98.3272    0.0000 </r>
       <r>  101.1406    0.0000 </r>
       <r>  103.2516    0.0000 </r>
      </set>
      <set comment="kpoint 11">
       <r>    1.8381    1.0000 </r>
       <r>    5.7646    1.0451 </r>
       <r>   17.1433    0.0000 </r>
       <r>   17.1708    0.0000 </r>
       <r>   18.8342    0.0000 </r>
       <r>   22.1216    0.0000 </r>
       <r>   24.6451    0.0000 </r>
       <r>   25.3362    0.0000 </r>
       <r>   29.4680    0.0000 </r>
       <r>   32.7306    0.0000 </r>
       <r>   39.1073    0.0000 </r>
       <r>   39.1537    0.0000 </r>
       <r>   40.6667    0.0000 </r>
       <r>   47.1229    0.0000 </r>
       <r>   47.4436    0.0000 </r>
       <r>   48.7417    0.0000 </r>
       <r>   49.8154    0.0000 </r>
       <r>   54.2101    0.0000 </r>
       <r>   55.0657    0.0000 </r>
       <r>   55.6805    0.0000 </r>
       <r>   56.2226    0.0000 </r>
       <r>   56.8180    0.0000 </r>
       <r>   58.7384    0.0000 </r>
       <r>   59.0969    0.0000 </r>
       <r>   62.0908    0.0000 </r>
       <r>   62.8275    0.0000 </r>
       <r>   63.9821    0.0000 </r>
       <r>   66.0840    0.0000 </r>
       <r>   69.1241    0.0000 </r>
       <r>   69.7666    0.0000 </r>
       <r>   71.9479    0.0000 </r>
       <r>   74.9631    0.0000 </r>
       <r>   76.1228    0.0000 </r>
       <r>   78.1197    0.0000 </r>
       <r>   80.4114    0.0000 </r>
       <r>   81.2897    0.0000 </r>
       <r>   82.7925    0.0000 </r>
       <r>   83.6144    0.0000 </r>
       <r>   88.4682    0.0000 </r>
       <r>   88.7017    0.0000 </r>
       <r>   92.3924    0.0000 </r>
       <r>   94.6339    0.0000 </r>
       <r>   95.6723    0.0000 </r>
       <r>   96.9524    0.0000 </r>
       <r>   99.6887    0.0000 </r>
       <r>  101.3849    0.0000 </r>
       <r>  101.4661    0.0000 </r>
       <r>  102.1431    0.0000 </r>
      </set>
      <set comment="kpoint 12">
       <r>    3.2644    1.0000 </r>
       <r>    4.0766    1.0000 </r>
       <r>   16.2848    0.0000 </r>
       <r>   17.7518    0.0000 </r>
       <r>   19.4596    0.0000 </r>
       <r>   21.2983    0.0000 </r>
       <r>   24.2598    0.0000 </r>
       <r>   25.4724    0.0000 </r>
       <r>   31.7376    0.0000 </r>
       <r>   31.8946    0.0000 </r>
       <r>   38.0386    0.0000 </r>
       <r>   39.7851    0.0000 </r>
       <r>   40.5276    0.0000 </r>
       <r>   46.3946    0.0000 </r>
       <r>   49.4026    0.0000 </r>
       <r>   50.6204    0.0000 </r>
       <r>   51.4115    0.0000 </r>
       <r>   53.6427    0.0000 </r>
       <r>   54.9532    0.0000 </r>
       <r>   55.3166    0.0000 </r>
       <r>   56.4132    0.0000 </r>
       <r>   56.9455    0.0000 </r>
       <r>   57.1879    0.0000 </r>
       <r>   58.8597    0.0000 </r>
       <r>   61.6977    0.0000 </r>
       <r>   61.8283    0.0000 </r>
       <r>   62.7736    0.0000 </r>
       <r>   64.7547    0.0000 </r>
       <r>   68.8621    0.0000 </r>
       <r>   69.3215    0.0000 </r>
       <r>   72.1648    0.0000 </r>
       <r>   74.6681    0.0000 </r>
       <r>   76.1255    0.0000 </r>
       <r>   78.1957    0.0000 </r>
       <r>   80.1436    0.0000 </r>
       <r>   81.3856    0.0000 </r>
       <r>   82.1670    0.0000 </r>
       <r>   83.4873    0.0000 </r>
       <r>   88.4982    0.0000 </r>
       <r>   88.6275    0.0000 </r>
       <r>   92.1345    0.0000 </r>
       <r>   94.8889    0.0000 </r>
       <r>   96.5961    0.0000 </r>
       <r>   98.1738    0.0000 </r>
       <r>   99.9296    0.0000 </r>
       <r>  100.6040    0.0000 </r>
       <r>  103.7127    0.0000 </r>
       <r>  104.5832    0.0000 </r>
      </set>
      <set comment="kpoint 13">
       <r>    1.1879    1.0000 </r>
       <r>    6.6744    1.0095 </r>
       <r>   15.8200    0.0000 </r>
       <r>   18.7109    0.0000 </r>
       <r>   20.4699    0.0000 </r>
       <r>   20.8465    0.0000 </r>
       <r>   23.7275    0.0000 </r>
       <r>   26.4146    0.0000 </r>
       <r>   29.2328    0.0000 </r>
       <r>   31.3132    0.0000 </r>
       <r>   38.1072    0.0000 </r>
       <r>   39.3519    0.0000 </r>
       <r>   42.8035    0.0000 </r>
       <r>   45.2733    0.0000 </r>
       <r>   46.5752    0.0000 </r>
       <r>   48.6879    0.0000 </r>
       <r>   49.4253    0.0000 </r>
       <r>   53.6119    0.0000 </r>
       <r>   55.5499    0.0000 </r>
       <r>   55.7262    0.0000 </r>
       <r>   55.8144    0.0000 </r>
       <r>   57.7397    0.0000 </r>
       <r>   59.1627    0.0000 </r>
       <r>   60.5303    0.0000 </r>
       <r>   60.9411    0.0000 </r>
       <r>   62.7581    0.0000 </r>
       <r>   64.9080    0.0000 </r>
       <r>   68.6690    0.0000 </r>
       <r>   69.3689    0.0000 </r>
       <r>   70.1693    0.0000 </r>
       <r>   71.3579    0.0000 </r>
       <r>   75.3299    0.0000 </r>
       <r>   76.4585    0.0000 </r>
       <r>   78.7511    0.0000 </r>
       <r>   79.8211    0.0000 </r>
       <r>   81.7468    0.0000 </r>
       <r>   82.9776    0.0000 </r>
       <r>   83.6734    0.0000 </r>
       <r>   87.9003    0.0000 </r>
       <r>   88.0889    0.0000 </r>
       <r>   92.9178    0.0000 </r>
       <r>   93.6608    0.0000 </r>
       <r>   94.8235    0.0000 </r>
       <r>   95.8956    0.0000 </r>
       <r>   98.8055    0.0000 </r>
       <r>  100.1779    0.0000 </r>
       <r>  102.3935    0.0000 </r>
       <r>  106.0454    0.0000 </r>
      </set>
      <set comment="kpoint 14">
       <r>   -0.4880    1.0000 </r>
       <r>    9.6457   -0.0577 </r>
       <r>   15.7545    0.0000 </r>
       <r>   20.0183    0.0000 </r>
       <r>   20.7851    0.0000 </r>
       <r>   21.8411    0.0000 </r>
       <r>   23.5150    0.0000 </r>
       <r>   26.5211    0.0000 </r>
       <r>   27.4027    0.0000 </r>
       <r>   29.3520    0.0000 </r>
       <r>   35.3833    0.0000 </r>
       <r>   39.7893    0.0000 </r>
       <r>   42.2395    0.0000 </r>
       <r>   43.8474    0.0000 </r>
       <r>   43.9663    0.0000 </r>
       <r>   48.0324    0.0000 </r>
       <r>   48.8548    0.0000 </r>
       <r>   51.9645    0.0000 </r>
       <r>   55.7119    0.0000 </r>
       <r>   55.9445    0.0000 </r>
       <r>   57.1990    0.0000 </r>
       <r>   57.8737    0.0000 </r>
       <r>   60.0036    0.0000 </r>
       <r>   61.4042    0.0000 </r>
       <r>   64.0354    0.0000 </r>
       <r>   64.9586    0.0000 </r>
       <r>   68.3844    0.0000 </r>
       <r>   70.3393    0.0000 </r>
       <r>   70.5928    0.0000 </r>
       <r>   72.6828    0.0000 </r>
       <r>   75.2142    0.0000 </r>
       <r>   75.9078    0.0000 </r>
       <r>   77.6278    0.0000 </r>
       <r>   78.8527    0.0000 </r>
       <r>   79.3995    0.0000 </r>
       <r>   82.9867    0.0000 </r>
       <r>   84.3313    0.0000 </r>
       <r>   84.6802    0.0000 </r>
       <r>   86.1437    0.0000 </r>
       <r>   86.7742    0.0000 </r>
       <r>   90.8228    0.0000 </r>
       <r>   91.1210    0.0000 </r>
       <r>   94.5394    0.0000 </r>
       <r>   95.2540    0.0000 </r>
       <r>   96.3088    0.0000 </r>
       <r>   99.7385    0.0000 </r>
       <r>  100.6462    0.0000 </r>
       <r>  104.0507    0.0000 </r>
      </set>
      <set comment="kpoint 15">
       <r>   -1.7394    1.0000 </r>
       <r>   12.9265    0.0000 </r>
       <r>   16.1031    0.0000 </r>
       <r>   20.9370    0.0000 </r>
       <r>   21.7511    0.0000 </r>
       <r>   23.4405    0.0000 </r>
       <r>   23.6123    0.0000 </r>
       <r>   24.2058    0.0000 </r>
       <r>   26.3099    0.0000 </r>
       <r>   29.6155    0.0000 </r>
       <r>   32.1554    0.0000 </r>
       <r>   36.0533    0.0000 </r>
       <r>   38.4268    0.0000 </r>
       <r>   40.4576    0.0000 </r>
       <r>   45.9038    0.0000 </r>
       <r>   47.6915    0.0000 </r>
       <r>   51.8758    0.0000 </r>
       <r>   53.7885    0.0000 </r>
       <r>   55.5920    0.0000 </r>
       <r>   55.8553    0.0000 </r>
       <r>   57.1867    0.0000 </r>
       <r>   58.9697    0.0000 </r>
       <r>   59.4361    0.0000 </r>
       <r>   61.0900    0.0000 </r>
       <r>   67.0006    0.0000 </r>
       <r>   68.5573    0.0000 </r>
       <r>   69.4733    0.0000 </r>
       <r>   71.0085    0.0000 </r>
       <r>   73.8367    0.0000 </r>
       <r>   74.8381    0.0000 </r>
       <r>   76.9729    0.0000 </r>
       <r>   77.8781    0.0000 </r>
       <r>   78.8650    0.0000 </r>
       <r>   79.2016    0.0000 </r>
       <r>   82.7551    0.0000 </r>
       <r>   83.1972    0.0000 </r>
       <r>   84.6637    0.0000 </r>
       <r>   85.3382    0.0000 </r>
       <r>   86.6897    0.0000 </r>
       <r>   87.0143    0.0000 </r>
       <r>   89.1595    0.0000 </r>
       <r>   90.7720    0.0000 </r>
       <r>   91.6637    0.0000 </r>
       <r>   94.4630    0.0000 </r>
       <r>   96.4324    0.0000 </r>
       <r>   97.1865    0.0000 </r>
       <r>   99.3833    0.0000 </r>
       <r>  101.4782    0.0000 </r>
      </set>
      <set comment="kpoint 16">
       <r>   -2.5550    1.0000 </r>
       <r>   16.1361    0.0000 </r>
       <r>   17.1424    0.0000 </r>
       <r>   21.1208    0.0000 </r>
       <r>   22.3032    0.0000 </r>
       <r>   23.3735    0.0000 </r>
       <r>   24.1094    0.0000 </r>
       <r>   24.4759    0.0000 </r>
       <r>   25.4824    0.0000 </r>
       <r>   28.8068    0.0000 </r>
       <r>   30.2753    0.0000 </r>
       <r>   33.2768    0.0000 </r>
       <r>   35.6236    0.0000 </r>
       <r>   36.9549    0.0000 </r>
       <r>   43.3411    0.0000 </r>
       <r>   52.1682    0.0000 </r>
       <r>   55.1942    0.0000 </r>
       <r>   55.6527    0.0000 </r>
       <r>   55.6844    0.0000 </r>
       <r>   55.7267    0.0000 </r>
       <r>   56.9957    0.0000 </r>
       <r>   59.3222    0.0000 </r>
       <r>   59.8662    0.0000 </r>
       <r>   60.9659    0.0000 </r>
       <r>   68.6236    0.0000 </r>
       <r>   68.9807    0.0000 </r>
       <r>   69.5417    0.0000 </r>
       <r>   71.6169    0.0000 </r>
       <r>   73.0626    0.0000 </r>
       <r>   73.7218    0.0000 </r>
       <r>   80.0772    0.0000 </r>
       <r>   80.4076    0.0000 </r>
       <r>   80.7962    0.0000 </r>
       <r>   81.9552    0.0000 </r>
       <r>   82.4475    0.0000 </r>
       <r>   86.1134    0.0000 </r>
       <r>   86.2380    0.0000 </r>
       <r>   86.8285    0.0000 </r>
       <r>   87.4540    0.0000 </r>
       <r>   89.8973    0.0000 </r>
       <r>   90.7861    0.0000 </r>
       <r>   92.2656    0.0000 </r>
       <r>   92.3910    0.0000 </r>
       <r>   92.9598    0.0000 </r>
       <r>   93.3366    0.0000 </r>
       <r>   95.7560    0.0000 </r>
       <r>   97.7237    0.0000 </r>
       <r>   98.7500    0.0000 </r>
      </set>
      <set comment="kpoint 17">
       <r>   -1.9614    1.0000 </r>
       <r>   16.6293    0.0000 </r>
       <r>   16.6293    0.0000 </r>
       <r>   16.7618    0.0000 </r>
       <r>   19.5894    0.0000 </r>
       <r>   19.9623    0.0000 </r>
       <r>   27.5152    0.0000 </r>
       <r>   27.5152    0.0000 </r>
       <r>   28.4099    0.0000 </r>
       <r>   30.5401    0.0000 </r>
       <r>   32.5174    0.0000 </r>
       <r>   33.9979    0.0000 </r>
       <r>   33.9979    0.0000 </r>
       <r>   38.7745    0.0000 </r>
       <r>   46.5383    0.0000 </r>
       <r>   51.7515    0.0000 </r>
       <r>   51.7515    0.0000 </r>
       <r>   52.4494    0.0000 </r>
       <r>   54.5960    0.0000 </r>
       <r>   56.8582    0.0000 </r>
       <r>   56.8582    0.0000 </r>
       <r>   56.9391    0.0000 </r>
       <r>   59.9435    0.0000 </r>
       <r>   61.6828    0.0000 </r>
       <r>   66.8714    0.0000 </r>
       <r>   70.0630    0.0000 </r>
       <r>   70.0630    0.0000 </r>
       <r>   72.4769    0.0000 </r>
       <r>   72.4769    0.0000 </r>
       <r>   76.2070    0.0000 </r>
       <r>   76.2590    0.0000 </r>
       <r>   78.0592    0.0000 </r>
       <r>   78.2089    0.0000 </r>
       <r>   78.2089    0.0000 </r>
       <r>   82.4955    0.0000 </r>
       <r>   84.1398    0.0000 </r>
       <r>   87.3639    0.0000 </r>
       <r>   87.3639    0.0000 </r>
       <r>   88.2009    0.0000 </r>
       <r>   89.8734    0.0000 </r>
       <r>   91.7796    0.0000 </r>
       <r>   91.7796    0.0000 </r>
       <r>   93.5218    0.0000 </r>
       <r>   93.6307    0.0000 </r>
       <r>   93.6307    0.0000 </r>
       <r>   93.7515    0.0000 </r>
       <r>   98.1517    0.0000 </r>
       <r>   98.2616    0.0000 </r>
      </set>
      <set comment="kpoint 18">
       <r>   -1.1492    1.0000 </r>
       <r>   13.4109    0.0000 </r>
       <r>   15.9350    0.0000 </r>
       <r>   17.2244    0.0000 </r>
       <r>   17.5071    0.0000 </r>
       <r>   20.4894    0.0000 </r>
       <r>   27.4371    0.0000 </r>
       <r>   28.1393    0.0000 </r>
       <r>   29.8071    0.0000 </r>
       <r>   31.3795    0.0000 </r>
       <r>   33.6732    0.0000 </r>
       <r>   36.1718    0.0000 </r>
       <r>   37.4460    0.0000 </r>
       <r>   40.5699    0.0000 </r>
       <r>   47.2924    0.0000 </r>
       <r>   49.0702    0.0000 </r>
       <r>   49.5061    0.0000 </r>
       <r>   52.7007    0.0000 </r>
       <r>   54.4390    0.0000 </r>
       <r>   55.8534    0.0000 </r>
       <r>   56.8627    0.0000 </r>
       <r>   57.2071    0.0000 </r>
       <r>   59.8354    0.0000 </r>
       <r>   61.0067    0.0000 </r>
       <r>   64.7754    0.0000 </r>
       <r>   68.4371    0.0000 </r>
       <r>   68.8451    0.0000 </r>
       <r>   71.0167    0.0000 </r>
       <r>   71.3097    0.0000 </r>
       <r>   73.8680    0.0000 </r>
       <r>   76.9359    0.0000 </r>
       <r>   77.2948    0.0000 </r>
       <r>   77.8407    0.0000 </r>
       <r>   79.3674    0.0000 </r>
       <r>   82.0002    0.0000 </r>
       <r>   82.7848    0.0000 </r>
       <r>   84.8870    0.0000 </r>
       <r>   86.0224    0.0000 </r>
       <r>   87.6927    0.0000 </r>
       <r>   89.9585    0.0000 </r>
       <r>   90.2106    0.0000 </r>
       <r>   91.9136    0.0000 </r>
       <r>   92.7562    0.0000 </r>
       <r>   93.6351    0.0000 </r>
       <r>   94.5529    0.0000 </r>
       <r>   98.0294    0.0000 </r>
       <r>   98.2919    0.0000 </r>
       <r>   98.9346    0.0000 </r>
      </set>
      <set comment="kpoint 19">
       <r>    0.0967    1.0000 </r>
       <r>   10.1737   -0.0476 </r>
       <r>   15.6214    0.0000 </r>
       <r>   15.6229    0.0000 </r>
       <r>   17.2762    0.0000 </r>
       <r>   22.6120    0.0000 </r>
       <r>   26.0848    0.0000 </r>
       <r>   28.1621    0.0000 </r>
       <r>   29.9225    0.0000 </r>
       <r>   31.9543    0.0000 </r>
       <r>   36.9942    0.0000 </r>
       <r>   39.4936    0.0000 </r>
       <r>   42.2206    0.0000 </r>
       <r>   42.8718    0.0000 </r>
       <r>   43.3740    0.0000 </r>
       <r>   45.9884    0.0000 </r>
       <r>   52.4556    0.0000 </r>
       <r>   53.5313    0.0000 </r>
       <r>   54.3770    0.0000 </r>
       <r>   54.6371    0.0000 </r>
       <r>   56.2670    0.0000 </r>
       <r>   56.9315    0.0000 </r>
       <r>   58.9798    0.0000 </r>
       <r>   60.8062    0.0000 </r>
       <r>   62.5185    0.0000 </r>
       <r>   65.4642    0.0000 </r>
       <r>   66.1825    0.0000 </r>
       <r>   68.3811    0.0000 </r>
       <r>   69.6883    0.0000 </r>
       <r>   72.8740    0.0000 </r>
       <r>   74.9278    0.0000 </r>
       <r>   75.4972    0.0000 </r>
       <r>   77.6926    0.0000 </r>
       <r>   78.3241    0.0000 </r>
       <r>   81.1754    0.0000 </r>
       <r>   81.4726    0.0000 </r>
       <r>   83.3482    0.0000 </r>
       <r>   87.2520    0.0000 </r>
       <r>   87.6507    0.0000 </r>
       <r>   90.2886    0.0000 </r>
       <r>   91.8964    0.0000 </r>
       <r>   93.0773    0.0000 </r>
       <r>   93.3373    0.0000 </r>
       <r>   94.6735    0.0000 </r>
       <r>   97.4561    0.0000 </r>
       <r>   98.2655    0.0000 </r>
       <r>   99.6432    0.0000 </r>
       <r>  101.7106    0.0000 </r>
      </set>
      <set comment="kpoint 20">
       <r>    1.7645    1.0000 </r>
       <r>    7.2259    0.8247 </r>
       <r>   14.2167    0.0000 </r>
       <r>   15.6928    0.0000 </r>
       <r>   17.4280    0.0000 </r>
       <r>   24.8539    0.0000 </r>
       <r>   25.1542    0.0000 </r>
       <r>   28.0073    0.0000 </r>
       <r>   29.1362    0.0000 </r>
       <r>   33.3391    0.0000 </r>
       <r>   39.6328    0.0000 </r>
       <r>   39.8727    0.0000 </r>
       <r>   41.4559    0.0000 </r>
       <r>   44.8123    0.0000 </r>
       <r>   46.4885    0.0000 </r>
       <r>   48.0610    0.0000 </r>
       <r>   51.2758    0.0000 </r>
       <r>   53.3067    0.0000 </r>
       <r>   54.3827    0.0000 </r>
       <r>   54.8124    0.0000 </r>
       <r>   56.3019    0.0000 </r>
       <r>   56.9506    0.0000 </r>
       <r>   57.8800    0.0000 </r>
       <r>   60.3609    0.0000 </r>
       <r>   61.2110    0.0000 </r>
       <r>   63.4825    0.0000 </r>
       <r>   63.9275    0.0000 </r>
       <r>   65.5641    0.0000 </r>
       <r>   67.0100    0.0000 </r>
       <r>   69.7330    0.0000 </r>
       <r>   72.5709    0.0000 </r>
       <r>   74.7842    0.0000 </r>
       <r>   76.5337    0.0000 </r>
       <r>   76.9373    0.0000 </r>
       <r>   80.3088    0.0000 </r>
       <r>   81.6053    0.0000 </r>
       <r>   84.9682    0.0000 </r>
       <r>   87.5865    0.0000 </r>
       <r>   87.8152    0.0000 </r>
       <r>   90.4720    0.0000 </r>
       <r>   93.0093    0.0000 </r>
       <r>   93.6086    0.0000 </r>
       <r>   96.4059    0.0000 </r>
       <r>   96.8903    0.0000 </r>
       <r>   98.8100    0.0000 </r>
       <r>  100.3802    0.0000 </r>
       <r>  100.6607    0.0000 </r>
       <r>  102.7105    0.0000 </r>
      </set>
      <set comment="kpoint 21">
       <r>    3.8258    1.0000 </r>
       <r>    4.6456    1.0000 </r>
       <r>   13.2090    0.0000 </r>
       <r>   16.1452    0.0000 </r>
       <r>   17.9543    0.0000 </r>
       <r>   23.9317    0.0000 </r>
       <r>   26.4082    0.0000 </r>
       <r>   28.7901    0.0000 </r>
       <r>   29.3990    0.0000 </r>
       <r>   31.8349    0.0000 </r>
       <r>   37.9403    0.0000 </r>
       <r>   40.7293    0.0000 </r>
       <r>   42.5920    0.0000 </r>
       <r>   47.2098    0.0000 </r>
       <r>   49.1868    0.0000 </r>
       <r>   49.7608    0.0000 </r>
       <r>   50.1281    0.0000 </r>
       <r>   54.2689    0.0000 </r>
       <r>   54.6244    0.0000 </r>
       <r>   54.9107    0.0000 </r>
       <r>   55.5300    0.0000 </r>
       <r>   56.3898    0.0000 </r>
       <r>   57.5636    0.0000 </r>
       <r>   59.2538    0.0000 </r>
       <r>   61.4443    0.0000 </r>
       <r>   61.6525    0.0000 </r>
       <r>   62.9176    0.0000 </r>
       <r>   63.5350    0.0000 </r>
       <r>   65.4949    0.0000 </r>
       <r>   67.1328    0.0000 </r>
       <r>   72.5680    0.0000 </r>
       <r>   75.1112    0.0000 </r>
       <r>   76.4475    0.0000 </r>
       <r>   76.5774    0.0000 </r>
       <r>   79.6355    0.0000 </r>
       <r>   80.7442    0.0000 </r>
       <r>   85.1633    0.0000 </r>
       <r>   87.6282    0.0000 </r>
       <r>   88.3980    0.0000 </r>
       <r>   89.3362    0.0000 </r>
       <r>   93.1112    0.0000 </r>
       <r>   94.8392    0.0000 </r>
       <r>   97.7851    0.0000 </r>
       <r>   98.7051    0.0000 </r>
       <r>   99.6346    0.0000 </r>
       <r>  100.0508    0.0000 </r>
       <r>  102.8864    0.0000 </r>
       <r>  106.2124    0.0000 </r>
      </set>
      <set comment="kpoint 22">
       <r>    2.4131    1.0000 </r>
       <r>    6.3067    1.0782 </r>
       <r>   12.6163    0.0000 </r>
       <r>   16.9803    0.0000 </r>
       <r>   18.8753    0.0000 </r>
       <r>   23.3614    0.0000 </r>
       <r>   25.9761    0.0000 </r>
       <r>   28.9257    0.0000 </r>
       <r>   29.8001    0.0000 </r>
       <r>   30.6541    0.0000 </r>
       <r>   36.4164    0.0000 </r>
       <r>   41.2839    0.0000 </r>
       <r>   43.8099    0.0000 </r>
       <r>   44.9461    0.0000 </r>
       <r>   48.3987    0.0000 </r>
       <r>   49.8851    0.0000 </r>
       <r>   51.5210    0.0000 </r>
       <r>   54.2235    0.0000 </r>
       <r>   54.9683    0.0000 </r>
       <r>   55.0886    0.0000 </r>
       <r>   55.9533    0.0000 </r>
       <r>   55.9976    0.0000 </r>
       <r>   58.5891    0.0000 </r>
       <r>   59.2594    0.0000 </r>
       <r>   60.3970    0.0000 </r>
       <r>   60.5196    0.0000 </r>
       <r>   63.9049    0.0000 </r>
       <r>   64.0698    0.0000 </r>
       <r>   65.7412    0.0000 </r>
       <r>   70.0386    0.0000 </r>
       <r>   73.4805    0.0000 </r>
       <r>   74.4161    0.0000 </r>
       <r>   76.6377    0.0000 </r>
       <r>   77.2680    0.0000 </r>
       <r>   79.1277    0.0000 </r>
       <r>   80.9206    0.0000 </r>
       <r>   84.6268    0.0000 </r>
       <r>   87.1489    0.0000 </r>
       <r>   87.9078    0.0000 </r>
       <r>   89.7288    0.0000 </r>
       <r>   90.2706    0.0000 </r>
       <r>   95.4008    0.0000 </r>
[...]
       <set comment="band 2">
        <r>  0.0791  0.0240  0.0004  0.1389  0.0000  0.0000  0.0000  0.0000  0.0000 </r>
       </set>
       <set comment="band 3">
        <r>  0.0575  0.0774  0.0035  0.0633  0.0000  0.0000  0.0000  0.0000  0.0000 </r>
       </set>
       <set comment="band 4">
        <r>  0.2139  0.0064  0.1193  0.0134  0.0000  0.0000  0.0000  0.0000  0.0000 </r>
       </set>
       <set comment="band 5">
        <r>  0.0127  0.1192  0.0101  0.0650  0.0000  0.0000  0.0000  0.0000  0.0000 </r>
       </set>
       <set comment="band 6">
        <r>  0.0341  0.0896  0.0329  0.0044  0.0000  0.0000  0.0000  0.0000  0.0000 </r>
       </set>
       <set comment="band 7">
        <r>  0.0401  0.1196  0.0002  0.0387  0.0000  0.0000  0.0000  0.0000  0.0000 </r>
       </set>
       <set comment="band 8">
        <r>  0.0195  0.0409  0.0775  0.0080  0.0000  0.0000  0.0000  0.0000  0.0000 </r>
       </set>
       <set comment="band 9">
        <r>  0.0099  0.0004  0.0107  0.0552  0.0000  0.0000  0.0000  0.0000  0.0000 </r>
       </set>
       <set comment="band 10">
        <r>  0.0004  0.0032  0.0105  0.0086  0.0000  0.0000  0.0000  0.0000  0.0000 </r>
       </set>
       <set comment="band 11">
        <r>  0.0705  0.0048  0.0472  0.0000  0.0000  0.0000  0.0000  0.0000  0.0000 </r>
       </set>
       <set comment="band 12">
        <r>  0.0459  0.0029  0.0013  0.0121  0.0000  0.0000  0.0000  0.0000  0.0000 </r>
       </set>
       <set comment="band 13">
        <r>  0.0002  0.0014  0.0455  0.1084  0.0000  0.0000  0.0000  0.0000  0.0000 </r>
       </set>
       <set comment="band 14">
        <r>  0.0101  0.0102  0.0148  0.0296  0.0000  0.0000  0.0000  0.0000  0.0000 </r>
       </set>
       <set comment="band 15">
        <r>  0.0989  0.0000  0.0984  0.0413  0.0000  0.0000  0.0000  0.0000  0.0000 </r>
       </set>
       <set comment="band 16">
        <r>  0.0330  0.0643  0.1341  0.0670  0.0000  0.0000  0.0000  0.0000  0.0000 </r>
       </set>
       <set comment="band 17">
        <r>  0.2863  0.0460  0.2693  0.0331  0.0000  0.0000  0.0000  0.0000  0.0000 </r>
       </set>
       <set comment="band 18">
        <r>  0.3798  0.0008  0.0712  0.0803  0.0000  0.0000  0.0000  0.0000  0.0000 </r>
       </set>
       <set comment="band 19">
        <r>  0.2056  0.5137  0.0030  0.9010  0.0000  0.0000  0.0000  0.0000  0.0000 </r>
       </set>
       <set comment="band 20">
        <r>  6.0021  0.2414  0.3419  0.0025  0.0000  0.0000  0.0000  0.0000  0.0000 </r>
       </set>
       <set comment="band 21">
        <r>  0.6319  2.1188  0.0899  0.5137  0.0000  0.0000  0.0000  0.0000  0.0000 </r>
       </set>
       <set comment="band 22">
        <r>  2.0014  0.0039  0.0180  0.1877  0.0000  0.0000  0.0000  0.0000  0.0000 </r>
       </set>
       <set comment="band 23">
        <r>  0.0003  0.2357  1.9690  0.1865  0.0000  0.0000  0.0000  0.0000  0.0000 </r>
       </set>
       <set comment="band 24">
        <r>  0.4134  0.0050  1.1552  2.0060  0.0000  0.0000  0.0000  0.0000  0.0000 </r>
       </set>
       <set comment="band 25">
        <r>  0.0225  0.0941  0.5554  0.4634  0.0000  0.0000  0.0000  0.0000  0.0000 </r>
       </set>
       <set comment="band 26">
        <r>  0.0623  0.2760  0.1573  0.4307  0.0000  0.0000  0.0000  0.0000  0.0000 </r>
       </set>
       <set comment="band 27">
        <r>  0.0054  0.3714  0.0013  0.0526  0.0000  0.0000  0.0000  0.0000  0.0000 </r>
       </set>
       <set comment="band 28">
        <r>  0.0185  0.4874  0.0047  0.0068  0.0000  0.0000  0.0000  0.0000  0.0000 </r>
       </set>
       <set comment="band 29">
        <r>  0.2132  0.7794  0.0171  0.0501  0.0000  0.0000  0.0000  0.0000  0.0000 </r>
       </set>
       <set comment="band 30">
        <r>  0.0230  0.0029  0.0124  0.0705  0.0000  0.0000  0.0000  0.0000  0.0000 </r>
       </set>
       <set comment="band 31">
        <r>  0.0822  0.0725  0.0562  0.0779  0.0000  0.0000  0.0000  0.0000  0.0000 </r>
       </set>
       <set comment="band 32">
        <r>  0.0462  0.0088  0.4398  0.0066  0.0000  0.0000  0.0000  0.0000  0.0000 </r>
       </set>
       <set comment="band 33">
        <r>  0.0878  0.0150  0.0300  0.1507  0.0000  0.0000  0.0000  0.0000  0.0000 </r>
       </set>
       <set comment="band 34">
        <r>  0.6295  0.0075  0.1122  0.0048  0.0000  0.0000  0.0000  0.0000  0.0000 </r>
       </set>
       <set comment="band 35">
        <r>  0.0154  0.0708  0.0120  0.0042  0.0000  0.0000  0.0000  0.0000  0.0000 </r>
       </set>
       <set comment="band 36">
        <r>  0.0165  0.0285  0.0155  0.1038  0.0000  0.0000  0.0000  0.0000  0.0000 </r>
       </set>
       <set comment="band 37">
        <r>  0.0694  0.0282  0.0052  0.0404  0.0000  0.0000  0.0000  0.0000  0.0000 </r>
       </set>
       <set comment="band 38">
        <r>  0.0401  0.0678  0.0665  0.0448  0.0000  0.0000  0.0000  0.0000  0.0000 </r>
       </set>
       <set comment="band 39">
        <r>  0.0290  0.0154  0.0141  0.0000  0.0000  0.0000  0.0000  0.0000  0.0000 </r>
       </set>
       <set comment="band 40">
        <r>  0.0013  0.0042  0.0274  0.0095  0.0000  0.0000  0.0000  0.0000  0.0000 </r>
       </set>
       <set comment="band 41">
        <r>  0.0379  0.0029  0.0047  0.0292  0.0000  0.0000  0.0000  0.0000  0.0000 </r>
       </set>
       <set comment="band 42">
        <r>  0.0070  0.0022  0.0313  0.0254  0.0000  0.0000  0.0000  0.0000  0.0000 </r>
       </set>
       <set comment="band 43">
        <r>  0.0182  0.0015  0.0048  0.0919  0.0000  0.0000  0.0000  0.0000  0.0000 </r>
       </set>
       <set comment="band 44">
        <r>  0.0165  0.1510  0.0001  0.0022  0.0000  0.0000  0.0000  0.0000  0.0000 </r>
       </set>
       <set comment="band 45">
        <r>  0.0312  0.0077  0.0009  0.0698  0.0000  0.0000  0.0000  0.0000  0.0000 </r>
       </set>
       <set comment="band 46">
        <r>  0.0001  0.0477  0.0460  0.0025  0.0000  0.0000  0.0000  0.0000  0.0000 </r>
       </set>
       <set comment="band 47">
        <r>  0.0179  0.0002  0.0706  0.0071  0.0000  0.0000  0.0000  0.0000  0.0000 </r>
       </set>
       <set comment="band 48">
        <r>  0.0000  0.0287  0.0120  0.0001  0.0000  0.0000  0.0000  0.0000  0.0000 </r>
       </set>
      </set>
      <set comment="kpoint 55">
       <set comment="band 1">
        <r>  0.0824  0.0144  0.1490  0.0000  0.0000  0.0000  0.0000  0.0000  0.0000 </r>
       </set>
       <set comment="band 2">
        <r>  0.0000  0.0000  0.0000  0.2075  0.0000  0.0000  0.0000  0.0000  0.0000 </r>
       </set>
       <set comment="band 3">
        <r>  0.0780  0.0530  0.0743  0.0000  0.0000  0.0000  0.0000  0.0000  0.0000 </r>
       </set>
       <set comment="band 4">
        <r>  0.2987  0.0807  0.0097  0.0000  0.0000  0.0000  0.0000  0.0000  0.0000 </r>
       </set>
       <set comment="band 5">
        <r>  0.0000  0.0000  0.0000  0.1257  0.0000  0.0000  0.0000  0.0000  0.0000 </r>
       </set>
       <set comment="band 6">
        <r>  0.0841  0.2422  0.0040  0.0000  0.0000  0.0000  0.0000  0.0000  0.0000 </r>
       </set>
       <set comment="band 7">
        <r>  0.0246  0.0391  0.0460  0.0000  0.0000  0.0000  0.0000  0.0000  0.0000 </r>
       </set>
       <set comment="band 8">
        <r>  0.0222  0.0709  0.0380  0.0000  0.0000  0.0000  0.0000  0.0000  0.0000 </r>
       </set>
       <set comment="band 9">
        <r>  0.0000  0.0000  0.0000  0.0230  0.0000  0.0000  0.0000  0.0000  0.0000 </r>
       </set>
       <set comment="band 10">
        <r>  0.0033  0.0000  0.0029  0.0000  0.0000  0.0000  0.0000  0.0000  0.0000 </r>
       </set>
       <set comment="band 11">
        <r>  0.0642  0.0197  0.0934  0.0000  0.0000  0.0000  0.0000  0.0000  0.0000 </r>
       </set>
       <set comment="band 12">
        <r>  0.0000  0.0000  0.0000  0.0735  0.0000  0.0000  0.0000  0.0000  0.0000 </r>
       </set>
       <set comment="band 13">
        <r>  0.0000  0.0000  0.0000  0.1779  0.0000  0.0000  0.0000  0.0000  0.0000 </r>
       </set>
       <set comment="band 14">
        <r>  0.0185  0.0101  0.0499  0.0000  0.0000  0.0000  0.0000  0.0000  0.0000 </r>
       </set>
       <set comment="band 15">
        <r>  0.1197  0.0121  0.0221  0.0000  0.0000  0.0000  0.0000  0.0000  0.0000 </r>
       </set>
       <set comment="band 16">
        <r>  0.0000  0.0000  0.0000  0.0212  0.0000  0.0000  0.0000  0.0000  0.0000 </r>
       </set>
       <set comment="band 17">
        <r>  0.1209  0.0292  0.5896  0.0000  0.0000  0.0000  0.0000  0.0000  0.0000 </r>
       </set>
       <set comment="band 18">
        <r>  0.0000  0.0000  0.0000  0.0316  0.0000  0.0000  0.0000  0.0000  0.0000 </r>
       </set>
       <set comment="band 19">
        <r>  2.5544  0.1708  0.1315  0.0000  0.0000  0.0000  0.0000  0.0000  0.0000 </r>
       </set>
       <set comment="band 20">
        <r>  1.2114  1.3724  0.0179  0.0000  0.0000  0.0000  0.0000  0.0000  0.0000 </r>
       </set>
       <set comment="band 21">
        <r>  0.0000  0.0000  0.0000  2.4349  0.0000  0.0000  0.0000  0.0000  0.0000 </r>
       </set>
       <set comment="band 22">
        <r>  5.6191  1.3625  0.0223  0.0000  0.0000  0.0000  0.0000  0.0000  0.0000 </r>
       </set>
       <set comment="band 23">
        <r>  0.0011  0.0768  3.1550  0.0000  0.0000  0.0000  0.0000  0.0000  0.0000 </r>
       </set>
       <set comment="band 24">
        <r>  0.0000  0.0000  0.0000  1.4000  0.0000  0.0000  0.0000  0.0000  0.0000 </r>
       </set>
       <set comment="band 25">
        <r>  0.1770  0.0580  0.8075  0.0000  0.0000  0.0000  0.0000  0.0000  0.0000 </r>
       </set>
       <set comment="band 26">
        <r>  0.3347  1.4529  0.1483  0.0000  0.0000  0.0000  0.0000  0.0000  0.0000 </r>
       </set>
       <set comment="band 27">
        <r>  0.0000  0.0000  0.0000  1.0576  0.0000  0.0000  0.0000  0.0000  0.0000 </r>
       </set>
       <set comment="band 28">
        <r>  0.0000  0.0000  0.0000  0.1649  0.0000  0.0000  0.0000  0.0000  0.0000 </r>
       </set>
       <set comment="band 29">
        <r>  0.3227  0.3095  0.2507  0.0000  0.0000  0.0000  0.0000  0.0000  0.0000 </r>
       </set>
       <set comment="band 30">
        <r>  0.0007  0.3611  0.0503  0.0000  0.0000  0.0000  0.0000  0.0000  0.0000 </r>
       </set>
       <set comment="band 31">
        <r>  0.0000  0.0000  0.0000  0.0434  0.0000  0.0000  0.0000  0.0000  0.0000 </r>
       </set>
       <set comment="band 32">
        <r>  0.1606  0.0010  0.3347  0.0000  0.0000  0.0000  0.0000  0.0000  0.0000 </r>
       </set>
       <set comment="band 33">
        <r>  0.3867  0.1481  0.0000  0.0000  0.0000  0.0000  0.0000  0.0000  0.0000 </r>
       </set>
       <set comment="band 34">
        <r>  0.0000  0.0000  0.0000  0.0028  0.0000  0.0000  0.0000  0.0000  0.0000 </r>
       </set>
       <set comment="band 35">
        <r>  0.2581  0.0101  0.0296  0.0000  0.0000  0.0000  0.0000  0.0000  0.0000 </r>
       </set>
       <set comment="band 36">
        <r>  0.0956  0.1084  0.1022  0.0000  0.0000  0.0000  0.0000  0.0000  0.0000 </r>
       </set>
       <set comment="band 37">
        <r>  0.0000  0.0000  0.0000  0.4442  0.0000  0.0000  0.0000  0.0000  0.0000 </r>
       </set>
       <set comment="band 38">
        <r>  0.0010  0.0390  0.0149  0.0000  0.0000  0.0000  0.0000  0.0000  0.0000 </r>
       </set>
       <set comment="band 39">
        <r>  0.0000  0.0000  0.0000  0.0077  0.0000  0.0000  0.0000  0.0000  0.0000 </r>
       </set>
       <set comment="band 40">
        <r>  0.0020  0.0192  0.0112  0.0000  0.0000  0.0000  0.0000  0.0000  0.0000 </r>
       </set>
       <set comment="band 41">
        <r>  0.0000  0.0000  0.0000  0.0203  0.0000  0.0000  0.0000  0.0000  0.0000 </r>
       </set>
       <set comment="band 42">
        <r>  0.1135  0.0071  0.0667  0.0000  0.0000  0.0000  0.0000  0.0000  0.0000 </r>
       </set>
       <set comment="band 43">
        <r>  0.0102  0.1089  0.0454  0.0000  0.0000  0.0000  0.0000  0.0000  0.0000 </r>
       </set>
       <set comment="band 44">
        <r>  0.0474  0.0519  0.0006  0.0000  0.0000  0.0000  0.0000  0.0000  0.0000 </r>
       </set>
       <set comment="band 45">
        <r>  0.0000  0.0000  0.0000  0.0706  0.0000  0.0000  0.0000  0.0000  0.0000 </r>
       </set>
       <set comment="band 46">
        <r>  0.0000  0.0000  0.0000  0.0068  0.0000  0.0000  0.0000  0.0000  0.0000 </r>
       </set>
       <set comment="band 47">
        <r>  0.0777  0.0131  0.0540  0.0000  0.0000  0.0000  0.0000  0.0000  0.0000 </r>
       </set>
       <set comment="band 48">
        <r>  0.0407  0.0469  0.0173  0.0000  0.0000  0.0000  0.0000  0.0000  0.0000 </r>
       </set>
      </set>
      <set comment="kpoint 56">
       <set comment="band 1">
        <r>  0.0481  0.0362  0.0000  0.1403  0.0000  0.0000  0.0000  0.0000  0.0000 </r>
       </set>
       <set comment="band 2">
        <r>  0.0000  0.0000  0.2244  0.0000  0.0000  0.0000  0.0000  0.0000  0.0000 </r>
       </set>
       <set comment="band 3">
        <r>  0.1924  0.0653  0.0000  0.0036  0.0000  0.0000  0.0000  0.0000  0.0000 </r>
       </set>
       <set comment="band 4">
        <r>  0.2292  0.0358  0.0000  0.0758  0.0000  0.0000  0.0000  0.0000  0.0000 </r>
       </set>
       <set comment="band 5">
        <r>  0.0233  0.0848  0.0000  0.0715  0.0000  0.0000  0.0000  0.0000  0.0000 </r>
       </set>
       <set comment="band 6">
        <r>  0.0056  0.2584  0.0000  0.0286  0.0000  0.0000  0.0000  0.0000  0.0000 </r>
       </set>
       <set comment="band 7">
        <r>  0.0000  0.0000  0.0970  0.0000  0.0000  0.0000  0.0000  0.0000  0.0000 </r>
       </set>
       <set comment="band 8">
        <r>  0.0903  0.0357  0.0000  0.0175  0.0000  0.0000  0.0000  0.0000  0.0000 </r>
       </set>
       <set comment="band 9">
        <r>  0.0000  0.0000  0.0235  0.0000  0.0000  0.0000  0.0000  0.0000  0.0000 </r>
       </set>
       <set comment="band 10">
        <r>  0.0091  0.0004  0.0000  0.0312  0.0000  0.0000  0.0000  0.0000  0.0000 </r>
       </set>
       <set comment="band 11">
        <r>  0.0000  0.0000  0.0006  0.0000  0.0000  0.0000  0.0000  0.0000  0.0000 </r>
       </set>
       <set comment="band 12">
        <r>  0.0742  0.0003  0.0000  0.1169  0.0000  0.0000  0.0000  0.0000  0.0000 </r>
       </set>
       <set comment="band 13">
        <r>  0.0000  0.0000  0.1881  0.0000  0.0000  0.0000  0.0000  0.0000  0.0000 </r>
       </set>
       <set comment="band 14">
        <r>  0.0010  0.0009  0.0000  0.0061  0.0000  0.0000  0.0000  0.0000  0.0000 </r>
       </set>
       <set comment="band 15">
        <r>  0.1411  0.0052  0.0000  0.1054  0.0000  0.0000  0.0000  0.0000  0.0000 </r>
       </set>
       <set comment="band 16">
        <r>  0.0000  0.0000  0.0141  0.0000  0.0000  0.0000  0.0000  0.0000  0.0000 </r>
       </set>
       <set comment="band 17">
        <r>  0.0000  0.0000  0.7348  0.0000  0.0000  0.0000  0.0000  0.0000  0.0000 </r>
       </set>
       <set comment="band 18">
        <r>  0.0894  0.3321  0.0000  0.6063  0.0000  0.0000  0.0000  0.0000  0.0000 </r>
       </set>
       <set comment="band 19">
        <r>  3.5837  1.5471  0.0000  0.0998  0.0000  0.0000  0.0000  0.0000  0.0000 </r>
       </set>
       <set comment="band 20">
        <r>  5.7711  0.9067  0.0000  0.2903  0.0000  0.0000  0.0000  0.0000  0.0000 </r>
       </set>
       <set comment="band 21">
        <r>  0.1929  0.2065  0.0000  1.6471  0.0000  0.0000  0.0000  0.0000  0.0000 </r>
       </set>
       <set comment="band 22">
        <r>  0.0000  0.0000  2.3453  0.0000  0.0000  0.0000  0.0000  0.0000  0.0000 </r>
       </set>
       <set comment="band 23">
        <r>  0.0418  0.1062  0.0000  1.1651  0.0000  0.0000  0.0000  0.0000  0.0000 </r>
       </set>
       <set comment="band 24">
        <r>  0.0000  0.0000  0.0848  0.0000  0.0000  0.0000  0.0000  0.0000  0.0000 </r>
       </set>
       <set comment="band 25">
        <r>  0.2048  0.2941  0.0000  0.0452  0.0000  0.0000  0.0000  0.0000  0.0000 </r>
       </set>
       <set comment="band 26">
        <r>  0.0000  0.0000  1.2657  0.0000  0.0000  0.0000  0.0000  0.0000  0.0000 </r>
       </set>
       <set comment="band 27">
        <r>  0.0000  0.0000  0.4263  0.0000  0.0000  0.0000  0.0000  0.0000  0.0000 </r>
       </set>
       <set comment="band 28">
        <r>  0.1324  0.0215  0.0000  1.1480  0.0000  0.0000  0.0000  0.0000  0.0000 </r>
       </set>
       <set comment="band 29">
        <r>  0.0868  1.6596  0.0000  0.0022  0.0000  0.0000  0.0000  0.0000  0.0000 </r>
       </set>
       <set comment="band 30">
        <r>  0.0000  0.0000  0.4490  0.0000  0.0000  0.0000  0.0000  0.0000  0.0000 </r>
       </set>
       <set comment="band 31">
        <r>  0.0278  0.2782  0.0000  0.1035  0.0000  0.0000  0.0000  0.0000  0.0000 </r>
       </set>
       <set comment="band 32">
        <r>  0.3799  0.0093  0.0000  0.1744  0.0000  0.0000  0.0000  0.0000  0.0000 </r>
       </set>
       <set comment="band 33">
        <r>  0.2538  0.0206  0.0000  0.0106  0.0000  0.0000  0.0000  0.0000  0.0000 </r>
       </set>
       <set comment="band 34">
        <r>  0.3765  0.0724  0.0000  0.0012  0.0000  0.0000  0.0000  0.0000  0.0000 </r>
       </set>
       <set comment="band 35">
        <r>  0.0000  0.0000  0.1635  0.0000  0.0000  0.0000  0.0000  0.0000  0.0000 </r>
       </set>
       <set comment="band 36">
        <r>  0.1184  0.0020  0.0000  0.0204  0.0000  0.0000  0.0000  0.0000  0.0000 </r>
       </set>
       <set comment="band 37">
        <r>  0.0000  0.0000  0.0886  0.0000  0.0000  0.0000  0.0000  0.0000  0.0000 </r>
       </set>
       <set comment="band 38">
        <r>  0.0407  0.0182  0.0000  0.3153  0.0000  0.0000  0.0000  0.0000  0.0000 </r>
       </set>
       <set comment="band 39">
        <r>  0.0017  0.0223  0.0000  0.0086  0.0000  0.0000  0.0000  0.0000  0.0000 </r>
       </set>
       <set comment="band 40">
        <r>  0.0000  0.0000  0.1399  0.0000  0.0000  0.0000  0.0000  0.0000  0.0000 </r>
       </set>
       <set comment="band 41">
        <r>  0.0094  0.1116  0.0000  0.0009  0.0000  0.0000  0.0000  0.0000  0.0000 </r>
       </set>
       <set comment="band 42">
        <r>  0.0000  0.0000  0.0052  0.0000  0.0000  0.0000  0.0000  0.0000  0.0000 </r>
       </set>
       <set comment="band 43">
        <r>  0.0000  0.0000  0.0077  0.0000  0.0000  0.0000  0.0000  0.0000  0.0000 </r>
       </set>
       <set comment="band 44">
        <r>  0.0292  0.0637  0.0000  0.0026  0.0000  0.0000  0.0000  0.0000  0.0000 </r>
       </set>
       <set comment="band 45">
        <r>  0.0064  0.0005  0.0000  0.0166  0.0000  0.0000  0.0000  0.0000  0.0000 </r>
       </set>
       <set comment="band 46">
        <r>  0.0000  0.0000  0.0138  0.0000  0.0000  0.0000  0.0000  0.0000  0.0000 </r>
       </set>
       <set comment="band 47">
        <r>  0.0760  0.1187  0.0000  0.0108  0.0000  0.0000  0.0000  0.0000  0.0000 </r>
       </set>
       <set comment="band 48">
        <r>  0.0000  0.0000  0.0644  0.0000  0.0000  0.0000  0.0000  0.0000  0.0000 </r>
       </set>
      </set>
     </set>
    </set>
   </array>
  </projected>
 </calculation>
 <structure name="finalpos" >
  <crystal>
   <varray name="basis" >
    <v>       0.00000000       2.02400000       2.02400000 </v>
    <v>       2.02400000       0.00000000       2.02400000 </v>
    <v>       2.02400000       2.02400000       0.00000000 </v>
   </varray>
   <i name="volume">     16.58293965 </i>
   <varray name="rec_basis" >
    <v>      -0.24703557       0.24703557       0.24703557 </v>
    <v>       0.24703557      -0.24703557       0.24703557 </v>
    <v>       0.24703557       0.24703557      -0.24703557 </v>
   </varray>
  </crystal>
  <varray name="positions" >
   <v>       0.00000000       0.00000000       0.00000000 </v>
  </varray>
 </structure>
</modeling>
