   1   1   1   0
  0.1658294E+02  0.2862368E-09  0.2862368E-09  0.2862368E-09  0.5000000E-15
   1.0000000000000000E-004
  CAR 
 unknown system                          
    116.91773174     -8.87070770  301      8.00239143      1.00000000
     -8.871  0.0000E+00  0.0000E+00  0.0000E+00  0.0000E+00
     -8.451  0.0000E+00  0.0000E+00  0.0000E+00  0.0000E+00
     -8.032  0.0000E+00  0.0000E+00  0.0000E+00  0.0000E+00
     -7.613  0.0000E+00  0.0000E+00  0.0000E+00  0.0000E+00
     -7.194  0.0000E+00  0.0000E+00  0.0000E+00  0.0000E+00
     -6.774  0.0000E+00  0.0000E+00  0.0000E+00  0.0000E+00
     -6.355  0.0000E+00  0.0000E+00  0.0000E+00  0.0000E+00
     -5.936  0.0000E+00  0.0000E+00  0.0000E+00  0.0000E+00
     -5.516  0.0000E+00  0.0000E+00  0.0000E+00  0.0000E+00
     -5.097  0.0000E+00  0.0000E+00  0.0000E+00  0.0000E+00
     -4.678  0.0000E+00  0.0000E+00  0.0000E+00  0.0000E+00
     -4.258  0.0000E+00  0.0000E+00  0.0000E+00  0.0000E+00
     -3.839  0.0000E+00  0.0000E+00  0.0000E+00  0.0000E+00
     -3.420  0.0000E+00  0.0000E+00  0.0000E+00  0.0000E+00
     -3.001  0.1369E-01  0.1402E-01  0.6872E-03  0.7127E-03
     -2.581  0.4140E-01  0.4151E-01  0.1335E-01  0.1343E-01
     -2.162  0.5472E-01  0.5478E-01  0.3393E-01  0.3403E-01
     -1.743  0.6951E-01  0.6958E-01  0.5992E-01  0.6005E-01
     -1.323  0.7714E-01  0.7718E-01  0.9052E-01  0.9066E-01
     -0.904  0.8732E-01  0.8736E-01  0.1249E+00  0.1251E+00
     -0.485  0.9531E-01  0.9534E-01  0.1635E+00  0.1637E+00
     -0.066  0.1027E+00  0.1027E+00  0.2050E+00  0.2052E+00
      0.354  0.1108E+00  0.1108E+00  0.2497E+00  0.2499E+00
      0.773  0.1181E+00  0.1181E+00  0.2978E+00  0.2980E+00
      1.192  0.1239E+00  0.1240E+00  0.3485E+00  0.3487E+00
      1.612  0.1307E+00  0.1307E+00  0.4019E+00  0.4021E+00
      2.031  0.1382E+00  0.1383E+00  0.4582E+00  0.4585E+00
      2.450  0.1500E+00  0.1500E+00  0.5183E+00  0.5186E+00
      2.870  0.1634E+00  0.1634E+00  0.5843E+00  0.5845E+00
      3.289  0.1711E+00  0.1710E+00  0.6600E+00  0.6603E+00
      3.708  0.1473E+00  0.1472E+00  0.7248E+00  0.7250E+00
      4.127  0.1573E+00  0.1573E+00  0.7882E+00  0.7885E+00
      4.547  0.1897E+00  0.1895E+00  0.8588E+00  0.8591E+00
      4.966  0.1880E+00  0.1881E+00  0.9359E+00  0.9362E+00
      5.385  0.1817E+00  0.1817E+00  0.1017E+01  0.1017E+01
      5.805  0.1507E+00  0.1506E+00  0.1088E+01  0.1089E+01
      6.224  0.1432E+00  0.1432E+00  0.1148E+01  0.1148E+01
      6.643  0.2123E+00  0.2125E+00  0.1231E+01  0.1232E+01
      7.062  0.2099E+00  0.2099E+00  0.1323E+01  0.1324E+01
      7.482  0.1922E+00  0.1921E+00  0.1406E+01  0.1406E+01
      7.901  0.1709E+00  0.1708E+00  0.1483E+01  0.1483E+01
      8.320  0.1998E+00  0.2000E+00  0.1556E+01  0.1556E+01
      8.740  0.2497E+00  0.2499E+00  0.1654E+01  0.1654E+01
      9.159  0.2050E+00  0.2050E+00  0.1746E+01  0.1746E+01
      9.578  0.2117E+00  0.2118E+00  0.1833E+01  0.1833E+01
      9.998  0.2008E+00  0.2008E+00  0.1920E+01  0.1920E+01
     10.417  0.2338E+00  0.2338E+00  0.2016E+01  0.2017E+01
     10.836  0.2427E+00  0.2428E+00  0.2113E+01  0.2113E+01
     11.255  0.2396E+00  0.2396E+00  0.2217E+01  0.2217E+01
     11.675  0.2338E+00  0.2338E+00  0.2315E+01  0.2316E+01
     12.094  0.2410E+00  0.2411E+00  0.2415E+01  0.2416E+01
     12.513  0.2635E+00  0.2635E+00  0.2524E+01  0.2524E+01
     12.933  0.2795E+00  0.2795E+00  0.2637E+01  0.2638E+01
     13.352  0.2920E+00  0.2921E+00  0.2756E+01  0.2757E+01
     13.771  0.3035E+00  0.3036E+00  0.2883E+01  0.2883E+01
     14.191  0.2820E+00  0.2820E+00  0.3006E+01  0.3006E+01
     14.610  0.2747E+00  0.2746E+00  0.3122E+01  0.3123E+01
     15.029  0.2669E+00  0.2669E+00  0.3236E+01  0.3237E+01
     15.448  0.2608E+00  0.2608E+00  0.3346E+01  0.3347E+01
     15.868  0.2669E+00  0.2670E+00  0.3456E+01  0.3457E+01
     16.287  0.2635E+00  0.2635E+00  0.3568E+01  0.3569E+01
     16.706  0.2579E+00  0.2579E+00  0.3677E+01  0.3678E+01
     17.126  0.2565E+00  0.2565E+00  0.3785E+01  0.3786E+01
     17.545  0.2665E+00  0.2667E+00  0.3894E+01  0.3895E+01
     17.964  0.2778E+00  0.2779E+00  0.4009E+01  0.4010E+01
     18.383  0.2910E+00  0.2912E+00  0.4128E+01  0.4129E+01
     18.803  0.3107E+00  0.3106E+00  0.4255E+01  0.4256E+01
     19.222  0.3335E+00  0.3339E+00  0.4387E+01  0.4388E+01
     19.641  0.3890E+00  0.3890E+00  0.4541E+01  0.4542E+01
     20.061  0.3920E+00  0.3919E+00  0.4704E+01  0.4705E+01
     20.480  0.3430E+00  0.3420E+00  0.4869E+01  0.4870E+01
     20.899  0.2634E+00  0.2634E+00  0.4990E+01  0.4991E+01
     21.319  0.3053E+00  0.3100E+00  0.5099E+01  0.5100E+01
     21.738  0.2681E+00  0.2682E+00  0.5216E+01  0.5217E+01
     22.157  0.2538E+00  0.2541E+00  0.5324E+01  0.5325E+01
     22.576  0.3795E+00  0.3797E+00  0.5459E+01  0.5460E+01
     22.996  0.4316E+00  0.4318E+00  0.5630E+01  0.5631E+01
     23.415  0.3280E+00  0.3265E+00  0.5792E+01  0.5793E+01
     23.834  0.2886E+00  0.2895E+00  0.5912E+01  0.5913E+01
     24.254  0.3057E+00  0.3056E+00  0.6043E+01  0.6044E+01
     24.673  0.3007E+00  0.2987E+00  0.6168E+01  0.6170E+01
     25.092  0.3669E+00  0.3659E+00  0.6304E+01  0.6305E+01
     25.511  0.4553E+00  0.4555E+00  0.6478E+01  0.6480E+01
     25.931  0.4231E+00  0.4226E+00  0.6664E+01  0.6666E+01
     26.350  0.3995E+00  0.3997E+00  0.6833E+01  0.6835E+01
     26.769  0.3359E+00  0.3355E+00  0.6993E+01  0.6994E+01
     27.189  0.3206E+00  0.3203E+00  0.7132E+01  0.7133E+01
     27.608  0.2924E+00  0.2920E+00  0.7263E+01  0.7264E+01
     28.027  0.2907E+00  0.2910E+00  0.7382E+01  0.7383E+01
     28.447  0.4287E+00  0.4333E+00  0.7528E+01  0.7529E+01
     28.866  0.4193E+00  0.4155E+00  0.7731E+01  0.7733E+01
     29.285  0.5112E+00  0.5102E+00  0.7912E+01  0.7913E+01
     29.704  0.4236E+00  0.4235E+00  0.8099E+01  0.8101E+01
     30.124  0.4081E+00  0.4078E+00  0.8275E+01  0.8276E+01
     30.543  0.3512E+00  0.3509E+00  0.8433E+01  0.8435E+01
     30.962  0.3502E+00  0.3506E+00  0.8577E+01  0.8579E+01
     31.382  0.3991E+00  0.3992E+00  0.8734E+01  0.8736E+01
     31.801  0.4144E+00  0.4152E+00  0.8902E+01  0.8904E+01
     32.220  0.5486E+00  0.5471E+00  0.9128E+01  0.9131E+01
     32.639  0.4020E+00  0.4015E+00  0.9312E+01  0.9314E+01
     33.059  0.3626E+00  0.3604E+00  0.9477E+01  0.9479E+01
     33.478  0.3136E+00  0.3130E+00  0.9617E+01  0.9618E+01
     33.897  0.2559E+00  0.2555E+00  0.9734E+01  0.9735E+01
     34.317  0.2926E+00  0.2922E+00  0.9845E+01  0.9847E+01
     34.736  0.1862E+00  0.1859E+00  0.9942E+01  0.9942E+01
     35.155  0.1681E+00  0.1680E+00  0.1001E+02  0.1001E+02
     35.575  0.1711E+00  0.1712E+00  0.1009E+02  0.1009E+02
     35.994  0.1921E+00  0.1923E+00  0.1016E+02  0.1016E+02
     36.413  0.2418E+00  0.2422E+00  0.1025E+02  0.1025E+02
     36.832  0.2450E+00  0.2450E+00  0.1035E+02  0.1035E+02
     37.252  0.2633E+00  0.2634E+00  0.1046E+02  0.1046E+02
     37.671  0.2892E+00  0.2893E+00  0.1057E+02  0.1057E+02
     38.090  0.3995E+00  0.3996E+00  0.1072E+02  0.1072E+02
     38.510  0.3951E+00  0.3950E+00  0.1087E+02  0.1087E+02
     38.929  0.3146E+00  0.3143E+00  0.1102E+02  0.1102E+02
     39.348  0.3756E+00  0.3760E+00  0.1115E+02  0.1115E+02
     39.767  0.5288E+00  0.5299E+00  0.1134E+02  0.1134E+02
     40.187  0.4979E+00  0.4978E+00  0.1156E+02  0.1156E+02
     40.606  0.4283E+00  0.4284E+00  0.1175E+02  0.1175E+02
     41.025  0.4511E+00  0.4515E+00  0.1193E+02  0.1193E+02
     41.445  0.6178E+00  0.6268E+00  0.1214E+02  0.1214E+02
     41.864  0.5087E+00  0.5087E+00  0.1237E+02  0.1237E+02
     42.283  0.5206E+00  0.5201E+00  0.1259E+02  0.1259E+02
     42.703  0.4508E+00  0.4539E+00  0.1276E+02  0.1277E+02
     43.122  0.4442E+00  0.4434E+00  0.1299E+02  0.1299E+02
     43.541  0.4265E+00  0.4275E+00  0.1316E+02  0.1316E+02
     43.960  0.5051E+00  0.5053E+00  0.1336E+02  0.1336E+02
     44.380  0.4367E+00  0.4364E+00  0.1356E+02  0.1356E+02
     44.799  0.3939E+00  0.3934E+00  0.1373E+02  0.1374E+02
     45.218  0.3858E+00  0.3862E+00  0.1389E+02  0.1389E+02
     45.638  0.4991E+00  0.4995E+00  0.1408E+02  0.1408E+02
     46.057  0.5750E+00  0.5749E+00  0.1431E+02  0.1431E+02
     46.476  0.5459E+00  0.5457E+00  0.1454E+02  0.1454E+02
     46.896  0.4395E+00  0.4391E+00  0.1475E+02  0.1475E+02
     47.315  0.4213E+00  0.4219E+00  0.1493E+02  0.1493E+02
     47.734  0.4587E+00  0.4583E+00  0.1512E+02  0.1512E+02
     48.153  0.4618E+00  0.4620E+00  0.1531E+02  0.1531E+02
     48.573  0.5479E+00  0.5484E+00  0.1552E+02  0.1552E+02
     48.992  0.4627E+00  0.4623E+00  0.1574E+02  0.1574E+02
     49.411  0.3992E+00  0.4010E+00  0.1591E+02  0.1591E+02
     49.831  0.6510E+00  0.6583E+00  0.1612E+02  0.1612E+02
     50.250  0.3152E+00  0.3153E+00  0.1627E+02  0.1627E+02
     50.669  0.3837E+00  0.3843E+00  0.1641E+02  0.1641E+02
     51.088  0.5404E+00  0.5414E+00  0.1660E+02  0.1660E+02
     51.508  0.6499E+00  0.6501E+00  0.1685E+02  0.1685E+02
     51.927  0.4559E+00  0.4564E+00  0.1709E+02  0.1709E+02
     52.346  0.3956E+00  0.3959E+00  0.1725E+02  0.1725E+02
     52.766  0.4785E+00  0.4789E+00  0.1744E+02  0.1744E+02
     53.185  0.7274E+00  0.7272E+00  0.1771E+02  0.1771E+02
     53.604  0.9793E+00  0.9796E+00  0.1804E+02  0.1805E+02
     54.024  0.9237E+00  0.9224E+00  0.1849E+02  0.1849E+02
     54.443  0.9067E+00  0.9060E+00  0.1883E+02  0.1883E+02
     54.862  0.1068E+01  0.1068E+01  0.1921E+02  0.1921E+02
     55.281  0.9379E+00  0.9377E+00  0.1965E+02  0.1965E+02
     55.701  0.1005E+01  0.1007E+01  0.2006E+02  0.2006E+02
     56.120  0.1732E+01  0.1733E+01  0.2061E+02  0.2061E+02
     56.539  0.1077E+01  0.1077E+01  0.2121E+02  0.2121E+02
     56.959  0.1232E+01  0.1228E+01  0.2168E+02  0.2168E+02
     57.378  0.9208E+00  0.9244E+00  0.2204E+02  0.2204E+02
     57.797  0.7304E+00  0.7291E+00  0.2241E+02  0.2242E+02
     58.216  0.6428E+00  0.6428E+00  0.2267E+02  0.2267E+02
     58.636  0.6776E+00  0.6785E+00  0.2293E+02  0.2293E+02
     59.055  0.9250E+00  0.9260E+00  0.2327E+02  0.2327E+02
     59.474  0.8611E+00  0.8596E+00  0.2364E+02  0.2364E+02
     59.894  0.6393E+00  0.6497E+00  0.2393E+02  0.2393E+02
     60.313  0.4741E+00  0.4743E+00  0.2414E+02  0.2414E+02
     60.732  0.5361E+00  0.5365E+00  0.2435E+02  0.2435E+02
     61.152  0.6224E+00  0.6223E+00  0.2459E+02  0.2459E+02
     61.571  0.7035E+00  0.7039E+00  0.2487E+02  0.2487E+02
     61.990  0.5720E+00  0.5712E+00  0.2516E+02  0.2516E+02
     62.409  0.4773E+00  0.4771E+00  0.2537E+02  0.2537E+02
     62.829  0.5490E+00  0.5489E+00  0.2557E+02  0.2558E+02
     63.248  0.5543E+00  0.5538E+00  0.2581E+02  0.2581E+02
     63.667  0.5262E+00  0.5258E+00  0.2604E+02  0.2604E+02
     64.087  0.4869E+00  0.4870E+00  0.2625E+02  0.2625E+02
     64.506  0.5484E+00  0.5490E+00  0.2647E+02  0.2647E+02
     64.925  0.5758E+00  0.5753E+00  0.2672E+02  0.2672E+02
     65.344  0.4449E+00  0.4446E+00  0.2693E+02  0.2693E+02
     65.764  0.4683E+00  0.4684E+00  0.2711E+02  0.2711E+02
     66.183  0.5042E+00  0.5041E+00  0.2732E+02  0.2732E+02
     66.602  0.4764E+00  0.4762E+00  0.2752E+02  0.2753E+02
     67.022  0.3828E+00  0.3828E+00  0.2770E+02  0.2770E+02
     67.441  0.3893E+00  0.3894E+00  0.2786E+02  0.2786E+02
     67.860  0.3905E+00  0.3905E+00  0.2802E+02  0.2803E+02
     68.280  0.4309E+00  0.4311E+00  0.2820E+02  0.2820E+02
     68.699  0.5802E+00  0.5801E+00  0.2841E+02  0.2841E+02
     69.118  0.5168E+00  0.5164E+00  0.2864E+02  0.2864E+02
     69.537  0.4930E+00  0.4927E+00  0.2885E+02  0.2885E+02
     69.957  0.4737E+00  0.4737E+00  0.2905E+02  0.2905E+02
     70.376  0.5362E+00  0.5361E+00  0.2925E+02  0.2925E+02
     70.795  0.4995E+00  0.4996E+00  0.2947E+02  0.2947E+02
     71.215  0.5231E+00  0.5234E+00  0.2968E+02  0.2968E+02
     71.634  0.5303E+00  0.5304E+00  0.2990E+02  0.2990E+02
     72.053  0.5181E+00  0.5179E+00  0.3012E+02  0.3012E+02
     72.472  0.4687E+00  0.4683E+00  0.3033E+02  0.3033E+02
     72.892  0.4250E+00  0.4248E+00  0.3051E+02  0.3052E+02
     73.311  0.3667E+00  0.3665E+00  0.3069E+02  0.3069E+02
     73.730  0.4277E+00  0.4274E+00  0.3086E+02  0.3086E+02
     74.150  0.3930E+00  0.3931E+00  0.3103E+02  0.3103E+02
     74.569  0.3971E+00  0.3975E+00  0.3119E+02  0.3119E+02
     74.988  0.5257E+00  0.5250E+00  0.3141E+02  0.3141E+02
     75.408  0.4632E+00  0.4633E+00  0.3160E+02  0.3160E+02
     75.827  0.4778E+00  0.4781E+00  0.3179E+02  0.3180E+02
     76.246  0.7323E+00  0.7314E+00  0.3204E+02  0.3204E+02
     76.665  0.5444E+00  0.5519E+00  0.3228E+02  0.3229E+02
     77.085  0.4712E+00  0.4633E+00  0.3251E+02  0.3251E+02
     77.504  0.4355E+00  0.4357E+00  0.3269E+02  0.3269E+02
     77.923  0.6475E+00  0.6490E+00  0.3290E+02  0.3291E+02
     78.343  0.6733E+00  0.6727E+00  0.3319E+02  0.3319E+02
     78.762  0.5572E+00  0.5564E+00  0.3342E+02  0.3343E+02
     79.181  0.5098E+00  0.5076E+00  0.3367E+02  0.3367E+02
     79.600  0.4534E+00  0.4538E+00  0.3386E+02  0.3386E+02
     80.020  0.4887E+00  0.4878E+00  0.3406E+02  0.3406E+02
     80.439  0.5008E+00  0.5013E+00  0.3426E+02  0.3426E+02
     80.858  0.5716E+00  0.5717E+00  0.3448E+02  0.3448E+02
     81.278  0.6193E+00  0.6196E+00  0.3473E+02  0.3473E+02
     81.697  0.6653E+00  0.6643E+00  0.3500E+02  0.3501E+02
     82.116  0.6308E+00  0.6297E+00  0.3528E+02  0.3528E+02
     82.536  0.5458E+00  0.5458E+00  0.3552E+02  0.3552E+02
     82.955  0.5031E+00  0.5032E+00  0.3575E+02  0.3575E+02
     83.374  0.6683E+00  0.6690E+00  0.3598E+02  0.3598E+02
     83.793  0.6536E+00  0.6535E+00  0.3624E+02  0.3624E+02
     84.213  0.5976E+00  0.5974E+00  0.3652E+02  0.3652E+02
     84.632  0.4960E+00  0.4955E+00  0.3674E+02  0.3674E+02
     85.051  0.3792E+00  0.3788E+00  0.3693E+02  0.3693E+02
     85.471  0.3914E+00  0.3916E+00  0.3709E+02  0.3709E+02
     85.890  0.4654E+00  0.4657E+00  0.3726E+02  0.3727E+02
     86.309  0.4793E+00  0.4796E+00  0.3746E+02  0.3747E+02
     86.729  0.4703E+00  0.4705E+00  0.3766E+02  0.3766E+02
     87.148  0.5634E+00  0.5640E+00  0.3787E+02  0.3787E+02
     87.567  0.5731E+00  0.5726E+00  0.3811E+02  0.3811E+02
     87.986  0.5936E+00  0.5932E+00  0.3836E+02  0.3836E+02
     88.406  0.7242E+00  0.7263E+00  0.3862E+02  0.3862E+02
     88.825  0.7438E+00  0.7424E+00  0.3896E+02  0.3896E+02
     89.244  0.5133E+00  0.5134E+00  0.3920E+02  0.3920E+02
     89.664  0.5864E+00  0.5865E+00  0.3943E+02  0.3943E+02
     90.083  0.6859E+00  0.6756E+00  0.3970E+02  0.3970E+02
     90.502  0.5028E+00  0.5023E+00  0.3994E+02  0.3994E+02
     90.921  0.5154E+00  0.5128E+00  0.4015E+02  0.4015E+02
     91.341  0.4562E+00  0.4562E+00  0.4034E+02  0.4035E+02
     91.760  0.5108E+00  0.5110E+00  0.4055E+02  0.4055E+02
     92.179  0.5269E+00  0.5276E+00  0.4076E+02  0.4076E+02
     92.599  0.6219E+00  0.6219E+00  0.4101E+02  0.4101E+02
     93.018  0.5374E+00  0.5368E+00  0.4126E+02  0.4126E+02
     93.437  0.4020E+00  0.4018E+00  0.4144E+02  0.4144E+02
     93.857  0.4229E+00  0.4232E+00  0.4161E+02  0.4161E+02
     94.276  0.6509E+00  0.6523E+00  0.4182E+02  0.4183E+02
     94.695  0.6726E+00  0.6724E+00  0.4212E+02  0.4212E+02
     95.114  0.6014E+00  0.6012E+00  0.4238E+02  0.4238E+02
     95.534  0.6188E+00  0.6190E+00  0.4264E+02  0.4264E+02
     95.953  0.7335E+00  0.7331E+00  0.4291E+02  0.4291E+02
     96.372  0.7193E+00  0.7196E+00  0.4322E+02  0.4322E+02
     96.792  0.6179E+00  0.6178E+00  0.4350E+02  0.4350E+02
     97.211  0.5995E+00  0.6003E+00  0.4374E+02  0.4375E+02
     97.630  0.5917E+00  0.5916E+00  0.4401E+02  0.4401E+02
     98.049  0.4364E+00  0.4362E+00  0.4422E+02  0.4422E+02
     98.469  0.4301E+00  0.4300E+00  0.4440E+02  0.4441E+02
     98.888  0.4216E+00  0.4218E+00  0.4458E+02  0.4458E+02
     99.307  0.5413E+00  0.5410E+00  0.4480E+02  0.4480E+02
     99.727  0.6373E+00  0.6378E+00  0.4503E+02  0.4503E+02
    100.146  0.6530E+00  0.6530E+00  0.4531E+02  0.4531E+02
    100.565  0.6609E+00  0.6608E+00  0.4559E+02  0.4559E+02
    100.985  0.5685E+00  0.5675E+00  0.4585E+02  0.4586E+02
    101.404  0.5116E+00  0.5116E+00  0.4608E+02  0.4608E+02
    101.823  0.5100E+00  0.5101E+00  0.4629E+02  0.4629E+02
    102.242  0.4795E+00  0.4793E+00  0.4650E+02  0.4650E+02
    102.662  0.5355E+00  0.5357E+00  0.4672E+02  0.4672E+02
    103.081  0.4904E+00  0.4909E+00  0.4693E+02  0.4693E+02
    103.500  0.4522E+00  0.4516E+00  0.4713E+02  0.4714E+02
    103.920  0.3721E+00  0.3721E+00  0.4730E+02  0.4730E+02
    104.339  0.4219E+00  0.4223E+00  0.4746E+02  0.4747E+02
    104.758  0.3807E+00  0.3804E+00  0.4764E+02  0.4764E+02
    105.177  0.3057E+00  0.3032E+00  0.4778E+02  0.4778E+02
    105.597  0.2070E+00  0.2066E+00  0.4789E+02  0.4789E+02
    106.016  0.6978E-01  0.6916E-01  0.4795E+02  0.4795E+02
    106.435  0.3598E-01  0.3592E-01  0.4797E+02  0.4797E+02
    106.855  0.1449E-01  0.1447E-01  0.4798E+02  0.4798E+02
    107.274  0.1134E-01  0.1132E-01  0.4798E+02  0.4798E+02
    107.693  0.8741E-02  0.8727E-02  0.4799E+02  0.4799E+02
    108.113  0.6692E-02  0.6680E-02  0.4799E+02  0.4799E+02
    108.532  0.5191E-02  0.5183E-02  0.4799E+02  0.4799E+02
    108.951  0.4171E-02  0.4164E-02  0.4800E+02  0.4800E+02
    109.370  0.3265E-02  0.3258E-02  0.4800E+02  0.4800E+02
    109.790  0.2417E-02  0.2410E-02  0.4800E+02  0.4800E+02
    110.209  0.1629E-02  0.1622E-02  0.4800E+02  0.4800E+02
    110.628  0.8996E-03  0.8929E-03  0.4800E+02  0.4800E+02
    111.048  0.2292E-03  0.2229E-03  0.4800E+02  0.4800E+02
    111.467  0.0000E+00  0.0000E+00  0.4800E+02  0.4800E+02
    111.886  0.0000E+00  0.0000E+00  0.4800E+02  0.4800E+02
    112.305  0.0000E+00  0.0000E+00  0.4800E+02  0.4800E+02
    112.725  0.0000E+00  0.0000E+00  0.4800E+02  0.4800E+02
    113.144  0.0000E+00  0.0000E+00  0.4800E+02  0.4800E+02
    113.563  0.0000E+00  0.0000E+00  0.4800E+02  0.4800E+02
    113.983  0.0000E+00  0.0000E+00  0.4800E+02  0.4800E+02
    114.402  0.0000E+00  0.0000E+00  0.4800E+02  0.4800E+02
    114.821  0.0000E+00  0.0000E+00  0.4800E+02  0.4800E+02
    115.241  0.0000E+00  0.0000E+00  0.4800E+02  0.4800E+02
    115.660  0.0000E+00  0.0000E+00  0.4800E+02  0.4800E+02
    116.079  0.0000E+00  0.0000E+00  0.4800E+02  0.4800E+02
    116.498  0.0000E+00  0.0000E+00  0.4800E+02  0.4800E+02
    116.918  0.0000E+00  0.0000E+00  0.4800E+02  0.4800E+02
    116.91773174     -8.87070770  301      8.00239143      1.00000000
     -8.871  0.0000E+00  0.0000E+00  0.0000E+00  0.0000E+00  0.0000E+00  0.0000E+00  0.0000E+00  0.0000E+00  0.0000E+00  0.0000E+00  0.0000E+00  0.0000E+00  0.0000E+00  0.0000E+00  0.0000E+00  0.0000E+00  0.0000E+00  0.0000E+00
     -8.451  0.0000E+00  0.0000E+00  0.0000E+00  0.0000E+00  0.0000E+00  0.0000E+00  0.0000E+00  0.0000E+00  0.0000E+00  0.0000E+00  0.0000E+00  0.0000E+00  0.0000E+00  0.0000E+00  0.0000E+00  0.0000E+00  0.0000E+00  0.0000E+00
     -8.032  0.0000E+00  0.0000E+00  0.0000E+00  0.0000E+00  0.0000E+00  0.0000E+00  0.0000E+00  0.0000E+00  0.0000E+00  0.0000E+00  0.0000E+00  0.0000E+00  0.0000E+00  0.0000E+00  0.0000E+00  0.0000E+00  0.0000E+00  0.0000E+00
     -7.613  0.0000E+00  0.0000E+00  0.0000E+00  0.0000E+00  0.0000E+00  0.0000E+00  0.0000E+00  0.0000E+00  0.0000E+00  0.0000E+00  0.0000E+00  0.0000E+00  0.0000E+00  0.0000E+00  0.0000E+00  0.0000E+00  0.0000E+00  0.0000E+00
     -7.194  0.0000E+00  0.0000E+00  0.0000E+00  0.0000E+00  0.0000E+00  0.0000E+00  0.0000E+00  0.0000E+00  0.0000E+00  0.0000E+00  0.0000E+00  0.0000E+00  0.0000E+00  0.0000E+00  0.0000E+00  0.0000E+00  0.0000E+00  0.0000E+00
     -6.774  0.0000E+00  0.0000E+00  0.0000E+00  0.0000E+00  0.0000E+00  0.0000E+00  0.0000E+00  0.0000E+00  0.0000E+00  0.0000E+00  0.0000E+00  0.0000E+00  0.0000E+00  0.0000E+00  0.0000E+00  0.0000E+00  0.0000E+00  0.0000E+00
     -6.355  0.0000E+00  0.0000E+00  0.0000E+00  0.0000E+00  0.0000E+00  0.0000E+00  0.0000E+00  0.0000E+00  0.0000E+00  0.0000E+00  0.0000E+00  0.0000E+00  0.0000E+00  0.0000E+00  0.0000E+00  0.0000E+00  0.0000E+00  0.0000E+00
     -5.936  0.0000E+00  0.0000E+00  0.0000E+00  0.0000E+00  0.0000E+00  0.0000E+00  0.0000E+00  0.0000E+00  0.0000E+00  0.0000E+00  0.0000E+00  0.0000E+00  0.0000E+00  0.0000E+00  0.0000E+00  0.0000E+00  0.0000E+00  0.0000E+00
     -5.516  0.0000E+00  0.0000E+00  0.0000E+00  0.0000E+00  0.0000E+00  0.0000E+00  0.0000E+00  0.0000E+00  0.0000E+00  0.0000E+00  0.0000E+00  0.0000E+00  0.0000E+00  0.0000E+00  0.0000E+00  0.0000E+00  0.0000E+00  0.0000E+00
     -5.097  0.0000E+00  0.0000E+00  0.0000E+00  0.0000E+00  0.0000E+00  0.0000E+00  0.0000E+00  0.0000E+00  0.0000E+00  0.0000E+00  0.0000E+00  0.0000E+00  0.0000E+00  0.0000E+00  0.0000E+00  0.0000E+00  0.0000E+00  0.0000E+00
     -4.678  0.0000E+00  0.0000E+00  0.0000E+00  0.0000E+00  0.0000E+00  0.0000E+00  0.0000E+00  0.0000E+00  0.0000E+00  0.0000E+00  0.0000E+00  0.0000E+00  0.0000E+00  0.0000E+00  0.0000E+00  0.0000E+00  0.0000E+00  0.0000E+00
     -4.258  0.0000E+00  0.0000E+00  0.0000E+00  0.0000E+00  0.0000E+00  0.0000E+00  0.0000E+00  0.0000E+00  0.0000E+00  0.0000E+00  0.0000E+00  0.0000E+00  0.0000E+00  0.0000E+00  0.0000E+00  0.0000E+00  0.0000E+00  0.0000E+00
     -3.839  0.0000E+00  0.0000E+00  0.0000E+00  0.0000E+00  0.0000E+00  0.0000E+00  0.0000E+00  0.0000E+00  0.0000E+00  0.0000E+00  0.0000E+00  0.0000E+00  0.0000E+00  0.0000E+00  0.0000E+00  0.0000E+00  0.0000E+00  0.0000E+00
     -3.420  0.0000E+00  0.0000E+00  0.0000E+00  0.0000E+00  0.0000E+00  0.0000E+00  0.0000E+00  0.0000E+00  0.0000E+00  0.0000E+00  0.0000E+00  0.0000E+00  0.0000E+00  0.0000E+00  0.0000E+00  0.0000E+00  0.0000E+00  0.0000E+00
     -3.001  0.3633E-02  0.3725E-02  0.1722E-04  0.1765E-04  0.1722E-04  0.1765E-04  0.1722E-04  0.1765E-04  0.0000E+00  0.0000E+00  0.0000E+00  0.0000E+00  0.0000E+00  0.0000E+00  0.0000E+00  0.0000E+00  0.0000E+00  0.0000E+00
     -2.581  0.1067E-01  0.1070E-01  0.1618E-03  0.1626E-03  0.1618E-03  0.1626E-03  0.1618E-03  0.1626E-03  0.0000E+00  0.0000E+00  0.0000E+00  0.0000E+00  0.0000E+00  0.0000E+00  0.0000E+00  0.0000E+00  0.0000E+00  0.0000E+00
     -2.162  0.1358E-01  0.1361E-01  0.3842E-03  0.3853E-03  0.3842E-03  0.3853E-03  0.3842E-03  0.3853E-03  0.0000E+00  0.0000E+00  0.0000E+00  0.0000E+00  0.0000E+00  0.0000E+00  0.0000E+00  0.0000E+00  0.0000E+00  0.0000E+00
     -1.743  0.1684E-01  0.1686E-01  0.6258E-03  0.6271E-03  0.6258E-03  0.6271E-03  0.6258E-03  0.6271E-03  0.0000E+00  0.0000E+00  0.0000E+00  0.0000E+00  0.0000E+00  0.0000E+00  0.0000E+00  0.0000E+00  0.0000E+00  0.0000E+00
     -1.323  0.1789E-01  0.1791E-01  0.9500E-03  0.9518E-03  0.9500E-03  0.9518E-03  0.9500E-03  0.9518E-03  0.0000E+00  0.0000E+00  0.0000E+00  0.0000E+00  0.0000E+00  0.0000E+00  0.0000E+00  0.0000E+00  0.0000E+00  0.0000E+00
     -0.904  0.1965E-01  0.1967E-01  0.1269E-02  0.1271E-02  0.1269E-02  0.1271E-02  0.1269E-02  0.1271E-02  0.0000E+00  0.0000E+00  0.0000E+00  0.0000E+00  0.0000E+00  0.0000E+00  0.0000E+00  0.0000E+00  0.0000E+00  0.0000E+00
     -0.485  0.2061E-01  0.2063E-01  0.1646E-02  0.1648E-02  0.1646E-02  0.1648E-02  0.1646E-02  0.1648E-02  0.0000E+00  0.0000E+00  0.0000E+00  0.0000E+00  0.0000E+00  0.0000E+00  0.0000E+00  0.0000E+00  0.0000E+00  0.0000E+00
     -0.066  0.2133E-01  0.2135E-01  0.2044E-02  0.2046E-02  0.2044E-02  0.2046E-02  0.2044E-02  0.2046E-02  0.0000E+00  0.0000E+00  0.0000E+00  0.0000E+00  0.0000E+00  0.0000E+00  0.0000E+00  0.0000E+00  0.0000E+00  0.0000E+00
      0.354  0.2221E-01  0.2223E-01  0.2446E-02  0.2449E-02  0.2446E-02  0.2449E-02  0.2446E-02  0.2449E-02  0.0000E+00  0.0000E+00  0.0000E+00  0.0000E+00  0.0000E+00  0.0000E+00  0.0000E+00  0.0000E+00  0.0000E+00  0.0000E+00
      0.773  0.2273E-01  0.2275E-01  0.2889E-02  0.2892E-02  0.2889E-02  0.2892E-02  0.2889E-02  0.2892E-02  0.0000E+00  0.0000E+00  0.0000E+00  0.0000E+00  0.0000E+00  0.0000E+00  0.0000E+00  0.0000E+00  0.0000E+00  0.0000E+00
      1.192  0.2266E-01  0.2268E-01  0.3382E-02  0.3385E-02  0.3382E-02  0.3385E-02  0.3382E-02  0.3385E-02  0.0000E+00  0.0000E+00  0.0000E+00  0.0000E+00  0.0000E+00  0.0000E+00  0.0000E+00  0.0000E+00  0.0000E+00  0.0000E+00
      1.612  0.2280E-01  0.2281E-01  0.3880E-02  0.3883E-02  0.3880E-02  0.3883E-02  0.3880E-02  0.3883E-02  0.0000E+00  0.0000E+00  0.0000E+00  0.0000E+00  0.0000E+00  0.0000E+00  0.0000E+00  0.0000E+00  0.0000E+00  0.0000E+00
      2.031  0.2294E-01  0.2296E-01  0.4423E-02  0.4427E-02  0.4423E-02  0.4427E-02  0.4423E-02  0.4427E-02  0.0000E+00  0.0000E+00  0.0000E+00  0.0000E+00  0.0000E+00  0.0000E+00  0.0000E+00  0.0000E+00  0.0000E+00  0.0000E+00
      2.450  0.2325E-01  0.2327E-01  0.5234E-02  0.5240E-02  0.5234E-02  0.5240E-02  0.5234E-02  0.5240E-02  0.0000E+00  0.0000E+00  0.0000E+00  0.0000E+00  0.0000E+00  0.0000E+00  0.0000E+00  0.0000E+00  0.0000E+00  0.0000E+00
      2.870  0.2342E-01  0.2344E-01  0.6193E-02  0.6197E-02  0.6193E-02  0.6197E-02  0.6193E-02  0.6197E-02  0.0000E+00  0.0000E+00  0.0000E+00  0.0000E+00  0.0000E+00  0.0000E+00  0.0000E+00  0.0000E+00  0.0000E+00  0.0000E+00
      3.289  0.2264E-01  0.2265E-01  0.6965E-02  0.6963E-02  0.6965E-02  0.6963E-02  0.6965E-02  0.6963E-02  0.0000E+00  0.0000E+00  0.0000E+00  0.0000E+00  0.0000E+00  0.0000E+00  0.0000E+00  0.0000E+00  0.0000E+00  0.0000E+00
      3.708  0.1811E-01  0.1813E-01  0.6362E-02  0.6363E-02  0.6362E-02  0.6363E-02  0.6362E-02  0.6363E-02  0.0000E+00  0.0000E+00  0.0000E+00  0.0000E+00  0.0000E+00  0.0000E+00  0.0000E+00  0.0000E+00  0.0000E+00  0.0000E+00
      4.127  0.1757E-01  0.1759E-01  0.7266E-02  0.7268E-02  0.7266E-02  0.7268E-02  0.7266E-02  0.7268E-02  0.0000E+00  0.0000E+00  0.0000E+00  0.0000E+00  0.0000E+00  0.0000E+00  0.0000E+00  0.0000E+00  0.0000E+00  0.0000E+00
      4.547  0.1985E-01  0.1985E-01  0.9182E-02  0.9180E-02  0.9182E-02  0.9180E-02  0.9182E-02  0.9180E-02  0.0000E+00  0.0000E+00  0.0000E+00  0.0000E+00  0.0000E+00  0.0000E+00  0.0000E+00  0.0000E+00  0.0000E+00  0.0000E+00
      4.966  0.1932E-01  0.1935E-01  0.9262E-02  0.9268E-02  0.9262E-02  0.9268E-02  0.9262E-02  0.9268E-02  0.0000E+00  0.0000E+00  0.0000E+00  0.0000E+00  0.0000E+00  0.0000E+00  0.0000E+00  0.0000E+00  0.0000E+00  0.0000E+00
      5.385  0.1875E-01  0.1876E-01  0.8894E-02  0.8899E-02  0.8894E-02  0.8899E-02  0.8894E-02  0.8899E-02  0.0000E+00  0.0000E+00  0.0000E+00  0.0000E+00  0.0000E+00  0.0000E+00  0.0000E+00  0.0000E+00  0.0000E+00  0.0000E+00
      5.805  0.1573E-01  0.1573E-01  0.7298E-02  0.7294E-02  0.7298E-02  0.7294E-02  0.7298E-02  0.7294E-02  0.0000E+00  0.0000E+00  0.0000E+00  0.0000E+00  0.0000E+00  0.0000E+00  0.0000E+00  0.0000E+00  0.0000E+00  0.0000E+00
      6.224  0.1563E-01  0.1564E-01  0.6772E-02  0.6780E-02  0.6772E-02  0.6780E-02  0.6772E-02  0.6780E-02  0.0000E+00  0.0000E+00  0.0000E+00  0.0000E+00  0.0000E+00  0.0000E+00  0.0000E+00  0.0000E+00  0.0000E+00  0.0000E+00
      6.643  0.1941E-01  0.1944E-01  0.1080E-01  0.1081E-01  0.1080E-01  0.1081E-01  0.1080E-01  0.1081E-01  0.0000E+00  0.0000E+00  0.0000E+00  0.0000E+00  0.0000E+00  0.0000E+00  0.0000E+00  0.0000E+00  0.0000E+00  0.0000E+00
      7.062  0.1795E-01  0.1799E-01  0.1066E-01  0.1066E-01  0.1066E-01  0.1066E-01  0.1066E-01  0.1066E-01  0.0000E+00  0.0000E+00  0.0000E+00  0.0000E+00  0.0000E+00  0.0000E+00  0.0000E+00  0.0000E+00  0.0000E+00  0.0000E+00
      7.482  0.1743E-01  0.1744E-01  0.9262E-02  0.9267E-02  0.9262E-02  0.9267E-02  0.9262E-02  0.9267E-02  0.0000E+00  0.0000E+00  0.0000E+00  0.0000E+00  0.0000E+00  0.0000E+00  0.0000E+00  0.0000E+00  0.0000E+00  0.0000E+00
      7.901  0.1390E-01  0.1391E-01  0.8626E-02  0.8626E-02  0.8626E-02  0.8626E-02  0.8626E-02  0.8626E-02  0.0000E+00  0.0000E+00  0.0000E+00  0.0000E+00  0.0000E+00  0.0000E+00  0.0000E+00  0.0000E+00  0.0000E+00  0.0000E+00
      8.320  0.2001E-01  0.2007E-01  0.9175E-02  0.9191E-02  0.9175E-02  0.9191E-02  0.9175E-02  0.9191E-02  0.0000E+00  0.0000E+00  0.0000E+00  0.0000E+00  0.0000E+00  0.0000E+00  0.0000E+00  0.0000E+00  0.0000E+00  0.0000E+00
      8.740  0.2574E-01  0.2577E-01  0.1144E-01  0.1145E-01  0.1144E-01  0.1145E-01  0.1144E-01  0.1145E-01  0.0000E+00  0.0000E+00  0.0000E+00  0.0000E+00  0.0000E+00  0.0000E+00  0.0000E+00  0.0000E+00  0.0000E+00  0.0000E+00
      9.159  0.1907E-01  0.1908E-01  0.9760E-02  0.9767E-02  0.9760E-02  0.9767E-02  0.9760E-02  0.9767E-02  0.0000E+00  0.0000E+00  0.0000E+00  0.0000E+00  0.0000E+00  0.0000E+00  0.0000E+00  0.0000E+00  0.0000E+00  0.0000E+00
      9.578  0.1904E-01  0.1906E-01  0.1020E-01  0.1021E-01  0.1020E-01  0.1021E-01  0.1020E-01  0.1021E-01  0.0000E+00  0.0000E+00  0.0000E+00  0.0000E+00  0.0000E+00  0.0000E+00  0.0000E+00  0.0000E+00  0.0000E+00  0.0000E+00
      9.998  0.1762E-01  0.1763E-01  0.9735E-02  0.9743E-02  0.9735E-02  0.9743E-02  0.9735E-02  0.9743E-02  0.0000E+00  0.0000E+00  0.0000E+00  0.0000E+00  0.0000E+00  0.0000E+00  0.0000E+00  0.0000E+00  0.0000E+00  0.0000E+00
     10.417  0.2553E-01  0.2554E-01  0.1119E-01  0.1120E-01  0.1119E-01  0.1120E-01  0.1119E-01  0.1120E-01  0.0000E+00  0.0000E+00  0.0000E+00  0.0000E+00  0.0000E+00  0.0000E+00  0.0000E+00  0.0000E+00  0.0000E+00  0.0000E+00
     10.836  0.2316E-01  0.2318E-01  0.1212E-01  0.1214E-01  0.1212E-01  0.1214E-01  0.1212E-01  0.1214E-01  0.0000E+00  0.0000E+00  0.0000E+00  0.0000E+00  0.0000E+00  0.0000E+00  0.0000E+00  0.0000E+00  0.0000E+00  0.0000E+00
     11.255  0.2285E-01  0.2285E-01  0.1200E-01  0.1201E-01  0.1200E-01  0.1201E-01  0.1200E-01  0.1201E-01  0.0000E+00  0.0000E+00  0.0000E+00  0.0000E+00  0.0000E+00  0.0000E+00  0.0000E+00  0.0000E+00  0.0000E+00  0.0000E+00
     11.675  0.2215E-01  0.2216E-01  0.1201E-01  0.1202E-01  0.1201E-01  0.1202E-01  0.1201E-01  0.1202E-01  0.0000E+00  0.0000E+00  0.0000E+00  0.0000E+00  0.0000E+00  0.0000E+00  0.0000E+00  0.0000E+00  0.0000E+00  0.0000E+00
     12.094  0.2230E-01  0.2231E-01  0.1305E-01  0.1307E-01  0.1305E-01  0.1307E-01  0.1305E-01  0.1307E-01  0.0000E+00  0.0000E+00  0.0000E+00  0.0000E+00  0.0000E+00  0.0000E+00  0.0000E+00  0.0000E+00  0.0000E+00  0.0000E+00