   7   7   1   0
  0.1322021E+02  0.3871055E-09  0.3871055E-09  0.6755020E-09  0.5000000E-15
   1.0000000000000000E-004
  CAR 
 unknown system                          
     17.67569609    -60.15450177  301     10.05977834      1.00000000
    -60.155  0.0000E+00  0.0000E+00  0.0000E+00  0.0000E+00
    -59.895  0.0000E+00  0.0000E+00  0.0000E+00  0.0000E+00
    -59.636  0.0000E+00  0.0000E+00  0.0000E+00  0.0000E+00
    -59.376  0.0000E+00  0.0000E+00  0.0000E+00  0.0000E+00
    -59.117  0.0000E+00  0.0000E+00  0.0000E+00  0.0000E+00
    -58.857  0.0000E+00  0.0000E+00  0.0000E+00  0.0000E+00
    -58.598  0.0000E+00  0.0000E+00  0.0000E+00  0.0000E+00
    -58.338  0.0000E+00  0.0000E+00  0.0000E+00  0.0000E+00
    -58.079  0.0000E+00  0.0000E+00  0.0000E+00  0.0000E+00
    -57.820  0.0000E+00  0.0000E+00  0.0000E+00  0.0000E+00
    -57.560  0.0000E+00  0.0000E+00  0.0000E+00  0.0000E+00
    -57.301  0.0000E+00  0.0000E+00  0.0000E+00  0.0000E+00
    -57.041  0.0000E+00  0.0000E+00  0.0000E+00  0.0000E+00
    -56.782  0.0000E+00  0.0000E+00  0.0000E+00  0.0000E+00
    -56.522  0.1156E+02  0.0000E+00  0.3000E+01  0.0000E+00
    -56.263  0.0000E+00  0.0000E+00  0.3000E+01  0.0000E+00
    -56.004  0.0000E+00  0.0000E+00  0.3000E+01  0.0000E+00
    -55.744  0.0000E+00  0.0000E+00  0.3000E+01  0.0000E+00
    -55.485  0.0000E+00  0.0000E+00  0.3000E+01  0.0000E+00
    -55.225  0.0000E+00  0.0000E+00  0.3000E+01  0.0000E+00
    -54.966  0.0000E+00  0.0000E+00  0.3000E+01  0.0000E+00
    -54.706  0.0000E+00  0.0000E+00  0.3000E+01  0.0000E+00
    -54.447  0.0000E+00  0.3855E+01  0.3000E+01  0.1000E+01
    -54.188  0.0000E+00  0.7709E+01  0.3000E+01  0.3000E+01
    -53.928  0.0000E+00  0.0000E+00  0.3000E+01  0.3000E+01
    -53.669  0.0000E+00  0.0000E+00  0.3000E+01  0.3000E+01
    -53.409  0.0000E+00  0.0000E+00  0.3000E+01  0.3000E+01
    -53.150  0.0000E+00  0.0000E+00  0.3000E+01  0.3000E+01
    -52.890  0.0000E+00  0.0000E+00  0.3000E+01  0.3000E+01
    -52.631  0.0000E+00  0.0000E+00  0.3000E+01  0.3000E+01
    -52.371  0.0000E+00  0.0000E+00  0.3000E+01  0.3000E+01
    -52.112  0.0000E+00  0.0000E+00  0.3000E+01  0.3000E+01
    -51.853  0.0000E+00  0.0000E+00  0.3000E+01  0.3000E+01
    -51.593  0.0000E+00  0.0000E+00  0.3000E+01  0.3000E+01
    -51.334  0.0000E+00  0.0000E+00  0.3000E+01  0.3000E+01
    -51.074  0.0000E+00  0.0000E+00  0.3000E+01  0.3000E+01
    -50.815  0.0000E+00  0.0000E+00  0.3000E+01  0.3000E+01
    -50.555  0.0000E+00  0.0000E+00  0.3000E+01  0.3000E+01
    -50.296  0.0000E+00  0.0000E+00  0.3000E+01  0.3000E+01
    -50.037  0.0000E+00  0.0000E+00  0.3000E+01  0.3000E+01
    -49.777  0.0000E+00  0.0000E+00  0.3000E+01  0.3000E+01
    -49.518  0.0000E+00  0.0000E+00  0.3000E+01  0.3000E+01
    -49.258  0.0000E+00  0.0000E+00  0.3000E+01  0.3000E+01
    -48.999  0.0000E+00  0.0000E+00  0.3000E+01  0.3000E+01
    -48.739  0.0000E+00  0.0000E+00  0.3000E+01  0.3000E+01
    -48.480  0.0000E+00  0.0000E+00  0.3000E+01  0.3000E+01
    -48.221  0.0000E+00  0.0000E+00  0.3000E+01  0.3000E+01
    -47.961  0.0000E+00  0.0000E+00  0.3000E+01  0.3000E+01
    -47.702  0.0000E+00  0.0000E+00  0.3000E+01  0.3000E+01
    -47.442  0.0000E+00  0.0000E+00  0.3000E+01  0.3000E+01
    -47.183  0.0000E+00  0.0000E+00  0.3000E+01  0.3000E+01
    -46.923  0.0000E+00  0.0000E+00  0.3000E+01  0.3000E+01
    -46.664  0.0000E+00  0.0000E+00  0.3000E+01  0.3000E+01
    -46.405  0.0000E+00  0.0000E+00  0.3000E+01  0.3000E+01
    -46.145  0.0000E+00  0.0000E+00  0.3000E+01  0.3000E+01
    -45.886  0.0000E+00  0.0000E+00  0.3000E+01  0.3000E+01
    -45.626  0.0000E+00  0.0000E+00  0.3000E+01  0.3000E+01
    -45.367  0.0000E+00  0.0000E+00  0.3000E+01  0.3000E+01
    -45.107  0.0000E+00  0.0000E+00  0.3000E+01  0.3000E+01
    -44.848  0.0000E+00  0.0000E+00  0.3000E+01  0.3000E+01
    -44.588  0.0000E+00  0.0000E+00  0.3000E+01  0.3000E+01
    -44.329  0.0000E+00  0.0000E+00  0.3000E+01  0.3000E+01
    -44.070  0.0000E+00  0.0000E+00  0.3000E+01  0.3000E+01
    -43.810  0.0000E+00  0.0000E+00  0.3000E+01  0.3000E+01
    -43.551  0.0000E+00  0.0000E+00  0.3000E+01  0.3000E+01
    -43.291  0.0000E+00  0.0000E+00  0.3000E+01  0.3000E+01
    -43.032  0.0000E+00  0.0000E+00  0.3000E+01  0.3000E+01
    -42.772  0.0000E+00  0.0000E+00  0.3000E+01  0.3000E+01
    -42.513  0.0000E+00  0.0000E+00  0.3000E+01  0.3000E+01
    -42.254  0.0000E+00  0.0000E+00  0.3000E+01  0.3000E+01
    -41.994  0.0000E+00  0.0000E+00  0.3000E+01  0.3000E+01
    -41.735  0.0000E+00  0.0000E+00  0.3000E+01  0.3000E+01
    -41.475  0.0000E+00  0.0000E+00  0.3000E+01  0.3000E+01
    -41.216  0.0000E+00  0.0000E+00  0.3000E+01  0.3000E+01
    -40.956  0.0000E+00  0.0000E+00  0.3000E+01  0.3000E+01
    -40.697  0.0000E+00  0.0000E+00  0.3000E+01  0.3000E+01
    -40.438  0.0000E+00  0.0000E+00  0.3000E+01  0.3000E+01
    -40.178  0.0000E+00  0.0000E+00  0.3000E+01  0.3000E+01
    -39.919  0.0000E+00  0.0000E+00  0.3000E+01  0.3000E+01
    -39.659  0.0000E+00  0.0000E+00  0.3000E+01  0.3000E+01
    -39.400  0.0000E+00  0.0000E+00  0.3000E+01  0.3000E+01
    -39.140  0.0000E+00  0.0000E+00  0.3000E+01  0.3000E+01
    -38.881  0.0000E+00  0.0000E+00  0.3000E+01  0.3000E+01
    -38.621  0.0000E+00  0.0000E+00  0.3000E+01  0.3000E+01
    -38.362  0.0000E+00  0.0000E+00  0.3000E+01  0.3000E+01
    -38.103  0.0000E+00  0.0000E+00  0.3000E+01  0.3000E+01
    -37.843  0.0000E+00  0.0000E+00  0.3000E+01  0.3000E+01
    -37.584  0.0000E+00  0.0000E+00  0.3000E+01  0.3000E+01
    -37.324  0.0000E+00  0.0000E+00  0.3000E+01  0.3000E+01
    -37.065  0.0000E+00  0.0000E+00  0.3000E+01  0.3000E+01
    -36.805  0.0000E+00  0.0000E+00  0.3000E+01  0.3000E+01
    -36.546  0.0000E+00  0.0000E+00  0.3000E+01  0.3000E+01
    -36.287  0.0000E+00  0.0000E+00  0.3000E+01  0.3000E+01
    -36.027  0.0000E+00  0.0000E+00  0.3000E+01  0.3000E+01
    -35.768  0.0000E+00  0.0000E+00  0.3000E+01  0.3000E+01
    -35.508  0.0000E+00  0.0000E+00  0.3000E+01  0.3000E+01
    -35.249  0.0000E+00  0.0000E+00  0.3000E+01  0.3000E+01
    -34.989  0.0000E+00  0.0000E+00  0.3000E+01  0.3000E+01
    -34.730  0.0000E+00  0.0000E+00  0.3000E+01  0.3000E+01
    -34.471  0.0000E+00  0.0000E+00  0.3000E+01  0.3000E+01
    -34.211  0.0000E+00  0.0000E+00  0.3000E+01  0.3000E+01
    -33.952  0.0000E+00  0.0000E+00  0.3000E+01  0.3000E+01
    -33.692  0.0000E+00  0.0000E+00  0.3000E+01  0.3000E+01
    -33.433  0.0000E+00  0.0000E+00  0.3000E+01  0.3000E+01
    -33.173  0.0000E+00  0.0000E+00  0.3000E+01  0.3000E+01
    -32.914  0.0000E+00  0.0000E+00  0.3000E+01  0.3000E+01
    -32.654  0.0000E+00  0.0000E+00  0.3000E+01  0.3000E+01
    -32.395  0.0000E+00  0.0000E+00  0.3000E+01  0.3000E+01
    -32.136  0.0000E+00  0.0000E+00  0.3000E+01  0.3000E+01
    -31.876  0.0000E+00  0.0000E+00  0.3000E+01  0.3000E+01
    -31.617  0.0000E+00  0.0000E+00  0.3000E+01  0.3000E+01
    -31.357  0.0000E+00  0.0000E+00  0.3000E+01  0.3000E+01
    -31.098  0.0000E+00  0.0000E+00  0.3000E+01  0.3000E+01
    -30.838  0.0000E+00  0.0000E+00  0.3000E+01  0.3000E+01
    -30.579  0.0000E+00  0.0000E+00  0.3000E+01  0.3000E+01
    -30.320  0.0000E+00  0.0000E+00  0.3000E+01  0.3000E+01
    -30.060  0.0000E+00  0.0000E+00  0.3000E+01  0.3000E+01
    -29.801  0.0000E+00  0.0000E+00  0.3000E+01  0.3000E+01
    -29.541  0.0000E+00  0.0000E+00  0.3000E+01  0.3000E+01
    -29.282  0.0000E+00  0.0000E+00  0.3000E+01  0.3000E+01
    -29.022  0.0000E+00  0.0000E+00  0.3000E+01  0.3000E+01
    -28.763  0.0000E+00  0.0000E+00  0.3000E+01  0.3000E+01
    -28.504  0.0000E+00  0.0000E+00  0.3000E+01  0.3000E+01
    -28.244  0.0000E+00  0.0000E+00  0.3000E+01  0.3000E+01
    -27.985  0.0000E+00  0.0000E+00  0.3000E+01  0.3000E+01
    -27.725  0.0000E+00  0.0000E+00  0.3000E+01  0.3000E+01
    -27.466  0.0000E+00  0.0000E+00  0.3000E+01  0.3000E+01
    -27.206  0.0000E+00  0.0000E+00  0.3000E+01  0.3000E+01
    -26.947  0.0000E+00  0.0000E+00  0.3000E+01  0.3000E+01
    -26.688  0.0000E+00  0.0000E+00  0.3000E+01  0.3000E+01
    -26.428  0.0000E+00  0.0000E+00  0.3000E+01  0.3000E+01
    -26.169  0.0000E+00  0.0000E+00  0.3000E+01  0.3000E+01
    -25.909  0.0000E+00  0.0000E+00  0.3000E+01  0.3000E+01
    -25.650  0.0000E+00  0.0000E+00  0.3000E+01  0.3000E+01
    -25.390  0.0000E+00  0.0000E+00  0.3000E+01  0.3000E+01
    -25.131  0.0000E+00  0.0000E+00  0.3000E+01  0.3000E+01
    -24.871  0.0000E+00  0.0000E+00  0.3000E+01  0.3000E+01
    -24.612  0.0000E+00  0.0000E+00  0.3000E+01  0.3000E+01
    -24.353  0.0000E+00  0.0000E+00  0.3000E+01  0.3000E+01
    -24.093  0.0000E+00  0.0000E+00  0.3000E+01  0.3000E+01
    -23.834  0.0000E+00  0.0000E+00  0.3000E+01  0.3000E+01
    -23.574  0.0000E+00  0.0000E+00  0.3000E+01  0.3000E+01
    -23.315  0.0000E+00  0.0000E+00  0.3000E+01  0.3000E+01
    -23.055  0.6255E+01  0.6318E+01  0.4050E+01  0.4053E+01
    -22.796  0.3369E+01  0.3369E+01  0.5000E+01  0.5000E+01
    -22.537  0.0000E+00  0.0000E+00  0.5000E+01  0.5000E+01
    -22.277  0.0000E+00  0.0000E+00  0.5000E+01  0.5000E+01
    -22.018  0.0000E+00  0.0000E+00  0.5000E+01  0.5000E+01
    -21.758  0.0000E+00  0.0000E+00  0.5000E+01  0.5000E+01
    -21.499  0.0000E+00  0.0000E+00  0.5000E+01  0.5000E+01
    -21.239  0.0000E+00  0.0000E+00  0.5000E+01  0.5000E+01
    -20.980  0.0000E+00  0.0000E+00  0.5000E+01  0.5000E+01
    -20.721  0.0000E+00  0.0000E+00  0.5000E+01  0.5000E+01
    -20.461  0.0000E+00  0.0000E+00  0.5000E+01  0.5000E+01
    -20.202  0.0000E+00  0.0000E+00  0.5000E+01  0.5000E+01
    -19.942  0.0000E+00  0.0000E+00  0.5000E+01  0.5000E+01
    -19.683  0.0000E+00  0.0000E+00  0.5000E+01  0.5000E+01
    -19.423  0.0000E+00  0.0000E+00  0.5000E+01  0.5000E+01
    -19.164  0.0000E+00  0.0000E+00  0.5000E+01  0.5000E+01
    -18.904  0.0000E+00  0.0000E+00  0.5000E+01  0.5000E+01
    -18.645  0.0000E+00  0.0000E+00  0.5000E+01  0.5000E+01
    -18.386  0.0000E+00  0.0000E+00  0.5000E+01  0.5000E+01
    -18.126  0.0000E+00  0.0000E+00  0.5000E+01  0.5000E+01
    -17.867  0.0000E+00  0.0000E+00  0.5000E+01  0.5000E+01
    -17.607  0.0000E+00  0.0000E+00  0.5000E+01  0.5000E+01
    -17.348  0.0000E+00  0.0000E+00  0.5000E+01  0.5000E+01
    -17.088  0.0000E+00  0.0000E+00  0.5000E+01  0.5000E+01
    -16.829  0.0000E+00  0.0000E+00  0.5000E+01  0.5000E+01
    -16.570  0.0000E+00  0.0000E+00  0.5000E+01  0.5000E+01
    -16.310  0.0000E+00  0.0000E+00  0.5000E+01  0.5000E+01
    -16.051  0.0000E+00  0.0000E+00  0.5000E+01  0.5000E+01
    -15.791  0.0000E+00  0.0000E+00  0.5000E+01  0.5000E+01
    -15.532  0.0000E+00  0.0000E+00  0.5000E+01  0.5000E+01
    -15.272  0.0000E+00  0.0000E+00  0.5000E+01  0.5000E+01
    -15.013  0.0000E+00  0.0000E+00  0.5000E+01  0.5000E+01
    -14.754  0.0000E+00  0.0000E+00  0.5000E+01  0.5000E+01
    -14.494  0.0000E+00  0.0000E+00  0.5000E+01  0.5000E+01
    -14.235  0.0000E+00  0.0000E+00  0.5000E+01  0.5000E+01
    -13.975  0.0000E+00  0.0000E+00  0.5000E+01  0.5000E+01
    -13.716  0.0000E+00  0.0000E+00  0.5000E+01  0.5000E+01
    -13.456  0.0000E+00  0.0000E+00  0.5000E+01  0.5000E+01
    -13.197  0.0000E+00  0.0000E+00  0.5000E+01  0.5000E+01
    -12.938  0.0000E+00  0.0000E+00  0.5000E+01  0.5000E+01
    -12.678  0.0000E+00  0.0000E+00  0.5000E+01  0.5000E+01
    -12.419  0.0000E+00  0.0000E+00  0.5000E+01  0.5000E+01
    -12.159  0.0000E+00  0.0000E+00  0.5000E+01  0.5000E+01
    -11.900  0.0000E+00  0.0000E+00  0.5000E+01  0.5000E+01
    -11.640  0.0000E+00  0.0000E+00  0.5000E+01  0.5000E+01
    -11.381  0.0000E+00  0.0000E+00  0.5000E+01  0.5000E+01
    -11.121  0.1518E+01  0.0000E+00  0.5069E+01  0.5000E+01
    -10.862  0.2560E+01  0.1933E+01  0.5484E+01  0.5227E+01
    -10.603  0.9200E+00  0.1804E+01  0.5856E+01  0.5692E+01
    -10.343  0.1871E+01  0.8571E+00  0.6121E+01  0.5948E+01
    -10.084  0.1749E+01  0.2197E+01  0.6680E+01  0.6458E+01
     -9.824  0.9094E+00  0.1194E+01  0.6899E+01  0.6807E+01
     -9.565  0.4255E+01  0.4753E+01  0.7950E+01  0.7476E+01
     -9.305  0.2822E+01  0.3420E+01  0.8637E+01  0.8197E+01
     -9.046  0.7691E+00  0.1650E+01  0.8979E+01  0.8847E+01
     -8.787  0.0000E+00  0.2098E+00  0.9000E+01  0.9000E+01
     -8.527  0.0000E+00  0.0000E+00  0.9000E+01  0.9000E+01
     -8.268  0.0000E+00  0.0000E+00  0.9000E+01  0.9000E+01
     -8.008  0.0000E+00  0.0000E+00  0.9000E+01  0.9000E+01
     -7.749  0.0000E+00  0.0000E+00  0.9000E+01  0.9000E+01
     -7.489  0.0000E+00  0.0000E+00  0.9000E+01  0.9000E+01
     -7.230  0.1033E+01  0.1020E+01  0.9075E+01  0.9075E+01
     -6.971  0.4102E+01  0.3919E+01  0.9612E+01  0.9602E+01
     -6.711  0.7769E+01  0.8338E+01  0.1108E+02  0.1105E+02
     -6.452  0.5321E+01  0.4809E+01  0.1229E+02  0.1223E+02
     -6.192  0.1490E+01  0.2682E+01  0.1300E+02  0.1296E+02
     -5.933  0.1523E+01  0.1177E+01  0.1317E+02  0.1312E+02
     -5.673  0.8970E+01  0.6939E+01  0.1429E+02  0.1406E+02
     -5.414  0.9702E+00  0.1916E+01  0.1500E+02  0.1500E+02
     -5.154  0.0000E+00  0.0000E+00  0.1500E+02  0.1500E+02
     -4.895  0.0000E+00  0.0000E+00  0.1500E+02  0.1500E+02
     -4.636  0.0000E+00  0.0000E+00  0.1500E+02  0.1500E+02
     -4.376  0.0000E+00  0.0000E+00  0.1500E+02  0.1500E+02
     -4.117  0.0000E+00  0.0000E+00  0.1500E+02  0.1500E+02
     -3.857  0.0000E+00  0.0000E+00  0.1500E+02  0.1500E+02
     -3.598  0.0000E+00  0.0000E+00  0.1500E+02  0.1500E+02
     -3.338  0.0000E+00  0.0000E+00  0.1500E+02  0.1500E+02
     -3.079  0.0000E+00  0.0000E+00  0.1500E+02  0.1500E+02
     -2.820  0.0000E+00  0.0000E+00  0.1500E+02  0.1500E+02
     -2.560  0.0000E+00  0.0000E+00  0.1500E+02  0.1500E+02
     -2.301  0.0000E+00  0.0000E+00  0.1500E+02  0.1500E+02
     -2.041  0.0000E+00  0.0000E+00  0.1500E+02  0.1500E+02
     -1.782  0.0000E+00  0.0000E+00  0.1500E+02  0.1500E+02
     -1.522  0.0000E+00  0.0000E+00  0.1500E+02  0.1500E+02
     -1.263  0.0000E+00  0.0000E+00  0.1500E+02  0.1500E+02
     -1.004  0.0000E+00  0.0000E+00  0.1500E+02  0.1500E+02
     -0.744  0.0000E+00  0.0000E+00  0.1500E+02  0.1500E+02
     -0.485  0.0000E+00  0.0000E+00  0.1500E+02  0.1500E+02
     -0.225  0.0000E+00  0.0000E+00  0.1500E+02  0.1500E+02
      0.034  0.0000E+00  0.0000E+00  0.1500E+02  0.1500E+02
      0.294  0.1600E+01  0.0000E+00  0.1504E+02  0.1500E+02
      0.553  0.1596E+01  0.0000E+00  0.1548E+02  0.1500E+02
      0.812  0.8346E+00  0.0000E+00  0.1571E+02  0.1500E+02
      1.072  0.8428E+00  0.0000E+00  0.1591E+02  0.1500E+02
      1.331  0.6188E+00  0.0000E+00  0.1608E+02  0.1500E+02
      1.591  0.6473E+00  0.3273E+00  0.1624E+02  0.1503E+02
      1.850  0.1852E+01  0.4093E+00  0.1645E+02  0.1512E+02
      2.110  0.2349E+01  0.4189E+00  0.1701E+02  0.1522E+02
      2.369  0.2437E+01  0.5026E+00  0.1748E+02  0.1534E+02
      2.629  0.5341E+01  0.1055E+01  0.1843E+02  0.1553E+02
      2.888  0.4899E+01  0.2448E+01  0.1942E+02  0.1602E+02
      3.147  0.3287E+01  0.3880E+01  0.2040E+02  0.1683E+02
      3.407  0.1168E+01  0.3608E+01  0.2077E+02  0.1770E+02
      3.666  0.3696E+00  0.2361E+01  0.2102E+02  0.1825E+02
      3.926  0.3885E+00  0.2224E+01  0.2107E+02  0.1878E+02
      4.185  0.1332E+01  0.2847E+01  0.2126E+02  0.1956E+02
      4.445  0.2315E+01  0.2175E+01  0.2177E+02  0.2002E+02
      4.704  0.2515E+01  0.2428E+01  0.2236E+02  0.2058E+02
      4.963  0.3279E+01  0.4887E+01  0.2302E+02  0.2159E+02
      5.223  0.6842E+01  0.5650E+01  0.2451E+02  0.2277E+02
      5.482  0.7678E+01  0.4397E+01  0.2566E+02  0.2400E+02
      5.742  0.5611E+01  0.5604E+01  0.2688E+02  0.2498E+02
      6.001  0.5827E+01  0.4824E+01  0.2815E+02  0.2618E+02
      6.261  0.5544E+01  0.4702E+01  0.2940E+02  0.2746E+02
      6.520  0.3303E+01  0.7284E+01  0.3025E+02  0.2872E+02
      6.779  0.1327E+01  0.3036E+01  0.3071E+02  0.2951E+02
      7.039  0.1728E+01  0.3566E+00  0.3111E+02  0.2985E+02
      7.298  0.1015E+01  0.4054E-01  0.3140E+02  0.2986E+02
      7.558  0.5530E+00  0.3912E-01  0.3166E+02  0.2987E+02
      7.817  0.3810E+00  0.3770E-01  0.3177E+02  0.2988E+02
      8.077  0.2590E+00  0.3629E-01  0.3186E+02  0.2989E+02
      8.336  0.2032E+00  0.3487E-01  0.3192E+02  0.2990E+02
      8.596  0.1474E+00  0.3345E-01  0.3197E+02  0.2990E+02
      8.855  0.7866E-01  0.3204E-01  0.3200E+02  0.2991E+02
      9.114  0.0000E+00  0.3062E-01  0.3200E+02  0.2992E+02
      9.374  0.0000E+00  0.2920E-01  0.3200E+02  0.2993E+02
      9.633  0.3586E-02  0.3248E-01  0.3200E+02  0.2994E+02
      9.893  0.6924E-01  0.9901E-01  0.3201E+02  0.2995E+02
     10.152  0.1731E+00  0.1983E+00  0.3204E+02  0.2999E+02
     10.412  0.3059E+00  0.3307E+00  0.3210E+02  0.3006E+02
     10.671  0.3334E+00  0.3591E+00  0.3218E+02  0.3014E+02
     10.930  0.6092E+00  0.7928E+00  0.3229E+02  0.3027E+02
     11.190  0.2707E+01  0.2884E+01  0.3264E+02  0.3066E+02
     11.449  0.5716E+01  0.1010E+02  0.3352E+02  0.3190E+02
     11.709  0.1475E+02  0.1340E+02  0.3490E+02  0.3377E+02
     11.968  0.2611E+02  0.2682E+02  0.3905E+02  0.3779E+02
     12.228  0.2862E+02  0.2891E+02  0.4449E+02  0.4337E+02
     12.487  0.4583E+01  0.4355E+01  0.4613E+02  0.4502E+02
     12.746  0.2785E+01  0.2402E+01  0.4657E+02  0.4550E+02
     13.006  0.3733E+01  0.2357E+01  0.4723E+02  0.4619E+02
     13.265  0.1980E+01  0.3443E+01  0.4780E+02  0.4689E+02
     13.525  0.2156E+00  0.1459E+01  0.4800E+02  0.4742E+02
     13.784  0.0000E+00  0.1238E+01  0.4800E+02  0.4778E+02
     14.044  0.0000E+00  0.1926E+00  0.4800E+02  0.4800E+02
     14.303  0.0000E+00  0.0000E+00  0.4800E+02  0.4800E+02
     14.562  0.0000E+00  0.0000E+00  0.4800E+02  0.4800E+02
     14.822  0.0000E+00  0.0000E+00  0.4800E+02  0.4800E+02
     15.081  0.0000E+00  0.0000E+00  0.4800E+02  0.4800E+02
     15.341  0.0000E+00  0.0000E+00  0.4800E+02  0.4800E+02
     15.600  0.0000E+00  0.0000E+00  0.4800E+02  0.4800E+02
     15.860  0.0000E+00  0.0000E+00  0.4800E+02  0.4800E+02
     16.119  0.0000E+00  0.0000E+00  0.4800E+02  0.4800E+02
     16.379  0.0000E+00  0.0000E+00  0.4800E+02  0.4800E+02
     16.638  0.0000E+00  0.0000E+00  0.4800E+02  0.4800E+02
     16.897  0.0000E+00  0.0000E+00  0.4800E+02  0.4800E+02
     17.157  0.0000E+00  0.0000E+00  0.4800E+02  0.4800E+02
     17.416  0.0000E+00  0.0000E+00  0.4800E+02  0.4800E+02
     17.676  0.0000E+00  0.0000E+00  0.4800E+02  0.4800E+02
     17.67569609    -60.15450177  301     10.05977834      1.00000000
    -60.155  0.0000E+00  0.0000E+00  0.0000E+00  0.0000E+00  0.0000E+00  0.0000E+00  0.0000E+00  0.0000E+00  0.0000E+00  0.0000E+00  0.0000E+00  0.0000E+00  0.0000E+00  0.0000E+00  0.0000E+00  0.0000E+00  0.0000E+00  0.0000E+00  0.0000E+00  0.0000E+00  0.0000E+00  0.0000E+00  0.0000E+00  0.0000E+00  0.0000E+00  0.0000E+00  0.0000E+00  0.0000E+00  0.0000E+00  0.0000E+00  0.0000E+00  0.0000E+00
    -59.895  0.0000E+00  0.0000E+00  0.0000E+00  0.0000E+00  0.0000E+00  0.0000E+00  0.0000E+00  0.0000E+00  0.0000E+00  0.0000E+00  0.0000E+00  0.0000E+00  0.0000E+00  0.0000E+00  0.0000E+00  0.0000E+00  0.0000E+00  0.0000E+00  0.0000E+00  0.0000E+00  0.0000E+00  0.0000E+00  0.0000E+00  0.0000E+00  0.0000E+00  0.0000E+00  0.0000E+00  0.0000E+00  0.0000E+00  0.0000E+00  0.0000E+00  0.0000E+00
    -59.636  0.0000E+00  0.0000E+00  0.0000E+00  0.0000E+00  0.0000E+00  0.0000E+00  0.0000E+00  0.0000E+00  0.0000E+00  0.0000E+00  0.0000E+00  0.0000E+00  0.0000E+00  0.0000E+00  0.0000E+00  0.0000E+00  0.0000E+00  0.0000E+00  0.0000E+00  0.0000E+00  0.0000E+00  0.0000E+00  0.0000E+00  0.0000E+00  0.0000E+00  0.0000E+00  0.0000E+00  0.0000E+00  0.0000E+00  0.0000E+00  0.0000E+00  0.0000E+00
    -59.376  0.0000E+00  0.0000E+00  0.0000E+00  0.0000E+00  0.0000E+00  0.0000E+00  0.0000E+00  0.0000E+00  0.0000E+00  0.0000E+00  0.0000E+00  0.0000E+00  0.0000E+00  0.0000E+00  0.0000E+00  0.0000E+00  0.0000E+00  0.0000E+00  0.0000E+00  0.0000E+00  0.0000E+00  0.0000E+00  0.0000E+00  0.0000E+00  0.0000E+00  0.0000E+00  0.0000E+00  0.0000E+00  0.0000E+00  0.0000E+00  0.0000E+00  0.0000E+00
    -59.117  0.0000E+00  0.0000E+00  0.0000E+00  0.0000E+00  0.0000E+00  0.0000E+00  0.0000E+00  0.0000E+00  0.0000E+00  0.0000E+00  0.0000E+00  0.0000E+00  0.0000E+00  0.0000E+00  0.0000E+00  0.0000E+00  0.0000E+00  0.0000E+00  0.0000E+00  0.0000E+00  0.0000E+00  0.0000E+00  0.0000E+00  0.0000E+00  0.0000E+00  0.0000E+00  0.0000E+00  0.0000E+00  0.0000E+00  0.0000E+00  0.0000E+00  0.0000E+00
    -58.857  0.0000E+00  0.0000E+00  0.0000E+00  0.0000E+00  0.0000E+00  0.0000E+00  0.0000E+00  0.0000E+00  0.0000E+00  0.0000E+00  0.0000E+00  0.0000E+00  0.0000E+00  0.0000E+00  0.0000E+00  0.0000E+00  0.0000E+00  0.0000E+00  0.0000E+00  0.0000E+00  0.0000E+00  0.0000E+00  0.0000E+00  0.0000E+00  0.0000E+00  0.0000E+00  0.0000E+00  0.0000E+00  0.0000E+00  0.0000E+00  0.0000E+00  0.0000E+00
    -58.598  0.0000E+00  0.0000E+00  0.0000E+00  0.0000E+00  0.0000E+00  0.0000E+00  0.0000E+00  0.0000E+00  0.0000E+00  0.0000E+00  0.0000E+00  0.0000E+00  0.0000E+00  0.0000E+00  0.0000E+00  0.0000E+00  0.0000E+00  0.0000E+00  0.0000E+00  0.0000E+00  0.0000E+00  0.0000E+00  0.0000E+00  0.0000E+00  0.0000E+00  0.0000E+00  0.0000E+00  0.0000E+00  0.0000E+00  0.0000E+00  0.0000E+00  0.0000E+00
    -58.338  0.0000E+00  0.0000E+00  0.0000E+00  0.0000E+00  0.0000E+00  0.0000E+00  0.0000E+00  0.0000E+00  0.0000E+00  0.0000E+00  0.0000E+00  0.0000E+00  0.0000E+00  0.0000E+00  0.0000E+00  0.0000E+00  0.0000E+00  0.0000E+00  0.0000E+00  0.0000E+00  0.0000E+00  0.0000E+00  0.0000E+00  0.0000E+00  0.0000E+00  0.0000E+00  0.0000E+00  0.0000E+00  0.0000E+00  0.0000E+00  0.0000E+00  0.0000E+00
    -58.079  0.0000E+00  0.0000E+00  0.0000E+00  0.0000E+00  0.0000E+00  0.0000E+00  0.0000E+00  0.0000E+00  0.0000E+00  0.0000E+00  0.0000E+00  0.0000E+00  0.0000E+00  0.0000E+00  0.0000E+00  0.0000E+00  0.0000E+00  0.0000E+00  0.0000E+00  0.0000E+00  0.0000E+00  0.0000E+00  0.0000E+00  0.0000E+00  0.0000E+00  0.0000E+00  0.0000E+00  0.0000E+00  0.0000E+00  0.0000E+00  0.0000E+00  0.0000E+00
    -57.820  0.0000E+00  0.0000E+00  0.0000E+00  0.0000E+00  0.0000E+00  0.0000E+00  0.0000E+00  0.0000E+00  0.0000E+00  0.0000E+00  0.0000E+00  0.0000E+00  0.0000E+00  0.0000E+00  0.0000E+00  0.0000E+00  0.0000E+00  0.0000E+00  0.0000E+00  0.0000E+00  0.0000E+00  0.0000E+00  0.0000E+00  0.0000E+00  0.0000E+00  0.0000E+00  0.0000E+00  0.0000E+00  0.0000E+00  0.0000E+00  0.0000E+00  0.0000E+00
    -57.560  0.0000E+00  0.0000E+00  0.0000E+00  0.0000E+00  0.0000E+00  0.0000E+00  0.0000E+00  0.0000E+00  0.0000E+00  0.0000E+00  0.0000E+00  0.0000E+00  0.0000E+00  0.0000E+00  0.0000E+00  0.0000E+00  0.0000E+00  0.0000E+00  0.0000E+00  0.0000E+00  0.0000E+00  0.0000E+00  0.0000E+00  0.0000E+00  0.0000E+00  0.0000E+00  0.0000E+00  0.0000E+00  0.0000E+00  0.0000E+00  0.0000E+00  0.0000E+00
    -57.301  0.0000E+00  0.0000E+00  0.0000E+00  0.0000E+00  0.0000E+00  0.0000E+00  0.0000E+00  0.0000E+00  0.0000E+00  0.0000E+00  0.0000E+00  0.0000E+00  0.0000E+00  0.0000E+00  0.0000E+00  0.0000E+00  0.0000E+00  0.0000E+00  0.0000E+00  0.0000E+00  0.0000E+00  0.0000E+00  0.0000E+00  0.0000E+00  0.0000E+00  0.0000E+00  0.0000E+00  0.0000E+00  0.0000E+00  0.0000E+00  0.0000E+00  0.0000E+00
    -57.041  0.0000E+00  0.0000E+00  0.0000E+00  0.0000E+00  0.0000E+00  0.0000E+00  0.0000E+00  0.0000E+00  0.0000E+00  0.0000E+00  0.0000E+00  0.0000E+00  0.0000E+00  0.0000E+00  0.0000E+00  0.0000E+00  0.0000E+00  0.0000E+00  0.0000E+00  0.0000E+00  0.0000E+00  0.0000E+00  0.0000E+00  0.0000E+00  0.0000E+00  0.0000E+00  0.0000E+00  0.0000E+00  0.0000E+00  0.0000E+00  0.0000E+00  0.0000E+00
    -56.782  0.0000E+00  0.0000E+00  0.0000E+00  0.0000E+00  0.0000E+00  0.0000E+00  0.0000E+00  0.0000E+00  0.0000E+00  0.0000E+00  0.0000E+00  0.0000E+00  0.0000E+00  0.0000E+00  0.0000E+00  0.0000E+00  0.0000E+00  0.0000E+00  0.0000E+00  0.0000E+00  0.0000E+00  0.0000E+00  0.0000E+00  0.0000E+00  0.0000E+00  0.0000E+00  0.0000E+00  0.0000E+00  0.0000E+00  0.0000E+00  0.0000E+00  0.0000E+00
    -56.522  0.8790E-06  0.0000E+00  0.4050E-06  0.0000E+00  0.3308E-06  0.0000E+00  0.4050E-06  0.0000E+00  0.7677E-06  0.0000E+00  0.6429E-06  0.0000E+00  0.3432E-07  0.0000E+00  0.6429E-06  0.0000E+00  0.3627E-07  0.0000E+00  0.1215E-06  0.0000E+00  0.5417E-06  0.0000E+00  0.3928E-07  0.0000E+00  0.2061E-06  0.0000E+00  0.3928E-07  0.0000E+00  0.2350E-07  0.0000E+00  0.1215E-06  0.0000E+00
    -56.263  0.0000E+00  0.0000E+00  0.0000E+00  0.0000E+00  0.0000E+00  0.0000E+00  0.0000E+00  0.0000E+00  0.0000E+00  0.0000E+00  0.0000E+00  0.0000E+00  0.0000E+00  0.0000E+00  0.0000E+00  0.0000E+00  0.0000E+00  0.0000E+00  0.0000E+00  0.0000E+00  0.0000E+00  0.0000E+00  0.0000E+00  0.0000E+00  0.0000E+00  0.0000E+00  0.0000E+00  0.0000E+00  0.0000E+00  0.0000E+00  0.0000E+00  0.0000E+00
    -56.004  0.0000E+00  0.0000E+00  0.0000E+00  0.0000E+00  0.0000E+00  0.0000E+00  0.0000E+00  0.0000E+00  0.0000E+00  0.0000E+00  0.0000E+00  0.0000E+00  0.0000E+00  0.0000E+00  0.0000E+00  0.0000E+00  0.0000E+00  0.0000E+00  0.0000E+00  0.0000E+00  0.0000E+00  0.0000E+00  0.0000E+00  0.0000E+00  0.0000E+00  0.0000E+00  0.0000E+00  0.0000E+00  0.0000E+00  0.0000E+00  0.0000E+00  0.0000E+00
    -55.744  0.0000E+00  0.0000E+00  0.0000E+00  0.0000E+00  0.0000E+00  0.0000E+00  0.0000E+00  0.0000E+00  0.0000E+00  0.0000E+00  0.0000E+00  0.0000E+00  0.0000E+00  0.0000E+00  0.0000E+00  0.0000E+00  0.0000E+00  0.0000E+00  0.0000E+00  0.0000E+00  0.0000E+00  0.0000E+00  0.0000E+00  0.0000E+00  0.0000E+00  0.0000E+00  0.0000E+00  0.0000E+00  0.0000E+00  0.0000E+00  0.0000E+00  0.0000E+00
    -55.485  0.0000E+00  0.0000E+00  0.0000E+00  0.0000E+00  0.0000E+00  0.0000E+00  0.0000E+00  0.0000E+00  0.0000E+00  0.0000E+00  0.0000E+00  0.0000E+00  0.0000E+00  0.0000E+00  0.0000E+00  0.0000E+00  0.0000E+00  0.0000E+00  0.0000E+00  0.0000E+00  0.0000E+00  0.0000E+00  0.0000E+00  0.0000E+00  0.0000E+00  0.0000E+00  0.0000E+00  0.0000E+00  0.0000E+00  0.0000E+00  0.0000E+00  0.0000E+00
    -55.225  0.0000E+00  0.0000E+00  0.0000E+00  0.0000E+00  0.0000E+00  0.0000E+00  0.0000E+00  0.0000E+00  0.0000E+00  0.0000E+00  0.0000E+00  0.0000E+00  0.0000E+00  0.0000E+00  0.0000E+00  0.0000E+00  0.0000E+00  0.0000E+00  0.0000E+00  0.0000E+00  0.0000E+00  0.0000E+00  0.0000E+00  0.0000E+00  0.0000E+00  0.0000E+00  0.0000E+00  0.0000E+00  0.0000E+00  0.0000E+00  0.0000E+00  0.0000E+00
    -54.966  0.0000E+00  0.0000E+00  0.0000E+00  0.0000E+00  0.0000E+00  0.0000E+00  0.0000E+00  0.0000E+00  0.0000E+00  0.0000E+00  0.0000E+00  0.0000E+00  0.0000E+00  0.0000E+00  0.0000E+00  0.0000E+00  0.0000E+00  0.0000E+00  0.0000E+00  0.0000E+00  0.0000E+00  0.0000E+00  0.0000E+00  0.0000E+00  0.0000E+00  0.0000E+00  0.0000E+00  0.0000E+00  0.0000E+00  0.0000E+00  0.0000E+00  0.0000E+00
    -54.706  0.0000E+00  0.0000E+00  0.0000E+00  0.0000E+00  0.0000E+00  0.0000E+00  0.0000E+00  0.0000E+00  0.0000E+00  0.0000E+00  0.0000E+00  0.0000E+00  0.0000E+00  0.0000E+00  0.0000E+00  0.0000E+00  0.0000E+00  0.0000E+00  0.0000E+00  0.0000E+00  0.0000E+00  0.0000E+00  0.0000E+00  0.0000E+00  0.0000E+00  0.0000E+00  0.0000E+00  0.0000E+00  0.0000E+00  0.0000E+00  0.0000E+00  0.0000E+00
    -54.447  0.0000E+00  0.3002E-06  0.0000E+00  0.1550E-06  0.0000E+00  0.6701E-07  0.0000E+00  0.1550E-06  0.0000E+00  0.3329E-06  0.0000E+00  0.1496E-06  0.0000E+00  0.4156E-07  0.0000E+00  0.1496E-06  0.0000E+00  0.2962E-09  0.0000E+00  0.5459E-07  0.0000E+00  0.1570E-06  0.0000E+00  0.4880E-09  0.0000E+00  0.7643E-07  0.0000E+00  0.4880E-09  0.0000E+00  0.2366E-09  0.0000E+00  0.5459E-07
    -54.188  0.0000E+00  0.8694E-06  0.0000E+00  0.3770E-06  0.0000E+00  0.3700E-06  0.0000E+00  0.3770E-06  0.0000E+00  0.6184E-06  0.0000E+00  0.6518E-06  0.0000E+00  0.7898E-09  0.0000E+00  0.6518E-06  0.0000E+00  0.4510E-07  0.0000E+00  0.9250E-07  0.0000E+00  0.5001E-06  0.0000E+00  0.4693E-07  0.0000E+00  0.1579E-06  0.0000E+00  0.4693E-07  0.0000E+00  0.2762E-07  0.0000E+00  0.9250E-07
    -53.928  0.0000E+00  0.0000E+00  0.0000E+00  0.0000E+00  0.0000E+00  0.0000E+00  0.0000E+00  0.0000E+00  0.0000E+00  0.0000E+00  0.0000E+00  0.0000E+00  0.0000E+00  0.0000E+00  0.0000E+00  0.0000E+00  0.0000E+00  0.0000E+00  0.0000E+00  0.0000E+00  0.0000E+00  0.0000E+00  0.0000E+00  0.0000E+00  0.0000E+00  0.0000E+00  0.0000E+00  0.0000E+00  0.0000E+00  0.0000E+00  0.0000E+00  0.0000E+00
    -53.669  0.0000E+00  0.0000E+00  0.0000E+00  0.0000E+00  0.0000E+00  0.0000E+00  0.0000E+00  0.0000E+00  0.0000E+00  0.0000E+00  0.0000E+00  0.0000E+00  0.0000E+00  0.0000E+00  0.0000E+00  0.0000E+00  0.0000E+00  0.0000E+00  0.0000E+00  0.0000E+00  0.0000E+00  0.0000E+00  0.0000E+00  0.0000E+00  0.0000E+00  0.0000E+00  0.0000E+00  0.0000E+00  0.0000E+00  0.0000E+00  0.0000E+00  0.0000E+00
    -53.409  0.0000E+00  0.0000E+00  0.0000E+00  0.0000E+00  0.0000E+00  0.0000E+00  0.0000E+00  0.0000E+00  0.0000E+00  0.0000E+00  0.0000E+00  0.0000E+00  0.0000E+00  0.0000E+00  0.0000E+00  0.0000E+00  0.0000E+00  0.0000E+00  0.0000E+00  0.0000E+00  0.0000E+00  0.0000E+00  0.0000E+00  0.0000E+00  0.0000E+00  0.0000E+00  0.0000E+00  0.0000E+00  0.0000E+00  0.0000E+00  0.0000E+00  0.0000E+00
    -53.150  0.0000E+00  0.0000E+00  0.0000E+00  0.0000E+00  0.0000E+00  0.0000E+00  0.0000E+00  0.0000E+00  0.0000E+00  0.0000E+00  0.0000E+00  0.0000E+00  0.0000E+00  0.0000E+00  0.0000E+00  0.0000E+00  0.0000E+00  0.0000E+00  0.0000E+00  0.0000E+00  0.0000E+00  0.0000E+00  0.0000E+00  0.0000E+00  0.0000E+00  0.0000E+00  0.0000E+00  0.0000E+00  0.0000E+00  0.0000E+00  0.0000E+00  0.0000E+00
    -52.890  0.0000E+00  0.0000E+00  0.0000E+00  0.0000E+00  0.0000E+00  0.0000E+00  0.0000E+00  0.0000E+00  0.0000E+00  0.0000E+00  0.0000E+00  0.0000E+00  0.0000E+00  0.0000E+00  0.0000E+00  0.0000E+00  0.0000E+00  0.0000E+00  0.0000E+00  0.0000E+00  0.0000E+00  0.0000E+00  0.0000E+00  0.0000E+00  0.0000E+00  0.0000E+00  0.0000E+00  0.0000E+00  0.0000E+00  0.0000E+00  0.0000E+00  0.0000E+00