       N       E                     dE             d eps       ncg     rms          rms(c)
DAV:   1    -0.356259463025E+01   -0.35626E+01   -0.10216E+03 13584   0.430E+01
DAV:   2    -0.368283033313E+01   -0.12024E+00   -0.12126E+00 16320   0.167E+00
DAV:   3    -0.368283845607E+01   -0.81229E-05   -0.82359E-05 11904   0.141E-02
DAV:   4    -0.368283845545E+01    0.61800E-09   -0.79099E-10 19392   0.384E-05
DAV:   5    -0.368283845545E+01    0.30980E-11    0.28170E-13 11520   0.750E-09    0.176E+00
RMM:   6    -0.375446306383E+01   -0.71625E-01   -0.25990E-03 10756   0.826E-02    0.832E-01
RMM:   7    -0.374606395380E+01    0.83991E-02   -0.10473E-03 11175   0.509E-02    0.674E-01
RMM:   8    -0.374599225944E+01    0.71694E-04   -0.21886E-04 11107   0.262E-02    0.218E-01
RMM:   9    -0.374599430619E+01   -0.20467E-05   -0.30890E-05 11603   0.885E-03
   1 F= -.37459943E+01 E0= -.37459943E+01  d E =0.000000E+00  mag=     0.0016
