   1   1   1   0
  0.1658294E+02  0.2862368E-09  0.2862368E-09  0.2862368E-09  0.5000000E-15
   1.0000000000000000E-004
  CAR 
 unknown system                          
    116.45529420     -8.84859938  301      7.97948202      1.00000000
     -8.849  0.0000E+00  0.0000E+00  0.0000E+00  0.0000E+00
     -8.431  0.0000E+00  0.0000E+00  0.0000E+00  0.0000E+00
     -8.013  0.0000E+00  0.0000E+00  0.0000E+00  0.0000E+00
     -7.596  0.0000E+00  0.0000E+00  0.0000E+00  0.0000E+00
     -7.178  0.0000E+00  0.0000E+00  0.0000E+00  0.0000E+00
     -6.760  0.0000E+00  0.0000E+00  0.0000E+00  0.0000E+00
     -6.343  0.0000E+00  0.0000E+00  0.0000E+00  0.0000E+00
     -5.925  0.0000E+00  0.0000E+00  0.0000E+00  0.0000E+00
     -5.507  0.0000E+00  0.0000E+00  0.0000E+00  0.0000E+00
     -5.089  0.0000E+00  0.0000E+00  0.0000E+00  0.0000E+00
     -4.672  0.0000E+00  0.0000E+00  0.0000E+00  0.0000E+00
     -4.254  0.0000E+00  0.0000E+00  0.0000E+00  0.0000E+00
     -3.836  0.0000E+00  0.0000E+00  0.0000E+00  0.0000E+00
     -3.419  0.0000E+00  0.0000E+00  0.0000E+00  0.0000E+00
     -3.001  0.2165E-01  0.2148E-01  0.1372E-02  0.1401E-02
     -2.583  0.4453E-01  0.4459E-01  0.1464E-01  0.1469E-01
     -2.166  0.5668E-01  0.5671E-01  0.3540E-01  0.3548E-01
     -1.748  0.6858E-01  0.6862E-01  0.6140E-01  0.6150E-01
     -1.330  0.7797E-01  0.7800E-01  0.9217E-01  0.9227E-01
     -0.913  0.8781E-01  0.8785E-01  0.1267E+00  0.1268E+00
     -0.495  0.9536E-01  0.9538E-01  0.1651E+00  0.1652E+00
     -0.077  0.1034E+00  0.1034E+00  0.2066E+00  0.2067E+00
      0.340  0.1110E+00  0.1110E+00  0.2515E+00  0.2516E+00
      0.758  0.1175E+00  0.1175E+00  0.2992E+00  0.2993E+00
      1.176  0.1247E+00  0.1247E+00  0.3497E+00  0.3499E+00
      1.593  0.1310E+00  0.1311E+00  0.4032E+00  0.4034E+00
      2.011  0.1372E+00  0.1372E+00  0.4592E+00  0.4594E+00
      2.429  0.1443E+00  0.1443E+00  0.5180E+00  0.5181E+00
      2.846  0.1598E+00  0.1599E+00  0.5810E+00  0.5812E+00
      3.264  0.1656E+00  0.1656E+00  0.6504E+00  0.6506E+00
      3.682  0.1548E+00  0.1538E+00  0.7199E+00  0.7201E+00
      4.099  0.1538E+00  0.1539E+00  0.7804E+00  0.7806E+00
      4.517  0.1774E+00  0.1773E+00  0.8528E+00  0.8530E+00
      4.935  0.1974E+00  0.1979E+00  0.9310E+00  0.9313E+00
      5.353  0.1834E+00  0.1834E+00  0.1012E+01  0.1012E+01
      5.770  0.1914E+00  0.1910E+00  0.1088E+01  0.1088E+01
      6.188  0.1674E+00  0.1674E+00  0.1157E+01  0.1157E+01
      6.606  0.1853E+00  0.1855E+00  0.1230E+01  0.1231E+01
      7.023  0.1957E+00  0.1957E+00  0.1311E+01  0.1311E+01
      7.441  0.2135E+00  0.2134E+00  0.1397E+01  0.1397E+01
      7.859  0.1749E+00  0.1751E+00  0.1478E+01  0.1479E+01
      8.276  0.2150E+00  0.2148E+00  0.1559E+01  0.1560E+01
      8.694  0.2067E+00  0.2066E+00  0.1648E+01  0.1648E+01
      9.112  0.2049E+00  0.2049E+00  0.1735E+01  0.1735E+01
      9.529  0.2292E+00  0.2293E+00  0.1824E+01  0.1824E+01
      9.947  0.2212E+00  0.2212E+00  0.1919E+01  0.1919E+01
     10.365  0.2277E+00  0.2278E+00  0.2011E+01  0.2011E+01
     10.782  0.2419E+00  0.2427E+00  0.2107E+01  0.2108E+01
     11.200  0.2340E+00  0.2341E+00  0.2205E+01  0.2205E+01
     11.618  0.2477E+00  0.2478E+00  0.2306E+01  0.2307E+01
     12.035  0.2417E+00  0.2417E+00  0.2409E+01  0.2409E+01
     12.453  0.2591E+00  0.2590E+00  0.2512E+01  0.2512E+01
     12.871  0.2762E+00  0.2763E+00  0.2623E+01  0.2624E+01
     13.288  0.2885E+00  0.2886E+00  0.2741E+01  0.2741E+01
     13.706  0.2991E+00  0.2991E+00  0.2867E+01  0.2867E+01
     14.124  0.2831E+00  0.2830E+00  0.2989E+01  0.2989E+01
     14.541  0.2731E+00  0.2730E+00  0.3105E+01  0.3106E+01
     14.959  0.2671E+00  0.2671E+00  0.3218E+01  0.3218E+01
     15.377  0.2628E+00  0.2628E+00  0.3327E+01  0.3328E+01
     15.794  0.2639E+00  0.2639E+00  0.3438E+01  0.3438E+01
     16.212  0.2617E+00  0.2617E+00  0.3548E+01  0.3548E+01
     16.630  0.2642E+00  0.2642E+00  0.3657E+01  0.3658E+01
     17.048  0.2634E+00  0.2634E+00  0.3768E+01  0.3768E+01
     17.465  0.2653E+00  0.2654E+00  0.3878E+01  0.3879E+01
     17.883  0.2750E+00  0.2751E+00  0.3991E+01  0.3991E+01
     18.301  0.2885E+00  0.2886E+00  0.4108E+01  0.4109E+01
     18.718  0.2979E+00  0.2982E+00  0.4230E+01  0.4231E+01
     19.136  0.3116E+00  0.3117E+00  0.4359E+01  0.4360E+01
     19.554  0.3632E+00  0.3635E+00  0.4498E+01  0.4499E+01
     19.971  0.4116E+00  0.4119E+00  0.4661E+01  0.4662E+01
     20.389  0.3298E+00  0.3294E+00  0.4821E+01  0.4822E+01
     20.807  0.3091E+00  0.3095E+00  0.4949E+01  0.4950E+01
     21.224  0.2824E+00  0.2822E+00  0.5077E+01  0.5078E+01
     21.642  0.2376E+00  0.2377E+00  0.5184E+01  0.5185E+01
     22.060  0.2946E+00  0.2962E+00  0.5289E+01  0.5290E+01
     22.477  0.3518E+00  0.3516E+00  0.5432E+01  0.5433E+01
     22.895  0.3950E+00  0.3955E+00  0.5584E+01  0.5585E+01
     23.313  0.3920E+00  0.3917E+00  0.5751E+01  0.5752E+01
     23.730  0.2860E+00  0.2855E+00  0.5895E+01  0.5896E+01
     24.148  0.2691E+00  0.2696E+00  0.6007E+01  0.6008E+01
     24.566  0.3500E+00  0.3488E+00  0.6135E+01  0.6136E+01
     24.983  0.3832E+00  0.3831E+00  0.6280E+01  0.6281E+01
     25.401  0.4028E+00  0.4031E+00  0.6447E+01  0.6448E+01
     25.819  0.4254E+00  0.4243E+00  0.6623E+01  0.6625E+01
     26.236  0.3751E+00  0.3754E+00  0.6782E+01  0.6783E+01
     26.654  0.3622E+00  0.3616E+00  0.6942E+01  0.6943E+01
     27.072  0.3619E+00  0.3619E+00  0.7089E+01  0.7090E+01
     27.490  0.3138E+00  0.3129E+00  0.7236E+01  0.7237E+01
     27.907  0.3069E+00  0.3073E+00  0.7360E+01  0.7361E+01
     28.325  0.3772E+00  0.3789E+00  0.7499E+01  0.7501E+01
     28.743  0.4954E+00  0.4920E+00  0.7693E+01  0.7695E+01
     29.160  0.3852E+00  0.3854E+00  0.7860E+01  0.7861E+01
     29.578  0.4037E+00  0.4036E+00  0.8025E+01  0.8027E+01
     29.996  0.4611E+00  0.4612E+00  0.8201E+01  0.8202E+01
     30.413  0.3900E+00  0.3897E+00  0.8377E+01  0.8378E+01
     30.831  0.3491E+00  0.3493E+00  0.8530E+01  0.8531E+01
     31.249  0.4347E+00  0.4347E+00  0.8694E+01  0.8695E+01
     31.666  0.4385E+00  0.4384E+00  0.8871E+01  0.8872E+01
     32.084  0.4381E+00  0.4382E+00  0.9053E+01  0.9055E+01
     32.502  0.4356E+00  0.4351E+00  0.9238E+01  0.9240E+01
     32.919  0.4004E+00  0.3991E+00  0.9412E+01  0.9413E+01
     33.337  0.3108E+00  0.3110E+00  0.9558E+01  0.9560E+01
     33.755  0.3158E+00  0.3161E+00  0.9687E+01  0.9688E+01
     34.172  0.3512E+00  0.3633E+00  0.9812E+01  0.9814E+01
     34.590  0.2101E+00  0.2092E+00  0.9916E+01  0.9916E+01
     35.008  0.1679E+00  0.1679E+00  0.9992E+01  0.9992E+01
     35.425  0.1758E+00  0.1758E+00  0.1006E+02  0.1006E+02
     35.843  0.1808E+00  0.1808E+00  0.1014E+02  0.1014E+02
     36.261  0.2110E+00  0.2109E+00  0.1022E+02  0.1022E+02
     36.678  0.2454E+00  0.2455E+00  0.1032E+02  0.1032E+02
     37.096  0.2681E+00  0.2682E+00  0.1042E+02  0.1042E+02
     37.514  0.2947E+00  0.2948E+00  0.1054E+02  0.1054E+02
     37.932  0.3105E+00  0.3106E+00  0.1067E+02  0.1067E+02
     38.349  0.3389E+00  0.3390E+00  0.1080E+02  0.1080E+02
     38.767  0.3290E+00  0.3288E+00  0.1095E+02  0.1095E+02
     39.185  0.3297E+00  0.3298E+00  0.1108E+02  0.1108E+02
     39.602  0.3991E+00  0.3994E+00  0.1123E+02  0.1123E+02
     40.020  0.6142E+00  0.6145E+00  0.1144E+02  0.1144E+02
     40.438  0.4704E+00  0.4705E+00  0.1166E+02  0.1166E+02
     40.855  0.5589E+00  0.5579E+00  0.1188E+02  0.1188E+02
     41.273  0.5502E+00  0.5501E+00  0.1211E+02  0.1211E+02
     41.691  0.3972E+00  0.3970E+00  0.1231E+02  0.1232E+02
     42.108  0.4119E+00  0.4126E+00  0.1249E+02  0.1249E+02
     42.526  0.4312E+00  0.4317E+00  0.1266E+02  0.1266E+02
     42.944  0.5536E+00  0.5537E+00  0.1286E+02  0.1286E+02
     43.361  0.5347E+00  0.5355E+00  0.1308E+02  0.1308E+02
     43.779  0.5038E+00  0.5017E+00  0.1330E+02  0.1330E+02
     44.197  0.4304E+00  0.4302E+00  0.1350E+02  0.1350E+02
     44.614  0.3909E+00  0.3907E+00  0.1367E+02  0.1367E+02
     45.032  0.4181E+00  0.4187E+00  0.1383E+02  0.1383E+02
     45.450  0.4542E+00  0.4543E+00  0.1402E+02  0.1402E+02
     45.867  0.4757E+00  0.4757E+00  0.1421E+02  0.1421E+02
     46.285  0.5899E+00  0.5899E+00  0.1443E+02  0.1443E+02
     46.703  0.4887E+00  0.4884E+00  0.1465E+02  0.1466E+02
     47.120  0.4926E+00  0.4948E+00  0.1484E+02  0.1484E+02
     47.538  0.4262E+00  0.4264E+00  0.1502E+02  0.1502E+02
     47.956  0.4988E+00  0.4994E+00  0.1521E+02  0.1521E+02
     48.374  0.4923E+00  0.4924E+00  0.1541E+02  0.1542E+02
     48.791  0.4958E+00  0.4959E+00  0.1562E+02  0.1562E+02
     49.209  0.4421E+00  0.4422E+00  0.1582E+02  0.1582E+02
     49.627  0.4796E+00  0.4818E+00  0.1601E+02  0.1601E+02
     50.044  0.4015E+00  0.4006E+00  0.1620E+02  0.1620E+02
     50.462  0.3054E+00  0.3066E+00  0.1633E+02  0.1633E+02
     50.880  0.4926E+00  0.4931E+00  0.1651E+02  0.1651E+02
     51.297  0.5131E+00  0.5130E+00  0.1673E+02  0.1673E+02
     51.715  0.6731E+00  0.6720E+00  0.1696E+02  0.1697E+02
     52.133  0.4354E+00  0.4358E+00  0.1716E+02  0.1716E+02
     52.550  0.4480E+00  0.4473E+00  0.1737E+02  0.1737E+02
     52.968  0.5952E+00  0.5964E+00  0.1756E+02  0.1756E+02
     53.386  0.7817E+00  0.7810E+00  0.1788E+02  0.1788E+02
     53.803  0.9259E+00  0.9258E+00  0.1822E+02  0.1822E+02
     54.221  0.8332E+00  0.8332E+00  0.1860E+02  0.1860E+02
     54.639  0.9359E+00  0.9356E+00  0.1895E+02  0.1895E+02
     55.056  0.1077E+01  0.1078E+01  0.1938E+02  0.1938E+02
     55.474  0.1054E+01  0.1053E+01  0.1983E+02  0.1983E+02
     55.892  0.1365E+01  0.1367E+01  0.2033E+02  0.2033E+02
     56.309  0.1520E+01  0.1513E+01  0.2094E+02  0.2094E+02
     56.727  0.1051E+01  0.1054E+01  0.2138E+02  0.2138E+02
     57.145  0.1045E+01  0.1043E+01  0.2187E+02  0.2187E+02
     57.562  0.9373E+00  0.9397E+00  0.2224E+02  0.2224E+02
     57.980  0.5311E+00  0.5302E+00  0.2255E+02  0.2255E+02
     58.398  0.5663E+00  0.5665E+00  0.2277E+02  0.2277E+02
     58.816  0.6706E+00  0.6860E+00  0.2302E+02  0.2302E+02
     59.233  0.9776E+00  0.9769E+00  0.2337E+02  0.2337E+02
     59.651  0.8084E+00  0.8065E+00  0.2376E+02  0.2376E+02
     60.069  0.5099E+00  0.5103E+00  0.2400E+02  0.2400E+02
     60.486  0.5386E+00  0.5386E+00  0.2422E+02  0.2422E+02
     60.904  0.5850E+00  0.5850E+00  0.2446E+02  0.2446E+02
     61.322  0.6124E+00  0.6129E+00  0.2471E+02  0.2471E+02
     61.739  0.7599E+00  0.7605E+00  0.2499E+02  0.2499E+02
     62.157  0.6047E+00  0.6040E+00  0.2527E+02  0.2527E+02
     62.575  0.5140E+00  0.5136E+00  0.2549E+02  0.2549E+02
     62.992  0.5373E+00  0.5373E+00  0.2571E+02  0.2571E+02
     63.410  0.5177E+00  0.5178E+00  0.2593E+02  0.2593E+02
     63.828  0.4675E+00  0.4672E+00  0.2615E+02  0.2615E+02
     64.245  0.4170E+00  0.4174E+00  0.2633E+02  0.2633E+02
     64.663  0.5140E+00  0.5139E+00  0.2652E+02  0.2653E+02
     65.081  0.5368E+00  0.5368E+00  0.2674E+02  0.2674E+02
     65.498  0.4616E+00  0.4616E+00  0.2695E+02  0.2695E+02
     65.916  0.5599E+00  0.5604E+00  0.2716E+02  0.2716E+02
     66.334  0.5291E+00  0.5287E+00  0.2739E+02  0.2739E+02
     66.751  0.4264E+00  0.4263E+00  0.2759E+02  0.2759E+02
     67.169  0.4451E+00  0.4451E+00  0.2777E+02  0.2777E+02
     67.587  0.4640E+00  0.4638E+00  0.2795E+02  0.2795E+02
     68.004  0.4971E+00  0.4971E+00  0.2815E+02  0.2816E+02
     68.422  0.4863E+00  0.4861E+00  0.2837E+02  0.2837E+02
     68.840  0.4137E+00  0.4136E+00  0.2855E+02  0.2855E+02
     69.257  0.3872E+00  0.3871E+00  0.2872E+02  0.2872E+02
     69.675  0.3909E+00  0.3909E+00  0.2888E+02  0.2888E+02
     70.093  0.4405E+00  0.4407E+00  0.2905E+02  0.2905E+02
     70.511  0.5081E+00  0.5120E+00  0.2926E+02  0.2926E+02
     70.928  0.4951E+00  0.4880E+00  0.2947E+02  0.2947E+02
     71.346  0.6296E+00  0.6286E+00  0.2969E+02  0.2969E+02
     71.764  0.5755E+00  0.5760E+00  0.2993E+02  0.2994E+02
     72.181  0.4943E+00  0.4941E+00  0.3017E+02  0.3017E+02
     72.599  0.5397E+00  0.5393E+00  0.3039E+02  0.3039E+02
     73.017  0.4513E+00  0.4510E+00  0.3060E+02  0.3060E+02
     73.434  0.3980E+00  0.3980E+00  0.3077E+02  0.3077E+02
     73.852  0.3924E+00  0.3926E+00  0.3093E+02  0.3093E+02
     74.270  0.4228E+00  0.4228E+00  0.3110E+02  0.3110E+02
     74.687  0.4485E+00  0.4484E+00  0.3129E+02  0.3129E+02
     75.105  0.4404E+00  0.4405E+00  0.3147E+02  0.3147E+02
     75.523  0.4205E+00  0.4206E+00  0.3165E+02  0.3165E+02
     75.940  0.4678E+00  0.4682E+00  0.3184E+02  0.3184E+02
     76.358  0.5687E+00  0.5687E+00  0.3206E+02  0.3206E+02
     76.776  0.5614E+00  0.5613E+00  0.3229E+02  0.3229E+02
     77.193  0.5293E+00  0.5297E+00  0.3252E+02  0.3252E+02
     77.611  0.5152E+00  0.5155E+00  0.3273E+02  0.3273E+02
     78.029  0.5886E+00  0.5889E+00  0.3296E+02  0.3296E+02
     78.446  0.6604E+00  0.6608E+00  0.3321E+02  0.3321E+02
     78.864  0.6816E+00  0.6795E+00  0.3350E+02  0.3350E+02
     79.282  0.3518E+00  0.3511E+00  0.3369E+02  0.3369E+02
     79.699  0.4018E+00  0.4020E+00  0.3384E+02  0.3384E+02
     80.117  0.7074E+00  0.7059E+00  0.3407E+02  0.3407E+02
     80.535  0.7858E+00  0.7853E+00  0.3438E+02  0.3438E+02
     80.953  0.6332E+00  0.6328E+00  0.3467E+02  0.3467E+02
     81.370  0.5406E+00  0.5404E+00  0.3491E+02  0.3491E+02
     81.788  0.5695E+00  0.5691E+00  0.3514E+02  0.3514E+02
     82.206  0.5399E+00  0.5392E+00  0.3538E+02  0.3538E+02
     82.623  0.4874E+00  0.4876E+00  0.3559E+02  0.3559E+02
     83.041  0.5052E+00  0.5055E+00  0.3579E+02  0.3579E+02
     83.459  0.6000E+00  0.5999E+00  0.3601E+02  0.3601E+02
     83.876  0.5215E+00  0.5216E+00  0.3624E+02  0.3624E+02
     84.294  0.4838E+00  0.4836E+00  0.3645E+02  0.3645E+02
     84.712  0.4474E+00  0.4471E+00  0.3665E+02  0.3665E+02
     85.129  0.4608E+00  0.4608E+00  0.3683E+02  0.3683E+02
     85.547  0.5473E+00  0.5468E+00  0.3704E+02  0.3704E+02
     85.965  0.5583E+00  0.5586E+00  0.3726E+02  0.3726E+02
     86.382  0.6174E+00  0.6180E+00  0.3750E+02  0.3750E+02
     86.800  0.6501E+00  0.6515E+00  0.3776E+02  0.3776E+02
     87.218  0.6523E+00  0.6523E+00  0.3802E+02  0.3802E+02
     87.635  0.5667E+00  0.5665E+00  0.3829E+02  0.3829E+02
     88.053  0.5243E+00  0.5241E+00  0.3852E+02  0.3852E+02
     88.471  0.4806E+00  0.4807E+00  0.3873E+02  0.3873E+02
     88.888  0.6811E+00  0.6816E+00  0.3896E+02  0.3897E+02
     89.306  0.6480E+00  0.6486E+00  0.3924E+02  0.3924E+02
     89.724  0.4926E+00  0.4917E+00  0.3949E+02  0.3950E+02
     90.141  0.4191E+00  0.4190E+00  0.3968E+02  0.3968E+02
     90.559  0.4210E+00  0.4209E+00  0.3985E+02  0.3985E+02
     90.977  0.4985E+00  0.4988E+00  0.4004E+02  0.4004E+02
     91.395  0.5829E+00  0.5830E+00  0.4027E+02  0.4027E+02
     91.812  0.5708E+00  0.5711E+00  0.4050E+02  0.4051E+02
     92.230  0.6637E+00  0.6642E+00  0.4076E+02  0.4076E+02
     92.648  0.6500E+00  0.6497E+00  0.4104E+02  0.4104E+02
     93.065  0.5910E+00  0.5909E+00  0.4130E+02  0.4130E+02
     93.483  0.4770E+00  0.4771E+00  0.4152E+02  0.4152E+02
     93.901  0.6143E+00  0.6140E+00  0.4174E+02  0.4174E+02
     94.318  0.4765E+00  0.4765E+00  0.4198E+02  0.4198E+02
     94.736  0.5027E+00  0.5028E+00  0.4218E+02  0.4218E+02
     95.154  0.5628E+00  0.5630E+00  0.4241E+02  0.4241E+02
     95.571  0.6721E+00  0.6731E+00  0.4267E+02  0.4267E+02
     95.989  0.6580E+00  0.6578E+00  0.4295E+02  0.4295E+02
     96.407  0.6506E+00  0.6506E+00  0.4323E+02  0.4323E+02
     96.824  0.6479E+00  0.6451E+00  0.4350E+02  0.4350E+02
     97.242  0.6147E+00  0.6141E+00  0.4375E+02  0.4375E+02
     97.660  0.5132E+00  0.5130E+00  0.4398E+02  0.4398E+02
     98.077  0.4639E+00  0.4638E+00  0.4418E+02  0.4418E+02
     98.495  0.4627E+00  0.4630E+00  0.4437E+02  0.4438E+02
     98.913  0.4962E+00  0.4964E+00  0.4457E+02  0.4457E+02
     99.330  0.5858E+00  0.5860E+00  0.4480E+02  0.4480E+02
     99.748  0.5544E+00  0.5544E+00  0.4503E+02  0.4503E+02
    100.166  0.7535E+00  0.7537E+00  0.4530E+02  0.4530E+02
    100.583  0.6505E+00  0.6471E+00  0.4559E+02  0.4559E+02
    101.001  0.5721E+00  0.5720E+00  0.4586E+02  0.4586E+02
    101.419  0.5201E+00  0.5199E+00  0.4609E+02  0.4609E+02
    101.837  0.5098E+00  0.5099E+00  0.4630E+02  0.4630E+02
    102.254  0.5688E+00  0.5688E+00  0.4652E+02  0.4652E+02
    102.672  0.5114E+00  0.5116E+00  0.4675E+02  0.4675E+02
    103.090  0.4834E+00  0.4834E+00  0.4696E+02  0.4696E+02
    103.507  0.4392E+00  0.4390E+00  0.4716E+02  0.4716E+02
    103.925  0.3529E+00  0.3530E+00  0.4731E+02  0.4731E+02
    104.343  0.3644E+00  0.3647E+00  0.4746E+02  0.4746E+02
    104.760  0.3283E+00  0.3285E+00  0.4761E+02  0.4761E+02
    105.178  0.3044E+00  0.3048E+00  0.4774E+02  0.4774E+02
    105.596  0.2632E+00  0.2616E+00  0.4787E+02  0.4787E+02
    106.013  0.7220E-01  0.7170E-01  0.4794E+02  0.4794E+02
    106.431  0.2619E-01  0.2609E-01  0.4796E+02  0.4796E+02
    106.849  0.1498E-01  0.1495E-01  0.4797E+02  0.4797E+02
    107.266  0.1164E-01  0.1164E-01  0.4797E+02  0.4797E+02
    107.684  0.1033E-01  0.1033E-01  0.4798E+02  0.4798E+02
    108.102  0.9437E-02  0.9435E-02  0.4798E+02  0.4798E+02
    108.519  0.8960E-02  0.8959E-02  0.4799E+02  0.4799E+02
    108.937  0.8900E-02  0.8900E-02  0.4799E+02  0.4799E+02
    109.355  0.9095E-02  0.9091E-02  0.4799E+02  0.4799E+02
    109.772  0.7592E-02  0.7559E-02  0.4800E+02  0.4800E+02
    110.190  0.1454E-02  0.1446E-02  0.4800E+02  0.4800E+02
    110.608  0.1034E-03  0.1015E-03  0.4800E+02  0.4800E+02
    111.025  0.0000E+00  0.0000E+00  0.4800E+02  0.4800E+02
    111.443  0.0000E+00  0.0000E+00  0.4800E+02  0.4800E+02
    111.861  0.0000E+00  0.0000E+00  0.4800E+02  0.4800E+02
    112.278  0.0000E+00  0.0000E+00  0.4800E+02  0.4800E+02
    112.696  0.0000E+00  0.0000E+00  0.4800E+02  0.4800E+02
    113.114  0.0000E+00  0.0000E+00  0.4800E+02  0.4800E+02
    113.532  0.0000E+00  0.0000E+00  0.4800E+02  0.4800E+02
    113.949  0.0000E+00  0.0000E+00  0.4800E+02  0.4800E+02
    114.367  0.0000E+00  0.0000E+00  0.4800E+02  0.4800E+02
    114.785  0.0000E+00  0.0000E+00  0.4800E+02  0.4800E+02
    115.202  0.0000E+00  0.0000E+00  0.4800E+02  0.4800E+02
    115.620  0.0000E+00  0.0000E+00  0.4800E+02  0.4800E+02
    116.038  0.0000E+00  0.0000E+00  0.4800E+02  0.4800E+02
    116.455  0.0000E+00  0.0000E+00  0.4800E+02  0.4800E+02
    116.45529420     -8.84859938  301      7.97948202      1.00000000
     -8.849  0.0000E+00  0.0000E+00  0.0000E+00  0.0000E+00  0.0000E+00  0.0000E+00  0.0000E+00  0.0000E+00  0.0000E+00  0.0000E+00  0.0000E+00  0.0000E+00  0.0000E+00  0.0000E+00  0.0000E+00  0.0000E+00  0.0000E+00  0.0000E+00
     -8.431  0.0000E+00  0.0000E+00  0.0000E+00  0.0000E+00  0.0000E+00  0.0000E+00  0.0000E+00  0.0000E+00  0.0000E+00  0.0000E+00  0.0000E+00  0.0000E+00  0.0000E+00  0.0000E+00  0.0000E+00  0.0000E+00  0.0000E+00  0.0000E+00
     -8.013  0.0000E+00  0.0000E+00  0.0000E+00  0.0000E+00  0.0000E+00  0.0000E+00  0.0000E+00  0.0000E+00  0.0000E+00  0.0000E+00  0.0000E+00  0.0000E+00  0.0000E+00  0.0000E+00  0.0000E+00  0.0000E+00  0.0000E+00  0.0000E+00
     -7.596  0.0000E+00  0.0000E+00  0.0000E+00  0.0000E+00  0.0000E+00  0.0000E+00  0.0000E+00  0.0000E+00  0.0000E+00  0.0000E+00  0.0000E+00  0.0000E+00  0.0000E+00  0.0000E+00  0.0000E+00  0.0000E+00  0.0000E+00  0.0000E+00
     -7.178  0.0000E+00  0.0000E+00  0.0000E+00  0.0000E+00  0.0000E+00  0.0000E+00  0.0000E+00  0.0000E+00  0.0000E+00  0.0000E+00  0.0000E+00  0.0000E+00  0.0000E+00  0.0000E+00  0.0000E+00  0.0000E+00  0.0000E+00  0.0000E+00
     -6.760  0.0000E+00  0.0000E+00  0.0000E+00  0.0000E+00  0.0000E+00  0.0000E+00  0.0000E+00  0.0000E+00  0.0000E+00  0.0000E+00  0.0000E+00  0.0000E+00  0.0000E+00  0.0000E+00  0.0000E+00  0.0000E+00  0.0000E+00  0.0000E+00
     -6.343  0.0000E+00  0.0000E+00  0.0000E+00  0.0000E+00  0.0000E+00  0.0000E+00  0.0000E+00  0.0000E+00  0.0000E+00  0.0000E+00  0.0000E+00  0.0000E+00  0.0000E+00  0.0000E+00  0.0000E+00  0.0000E+00  0.0000E+00  0.0000E+00
     -5.925  0.0000E+00  0.0000E+00  0.0000E+00  0.0000E+00  0.0000E+00  0.0000E+00  0.0000E+00  0.0000E+00  0.0000E+00  0.0000E+00  0.0000E+00  0.0000E+00  0.0000E+00  0.0000E+00  0.0000E+00  0.0000E+00  0.0000E+00  0.0000E+00
     -5.507  0.0000E+00  0.0000E+00  0.0000E+00  0.0000E+00  0.0000E+00  0.0000E+00  0.0000E+00  0.0000E+00  0.0000E+00  0.0000E+00  0.0000E+00  0.0000E+00  0.0000E+00  0.0000E+00  0.0000E+00  0.0000E+00  0.0000E+00  0.0000E+00
     -5.089  0.0000E+00  0.0000E+00  0.0000E+00  0.0000E+00  0.0000E+00  0.0000E+00  0.0000E+00  0.0000E+00  0.0000E+00  0.0000E+00  0.0000E+00  0.0000E+00  0.0000E+00  0.0000E+00  0.0000E+00  0.0000E+00  0.0000E+00  0.0000E+00
     -4.672  0.0000E+00  0.0000E+00  0.0000E+00  0.0000E+00  0.0000E+00  0.0000E+00  0.0000E+00  0.0000E+00  0.0000E+00  0.0000E+00  0.0000E+00  0.0000E+00  0.0000E+00  0.0000E+00  0.0000E+00  0.0000E+00  0.0000E+00  0.0000E+00
     -4.254  0.0000E+00  0.0000E+00  0.0000E+00  0.0000E+00  0.0000E+00  0.0000E+00  0.0000E+00  0.0000E+00  0.0000E+00  0.0000E+00  0.0000E+00  0.0000E+00  0.0000E+00  0.0000E+00  0.0000E+00  0.0000E+00  0.0000E+00  0.0000E+00
     -3.836  0.0000E+00  0.0000E+00  0.0000E+00  0.0000E+00  0.0000E+00  0.0000E+00  0.0000E+00  0.0000E+00  0.0000E+00  0.0000E+00  0.0000E+00  0.0000E+00  0.0000E+00  0.0000E+00  0.0000E+00  0.0000E+00  0.0000E+00  0.0000E+00
     -3.419  0.0000E+00  0.0000E+00  0.0000E+00  0.0000E+00  0.0000E+00  0.0000E+00  0.0000E+00  0.0000E+00  0.0000E+00  0.0000E+00  0.0000E+00  0.0000E+00  0.0000E+00  0.0000E+00  0.0000E+00  0.0000E+00  0.0000E+00  0.0000E+00
     -3.001  0.5763E-02  0.5718E-02  0.2263E-04  0.2307E-04  0.2263E-04  0.2307E-04  0.2263E-04  0.2307E-04  0.0000E+00  0.0000E+00  0.0000E+00  0.0000E+00  0.0000E+00  0.0000E+00  0.0000E+00  0.0000E+00  0.0000E+00  0.0000E+00
     -2.583  0.1146E-01  0.1148E-01  0.1788E-03  0.1794E-03  0.1788E-03  0.1794E-03  0.1788E-03  0.1794E-03  0.0000E+00  0.0000E+00  0.0000E+00  0.0000E+00  0.0000E+00  0.0000E+00  0.0000E+00  0.0000E+00  0.0000E+00  0.0000E+00
     -2.166  0.1413E-01  0.1415E-01  0.3783E-03  0.3793E-03  0.3783E-03  0.3793E-03  0.3783E-03  0.3793E-03  0.0000E+00  0.0000E+00  0.0000E+00  0.0000E+00  0.0000E+00  0.0000E+00  0.0000E+00  0.0000E+00  0.0000E+00  0.0000E+00
     -1.748  0.1657E-01  0.1659E-01  0.6336E-03  0.6347E-03  0.6336E-03  0.6347E-03  0.6336E-03  0.6347E-03  0.0000E+00  0.0000E+00  0.0000E+00  0.0000E+00  0.0000E+00  0.0000E+00  0.0000E+00  0.0000E+00  0.0000E+00  0.0000E+00
     -1.330  0.1815E-01  0.1817E-01  0.9423E-03  0.9437E-03  0.9423E-03  0.9437E-03  0.9423E-03  0.9437E-03  0.0000E+00  0.0000E+00  0.0000E+00  0.0000E+00  0.0000E+00  0.0000E+00  0.0000E+00  0.0000E+00  0.0000E+00  0.0000E+00
     -0.913  0.1980E-01  0.1982E-01  0.1264E-02  0.1266E-02  0.1264E-02  0.1266E-02  0.1264E-02  0.1266E-02  0.0000E+00  0.0000E+00  0.0000E+00  0.0000E+00  0.0000E+00  0.0000E+00  0.0000E+00  0.0000E+00  0.0000E+00  0.0000E+00
     -0.495  0.2065E-01  0.2067E-01  0.1641E-02  0.1643E-02  0.1641E-02  0.1643E-02  0.1641E-02  0.1643E-02  0.0000E+00  0.0000E+00  0.0000E+00  0.0000E+00  0.0000E+00  0.0000E+00  0.0000E+00  0.0000E+00  0.0000E+00  0.0000E+00
     -0.077  0.2160E-01  0.2162E-01  0.2025E-02  0.2027E-02  0.2025E-02  0.2027E-02  0.2025E-02  0.2027E-02  0.0000E+00  0.0000E+00  0.0000E+00  0.0000E+00  0.0000E+00  0.0000E+00  0.0000E+00  0.0000E+00  0.0000E+00  0.0000E+00
      0.340  0.2230E-01  0.2232E-01  0.2440E-02  0.2442E-02  0.2440E-02  0.2442E-02  0.2440E-02  0.2442E-02  0.0000E+00  0.0000E+00  0.0000E+00  0.0000E+00  0.0000E+00  0.0000E+00  0.0000E+00  0.0000E+00  0.0000E+00  0.0000E+00
      0.758  0.2258E-01  0.2260E-01  0.2890E-02  0.2893E-02  0.2890E-02  0.2893E-02  0.2890E-02  0.2893E-02  0.0000E+00  0.0000E+00  0.0000E+00  0.0000E+00  0.0000E+00  0.0000E+00  0.0000E+00  0.0000E+00  0.0000E+00  0.0000E+00
      1.176  0.2304E-01  0.2306E-01  0.3342E-02  0.3345E-02  0.3342E-02  0.3345E-02  0.3342E-02  0.3345E-02  0.0000E+00  0.0000E+00  0.0000E+00  0.0000E+00  0.0000E+00  0.0000E+00  0.0000E+00  0.0000E+00  0.0000E+00  0.0000E+00
      1.593  0.2304E-01  0.2306E-01  0.3844E-02  0.3847E-02  0.3844E-02  0.3847E-02  0.3844E-02  0.3847E-02  0.0000E+00  0.0000E+00  0.0000E+00  0.0000E+00  0.0000E+00  0.0000E+00  0.0000E+00  0.0000E+00  0.0000E+00  0.0000E+00
      2.011  0.2282E-01  0.2284E-01  0.4386E-02  0.4389E-02  0.4386E-02  0.4389E-02  0.4386E-02  0.4389E-02  0.0000E+00  0.0000E+00  0.0000E+00  0.0000E+00  0.0000E+00  0.0000E+00  0.0000E+00  0.0000E+00  0.0000E+00  0.0000E+00
      2.429  0.2244E-01  0.2246E-01  0.5023E-02  0.5027E-02  0.5023E-02  0.5027E-02  0.5023E-02  0.5027E-02  0.0000E+00  0.0000E+00  0.0000E+00  0.0000E+00  0.0000E+00  0.0000E+00  0.0000E+00  0.0000E+00  0.0000E+00  0.0000E+00
      2.846  0.2244E-01  0.2246E-01  0.6165E-02  0.6171E-02  0.6165E-02  0.6171E-02  0.6165E-02  0.6171E-02  0.0000E+00  0.0000E+00  0.0000E+00  0.0000E+00  0.0000E+00  0.0000E+00  0.0000E+00  0.0000E+00  0.0000E+00  0.0000E+00
      3.264  0.2087E-01  0.2089E-01  0.6970E-02  0.6974E-02  0.6970E-02  0.6974E-02  0.6970E-02  0.6974E-02  0.0000E+00  0.0000E+00  0.0000E+00  0.0000E+00  0.0000E+00  0.0000E+00  0.0000E+00  0.0000E+00  0.0000E+00  0.0000E+00
      3.682  0.1779E-01  0.1771E-01  0.6945E-02  0.6901E-02  0.6945E-02  0.6901E-02  0.6945E-02  0.6901E-02  0.0000E+00  0.0000E+00  0.0000E+00  0.0000E+00  0.0000E+00  0.0000E+00  0.0000E+00  0.0000E+00  0.0000E+00  0.0000E+00
      4.099  0.1733E-01  0.1738E-01  0.7034E-02  0.7041E-02  0.7034E-02  0.7041E-02  0.7034E-02  0.7041E-02  0.0000E+00  0.0000E+00  0.0000E+00  0.0000E+00  0.0000E+00  0.0000E+00  0.0000E+00  0.0000E+00  0.0000E+00  0.0000E+00
      4.517  0.1955E-01  0.1956E-01  0.8304E-02  0.8308E-02  0.8304E-02  0.8308E-02  0.8304E-02  0.8308E-02  0.0000E+00  0.0000E+00  0.0000E+00  0.0000E+00  0.0000E+00  0.0000E+00  0.0000E+00  0.0000E+00  0.0000E+00  0.0000E+00
      4.935  0.2077E-01  0.2087E-01  0.9625E-02  0.9645E-02  0.9625E-02  0.9645E-02  0.9625E-02  0.9645E-02  0.0000E+00  0.0000E+00  0.0000E+00  0.0000E+00  0.0000E+00  0.0000E+00  0.0000E+00  0.0000E+00  0.0000E+00  0.0000E+00
      5.353  0.1916E-01  0.1916E-01  0.8951E-02  0.8953E-02  0.8951E-02  0.8953E-02  0.8951E-02  0.8953E-02  0.0000E+00  0.0000E+00  0.0000E+00  0.0000E+00  0.0000E+00  0.0000E+00  0.0000E+00  0.0000E+00  0.0000E+00  0.0000E+00
      5.770  0.1756E-01  0.1757E-01  0.9836E-02  0.9815E-02  0.9836E-02  0.9815E-02  0.9836E-02  0.9815E-02  0.0000E+00  0.0000E+00  0.0000E+00  0.0000E+00  0.0000E+00  0.0000E+00  0.0000E+00  0.0000E+00  0.0000E+00  0.0000E+00
      6.188  0.1784E-01  0.1784E-01  0.8092E-02  0.8098E-02  0.8092E-02  0.8098E-02  0.8092E-02  0.8098E-02  0.0000E+00  0.0000E+00  0.0000E+00  0.0000E+00  0.0000E+00  0.0000E+00  0.0000E+00  0.0000E+00  0.0000E+00  0.0000E+00
      6.606  0.1725E-01  0.1728E-01  0.9433E-02  0.9448E-02  0.9433E-02  0.9448E-02  0.9433E-02  0.9448E-02  0.0000E+00  0.0000E+00  0.0000E+00  0.0000E+00  0.0000E+00  0.0000E+00  0.0000E+00  0.0000E+00  0.0000E+00  0.0000E+00
      7.023  0.1858E-01  0.1860E-01  0.9470E-02  0.9474E-02  0.9470E-02  0.9474E-02  0.9470E-02  0.9474E-02  0.0000E+00  0.0000E+00  0.0000E+00  0.0000E+00  0.0000E+00  0.0000E+00  0.0000E+00  0.0000E+00  0.0000E+00  0.0000E+00
      7.441  0.1871E-01  0.1871E-01  0.1036E-01  0.1037E-01  0.1036E-01  0.1037E-01  0.1036E-01  0.1037E-01  0.0000E+00  0.0000E+00  0.0000E+00  0.0000E+00  0.0000E+00  0.0000E+00  0.0000E+00  0.0000E+00  0.0000E+00  0.0000E+00
      7.859  0.1533E-01  0.1544E-01  0.8668E-02  0.8669E-02  0.8668E-02  0.8669E-02  0.8668E-02  0.8669E-02  0.0000E+00  0.0000E+00  0.0000E+00  0.0000E+00  0.0000E+00  0.0000E+00  0.0000E+00  0.0000E+00  0.0000E+00  0.0000E+00
      8.276  0.2276E-01  0.2276E-01  0.9751E-02  0.9754E-02  0.9751E-02  0.9754E-02  0.9751E-02  0.9754E-02  0.0000E+00  0.0000E+00  0.0000E+00  0.0000E+00  0.0000E+00  0.0000E+00  0.0000E+00  0.0000E+00  0.0000E+00  0.0000E+00
      8.694  0.2061E-01  0.2060E-01  0.9558E-02  0.9563E-02  0.9558E-02  0.9563E-02  0.9558E-02  0.9563E-02  0.0000E+00  0.0000E+00  0.0000E+00  0.0000E+00  0.0000E+00  0.0000E+00  0.0000E+00  0.0000E+00  0.0000E+00  0.0000E+00
      9.112  0.1994E-01  0.1996E-01  0.9584E-02  0.9591E-02  0.9584E-02  0.9591E-02  0.9584E-02  0.9591E-02  0.0000E+00  0.0000E+00  0.0000E+00  0.0000E+00  0.0000E+00  0.0000E+00  0.0000E+00  0.0000E+00  0.0000E+00  0.0000E+00
      9.529  0.2276E-01  0.2282E-01  0.1085E-01  0.1086E-01  0.1085E-01  0.1086E-01  0.1085E-01  0.1086E-01  0.0000E+00  0.0000E+00  0.0000E+00  0.0000E+00  0.0000E+00  0.0000E+00  0.0000E+00  0.0000E+00  0.0000E+00  0.0000E+00
      9.947  0.2110E-01  0.2112E-01  0.1072E-01  0.1072E-01  0.1072E-01  0.1072E-01  0.1072E-01  0.1072E-01  0.0000E+00  0.0000E+00  0.0000E+00  0.0000E+00  0.0000E+00  0.0000E+00  0.0000E+00  0.0000E+00  0.0000E+00  0.0000E+00
     10.365  0.2234E-01  0.2238E-01  0.1111E-01  0.1112E-01  0.1111E-01  0.1112E-01  0.1111E-01  0.1112E-01  0.0000E+00  0.0000E+00  0.0000E+00  0.0000E+00  0.0000E+00  0.0000E+00  0.0000E+00  0.0000E+00  0.0000E+00  0.0000E+00
     10.782  0.2615E-01  0.2632E-01  0.1188E-01  0.1194E-01  0.1188E-01  0.1194E-01  0.1188E-01  0.1194E-01  0.0000E+00  0.0000E+00  0.0000E+00  0.0000E+00  0.0000E+00  0.0000E+00  0.0000E+00  0.0000E+00  0.0000E+00  0.0000E+00
     11.200  0.2301E-01  0.2302E-01  0.1193E-01  0.1195E-01  0.1193E-01  0.1195E-01  0.1193E-01  0.1195E-01  0.0000E+00  0.0000E+00  0.0000E+00  0.0000E+00  0.0000E+00  0.0000E+00  0.0000E+00  0.0000E+00  0.0000E+00  0.0000E+00
     11.618  0.2301E-01  0.2302E-01  0.1298E-01  0.1300E-01  0.1298E-01  0.1300E-01  0.1298E-01  0.1300E-01  0.0000E+00  0.0000E+00  0.0000E+00  0.0000E+00  0.0000E+00  0.0000E+00  0.0000E+00  0.0000E+00  0.0000E+00  0.0000E+00
     12.035  0.2213E-01  0.2213E-01  0.1302E-01  0.1304E-01  0.1302E-01  0.1304E-01  0.1302E-01  0.1304E-01  0.0000E+00  0.0000E+00  0.0000E+00  0.0000E+00  0.0000E+00  0.0000E+00  0.0000E+00  0.0000E+00  0.0000E+00  0.0000E+00