 vasp.6.2.1 16May21 (build Aug 15 2022 14:47:30) complex                         
 executed on             LinuxGNU date 2025.12.11  13:58:29
 running on   48 total cores
 distrk:  each k-point on   48 cores,    1 groups
 distr:  one band on NCORE=   1 cores,   48 groups


--------------------------------------------------------------------------------------------------------


 INCAR:
   ALGO = Fast
   EDIFF = 5e-05
   ENCUT = 520.0
   ISMEAR = -5
   ISPIN = 2
   LASPH = True
   LCHARG = True
   LORBIT = 11
   LREAL = False
   LWAVE = False
   MAGMOM = 1*0.6
   NELM = 100
   NSW = 0
   PREC = Accurate
   SIGMA = 0.05

 POTCAR:    PAW_PBE Al 04Jan2001                  
 -----------------------------------------------------------------------------
|                                                                             |
|           W    W    AA    RRRRR   N    N  II  N    N   GGGG   !!!           |
|           W    W   A  A   R    R  NN   N  II  NN   N  G    G  !!!           |
|           W    W  A    A  R    R  N N  N  II  N N  N  G       !!!           |
|           W WW W  AAAAAA  RRRRR   N  N N  II  N  N N  G  GGG   !            |
|           WW  WW  A    A  R   R   N   NN  II  N   NN  G    G                |
|           W    W  A    A  R    R  N    N  II  N    N   GGGG   !!!           |
|                                                                             |
|     For optimal performance we recommend to set                             |
|       NCORE = 2 up to number-of-cores-per-socket                            |
|     NCORE specifies how many cores store one orbital (NPAR=cpu/NCORE).      |
|     This setting can greatly improve the performance of VASP for DFT.       |
|     The default, NCORE=1 might be grossly inefficient on modern             |
|     multi-core architectures or massively parallel machines. Do your        |
|     own testing! More info at https://www.vasp.at/wiki/index.php/NCORE      |
|     Unfortunately you need to use the default for GW and RPA                |
|     calculations (for HF NCORE is supported but not extensively tested      |
|     yet).                                                                   |
|                                                                             |
 -----------------------------------------------------------------------------

 POTCAR:    PAW_PBE Al 04Jan2001                  
   VRHFIN =Al: s2p1                                                                                 
   LEXCH  = PE                                                                                      
   EATOM  =    53.5387 eV,    3.9350 Ry                                                             
                                                                                                    
   TITEL  = PAW_PBE Al 04Jan2001                                                                    
   LULTRA =        F    use ultrasoft PP ?                                                          
   IUNSCR =        1    unscreen: 0-lin 1-nonlin 2-no                                               
   RPACOR =    1.500    partial core radius                                                         
   POMASS =   26.981; ZVAL   =    3.000    mass and valenz                                          
   RCORE  =    1.900    outmost cutoff radius                                                       
   RWIGS  =    2.650; RWIGS  =    1.402    wigner-seitz radius (au A)                               
   ENMAX  =  240.300; ENMIN  =  180.225 eV                                                          
   ICORE  =        2    local potential                                                             
   LCOR   =        T    correct aug charges                                                         
   LPAW   =        T    paw PP                                                                      
   EAUG   =  291.052                                                                                
   DEXC   =    0.000                                                                                
   RMAX   =    1.939    core radius for proj-oper                                                   
   RAUG   =    1.300    factor for augmentation sphere                                              
   RDEP   =    1.966    radius for radial grids                                                     
   RDEPT  =    1.856    core radius for aug-charge                                                  
                                                                                                    
   Atomic configuration                                                                             
    6 entries                                                                                       
     n  l   j            E        occ.                                                              
     1  0  0.50     -1511.1048   2.0000                                                             
     2  0  0.50      -108.1629   2.0000                                                             
     2  1  1.50       -69.6402   6.0000                                                             
     3  0  0.50        -7.7528   2.0000                                                             
     3  1  1.50        -2.7121   1.0000                                                             
     3  2  2.50        -2.7212   0.0000                                                             
   Description                                                                                      
     l       E           TYP  RCUT    TYP  RCUT                                                     
     0     -7.7528455     23  1.900                                                                 
     0     -3.3096929     23  1.900                                                                 
     1     -2.7120682     23  1.900                                                                 
     1     13.6058260     23  1.900                                                                 
     2     -2.7211652      7  1.900                                                                 
  local pseudopotential read in
  partial core-charges read in
  partial kinetic energy density read in
  atomic valenz-charges read in
  non local Contribution for L=           0  read in
    real space projection operators read in
  non local Contribution for L=           0  read in
    real space projection operators read in
  non local Contribution for L=           1  read in
    real space projection operators read in
  non local Contribution for L=           1  read in
    real space projection operators read in
    PAW grid and wavefunctions read in

   number of l-projection  operators is LMAX  =           4
   number of lm-projection operators is LMMAX =           8

  PAW_PBE Al 04Jan2001                  :
 energy of atom  1       EATOM=  -53.5387
 kinetic energy error for atom=    0.0002 (will be added to EATOM!!)


 POSCAR: # Generated by Masgent for k-point conve
  positions in direct lattice
  No initial velocities read in
 exchange correlation table for  LEXCH =        8
   RHO(1)=    0.500       N(1)  =     2000
   RHO(2)=  100.500       N(2)  =     4000

 VTST: version 4.2, (08/11/21)

 CHAIN: initializing optimizer
 
 OPT: Using VASP Dynamics algorithm
 CHAIN: Read ICHAIN            0

 POSCAR: # Generated by Masgent for k-point conve
  positions in direct lattice
  No initial velocities read in



--------------------------------------------------------------------------------------------------------


 ion  position               nearest neighbor table
   1  0.000  0.000  0.000-

  LATTYP: Found a face centered cubic cell.
 ALAT       =     4.0480000000
  
  Lattice vectors:
  
 A1 = (   0.0000000000,   2.0240000000,   2.0240000000)
 A2 = (   2.0240000000,   0.0000000000,   2.0240000000)
 A3 = (   2.0240000000,   2.0240000000,   0.0000000000)


Analysis of symmetry for initial positions (statically):
=====================================================================
 Subroutine PRICEL returns:
 Original cell was already a primitive cell.
 

 Routine SETGRP: Setting up the symmetry group for a 
 face centered cubic supercell.


 Subroutine GETGRP returns: Found 48 space group operations
 (whereof 48 operations were pure point group operations)
 out of a pool of 48 trial point group operations.


The static configuration has the point symmetry O_h .


Analysis of symmetry for dynamics (positions and initial velocities):
=====================================================================
 Subroutine PRICEL returns:
 Original cell was already a primitive cell.
 

 Routine SETGRP: Setting up the symmetry group for a 
 face centered cubic supercell.


 Subroutine GETGRP returns: Found 48 space group operations
 (whereof 48 operations were pure point group operations)
 out of a pool of 48 trial point group operations.


The dynamic configuration has the point symmetry O_h .


Analysis of structural, dynamic, and magnetic symmetry:
=====================================================================
 Subroutine PRICEL returns:
 Original cell was already a primitive cell.
 

 Routine SETGRP: Setting up the symmetry group for a 
 face centered cubic supercell.


 Subroutine GETGRP returns: Found 48 space group operations
 (whereof 48 operations were pure point group operations)
 out of a pool of 48 trial point group operations.


The overall configuration has the point symmetry O_h .


 Subroutine INISYM returns: Found 48 space group operations
 (whereof 48 operations are pure point group operations),
 and found     1 'primitive' translations


----------------------------------------------------------------------------------------

                                     Primitive cell                                     

  volume of cell :      16.5829

  direct lattice vectors                    reciprocal lattice vectors
     0.000000000  2.024000000  2.024000000    -0.247035573  0.247035573  0.247035573
     2.024000000  0.000000000  2.024000000     0.247035573 -0.247035573  0.247035573
     2.024000000  2.024000000  0.000000000     0.247035573  0.247035573 -0.247035573

  length of vectors
     2.862368250  2.862368250  2.862368250     0.427878164  0.427878164  0.427878164

  position of ions in fractional coordinates (direct lattice)
     0.000000000  0.000000000  0.000000000

  ion indices of the primitive-cell ions
   primitive index   ion index
                 1           1

----------------------------------------------------------------------------------------



 KPOINTS: # Generated by Masgent for k-point conve

Automatic generation of k-mesh.
 Grid dimensions read from file:
 generate k-points for:   14   14   14

 Generating k-lattice:

  Cartesian coordinates                     Fractional coordinates (reciprocal lattice)
    -0.017645398  0.017645398  0.017645398     0.071428571  0.000000000  0.000000000
     0.017645398 -0.017645398  0.017645398     0.000000000  0.071428571  0.000000000
     0.017645398  0.017645398 -0.017645398     0.000000000  0.000000000  0.071428571

  Length of vectors
     0.030562726  0.030562726  0.030562726

  Shift w.r.t. Gamma in fractional coordinates (k-lattice)
     0.000000000  0.000000000  0.000000000

 TETIRR: Found    389 inequivalent tetrahedra from    16464
 
 Subroutine IBZKPT returns following result:
 ===========================================
 
 Found    104 irreducible k-points:
 
 Following reciprocal coordinates:
            Coordinates               Weight
  0.000000  0.000000  0.000000      1.000000
  0.071429  0.000000  0.000000      8.000000
  0.142857  0.000000  0.000000      8.000000
  0.214286  0.000000  0.000000      8.000000
  0.285714  0.000000  0.000000      8.000000
  0.357143  0.000000  0.000000      8.000000
  0.428571  0.000000  0.000000      8.000000
  0.500000  0.000000  0.000000      4.000000
  0.071429  0.071429  0.000000      6.000000
  0.142857  0.071429  0.000000     24.000000
  0.214286  0.071429  0.000000     24.000000
  0.285714  0.071429  0.000000     24.000000
  0.357143  0.071429  0.000000     24.000000
  0.428571  0.071429  0.000000     24.000000
  0.500000  0.071429  0.000000     24.000000
 -0.428571  0.071429  0.000000     24.000000
 -0.357143  0.071429  0.000000     24.000000
 -0.285714  0.071429  0.000000     24.000000
 -0.214286  0.071429  0.000000     24.000000
 -0.142857  0.071429  0.000000     24.000000
 -0.071429  0.071429  0.000000     12.000000
  0.142857  0.142857  0.000000      6.000000
  0.214286  0.142857  0.000000     24.000000
  0.285714  0.142857  0.000000     24.000000
  0.357143  0.142857  0.000000     24.000000
  0.428571  0.142857  0.000000     24.000000
  0.500000  0.142857  0.000000     24.000000
 -0.428571  0.142857  0.000000     24.000000
 -0.357143  0.142857  0.000000     24.000000
 -0.285714  0.142857  0.000000     24.000000
 -0.214286  0.142857  0.000000     24.000000
 -0.142857  0.142857  0.000000     12.000000
  0.214286  0.214286  0.000000      6.000000
  0.285714  0.214286  0.000000     24.000000
  0.357143  0.214286  0.000000     24.000000
  0.428571  0.214286  0.000000     24.000000
  0.500000  0.214286  0.000000     24.000000
 -0.428571  0.214286  0.000000     24.000000
 -0.357143  0.214286  0.000000     24.000000
 -0.285714  0.214286  0.000000     24.000000
 -0.214286  0.214286  0.000000     12.000000
  0.285714  0.285714  0.000000      6.000000
  0.357143  0.285714  0.000000     24.000000
  0.428571  0.285714  0.000000     24.000000
  0.500000  0.285714  0.000000     24.000000
 -0.428571  0.285714  0.000000     24.000000
 -0.357143  0.285714  0.000000     24.000000
 -0.285714  0.285714  0.000000     12.000000
  0.357143  0.357143  0.000000      6.000000
  0.428571  0.357143  0.000000     24.000000
  0.500000  0.357143  0.000000     24.000000
 -0.428571  0.357143  0.000000     24.000000
 -0.357143  0.357143  0.000000     12.000000
  0.428571  0.428571  0.000000      6.000000
  0.500000  0.428571  0.000000     24.000000
 -0.428571  0.428571  0.000000     12.000000
  0.500000  0.500000  0.000000      3.000000
  0.214286  0.142857  0.071429     24.000000
  0.285714  0.142857  0.071429     48.000000
  0.357143  0.142857  0.071429     48.000000
  0.428571  0.142857  0.071429     48.000000
  0.500000  0.142857  0.071429     48.000000
 -0.428571  0.142857  0.071429     24.000000
  0.285714  0.214286  0.071429     24.000000
  0.357143  0.214286  0.071429     48.000000
  0.428571  0.214286  0.071429     48.000000
  0.500000  0.214286  0.071429     48.000000
 -0.428571  0.214286  0.071429     48.000000
 -0.357143  0.214286  0.071429     48.000000
 -0.285714  0.214286  0.071429     48.000000
 -0.214286  0.214286  0.071429     48.000000
 -0.142857  0.214286  0.071429     24.000000
  0.357143  0.285714  0.071429     24.000000
  0.428571  0.285714  0.071429     48.000000
  0.500000  0.285714  0.071429     48.000000
 -0.428571  0.285714  0.071429     48.000000
 -0.357143  0.285714  0.071429     48.000000
 -0.285714  0.285714  0.071429     48.000000
 -0.214286  0.285714  0.071429     24.000000
  0.428571  0.357143  0.071429     24.000000
  0.500000  0.357143  0.071429     48.000000
 -0.428571  0.357143  0.071429     48.000000
 -0.357143  0.357143  0.071429     48.000000
 -0.285714  0.357143  0.071429     24.000000
  0.500000  0.428571  0.071429     24.000000
 -0.428571  0.428571  0.071429     48.000000
 -0.357143  0.428571  0.071429     24.000000
 -0.428571  0.500000  0.071429     12.000000
  0.428571  0.285714  0.142857     24.000000
  0.500000  0.285714  0.142857     48.000000
 -0.428571  0.285714  0.142857     48.000000
 -0.357143  0.285714  0.142857     24.000000
  0.500000  0.357143  0.142857     24.000000
 -0.428571  0.357143  0.142857     48.000000
 -0.357143  0.357143  0.142857     48.000000
 -0.285714  0.357143  0.142857     48.000000
 -0.214286  0.357143  0.142857     24.000000
 -0.428571  0.428571  0.142857     24.000000
 -0.357143  0.428571  0.142857     48.000000
 -0.285714  0.428571  0.142857     24.000000
 -0.357143  0.500000  0.142857     12.000000
 -0.357143  0.428571  0.214286     24.000000
 -0.285714  0.428571  0.214286     24.000000
 -0.285714  0.500000  0.214286     12.000000
 
 Following cartesian coordinates:
            Coordinates               Weight
  0.000000  0.000000  0.000000      1.000000
 -0.017645  0.017645  0.017645      8.000000
 -0.035291  0.035291  0.035291      8.000000
 -0.052936  0.052936  0.052936      8.000000
 -0.070582  0.070582  0.070582      8.000000
 -0.088227  0.088227  0.088227      8.000000
 -0.105872  0.105872  0.105872      8.000000
 -0.123518  0.123518  0.123518      4.000000
  0.000000  0.000000  0.035291      6.000000
 -0.017645  0.017645  0.052936     24.000000
 -0.035291  0.035291  0.070582     24.000000
 -0.052936  0.052936  0.088227     24.000000
 -0.070582  0.070582  0.105872     24.000000
 -0.088227  0.088227  0.123518     24.000000
 -0.105872  0.105872  0.141163     24.000000
  0.123518 -0.123518 -0.088227     24.000000
  0.105872 -0.105872 -0.070582     24.000000
  0.088227 -0.088227 -0.052936     24.000000
  0.070582 -0.070582 -0.035291     24.000000
  0.052936 -0.052936 -0.017645     24.000000
  0.035291 -0.035291  0.000000     12.000000
  0.000000  0.000000  0.070582      6.000000
 -0.017645  0.017645  0.088227     24.000000
 -0.035291  0.035291  0.105872     24.000000
 -0.052936  0.052936  0.123518     24.000000
 -0.070582  0.070582  0.141163     24.000000
 -0.088227  0.088227  0.158809     24.000000
  0.141163 -0.141163 -0.070582     24.000000
  0.123518 -0.123518 -0.052936     24.000000
  0.105872 -0.105872 -0.035291     24.000000
  0.088227 -0.088227 -0.017645     24.000000
  0.070582 -0.070582  0.000000     12.000000
  0.000000  0.000000  0.105872      6.000000
 -0.017645  0.017645  0.123518     24.000000
 -0.035291  0.035291  0.141163     24.000000
 -0.052936  0.052936  0.158809     24.000000
 -0.070582  0.070582  0.176454     24.000000
  0.158809 -0.158809 -0.052936     24.000000
  0.141163 -0.141163 -0.035291     24.000000
  0.123518 -0.123518 -0.017645     24.000000
  0.105872 -0.105872  0.000000     12.000000
  0.000000  0.000000  0.141163      6.000000
 -0.017645  0.017645  0.158809     24.000000
 -0.035291  0.035291  0.176454     24.000000
 -0.052936  0.052936  0.194099     24.000000
  0.176454 -0.176454 -0.035291     24.000000
  0.158809 -0.158809 -0.017645     24.000000
  0.141163 -0.141163  0.000000     12.000000
  0.000000  0.000000  0.176454      6.000000
 -0.017645  0.017645  0.194099     24.000000
 -0.035291  0.035291  0.211745     24.000000
  0.194099 -0.194099 -0.017645     24.000000
  0.176454 -0.176454  0.000000     12.000000
  0.000000  0.000000  0.211745      6.000000
 -0.017645  0.017645  0.229390     24.000000
  0.211745 -0.211745  0.000000     12.000000
  0.000000  0.000000  0.247036      3.000000
  0.000000  0.035291  0.070582     24.000000
 -0.017645  0.052936  0.088227     48.000000
 -0.035291  0.070582  0.105872     48.000000
 -0.052936  0.088227  0.123518     48.000000
 -0.070582  0.105872  0.141163     48.000000
  0.158809 -0.123518 -0.088227     24.000000
  0.000000  0.035291  0.105872     24.000000
 -0.017645  0.052936  0.123518     48.000000
 -0.035291  0.070582  0.141163     48.000000
 -0.052936  0.088227  0.158809     48.000000
  0.176454 -0.141163 -0.070582     48.000000
  0.158809 -0.123518 -0.052936     48.000000
  0.141163 -0.105872 -0.035291     48.000000
  0.123518 -0.088227 -0.017645     48.000000
  0.105872 -0.070582  0.000000     24.000000
  0.000000  0.035291  0.141163     24.000000
 -0.017645  0.052936  0.158809     48.000000
 -0.035291  0.070582  0.176454     48.000000
  0.194099 -0.158809 -0.052936     48.000000
  0.176454 -0.141163 -0.035291     48.000000
  0.158809 -0.123518 -0.017645     48.000000
  0.141163 -0.105872  0.000000     24.000000
 -0.000000  0.035291  0.176454     24.000000
 -0.017645  0.052936  0.194099     48.000000
  0.211745 -0.176454 -0.035291     48.000000
  0.194099 -0.158809 -0.017645     48.000000
  0.176454 -0.141163  0.000000     24.000000
  0.000000  0.035291  0.211745     24.000000
  0.229390 -0.194099 -0.017645     48.000000
  0.211745 -0.176454  0.000000     24.000000
  0.247036 -0.211745  0.000000     12.000000
  0.000000  0.070582  0.141163     24.000000
 -0.017645  0.088227  0.158809     48.000000
  0.211745 -0.141163 -0.070582     48.000000
  0.194099 -0.123518 -0.052936     24.000000
  0.000000  0.070582  0.176454     24.000000
  0.229390 -0.158809 -0.052936     48.000000
  0.211745 -0.141163 -0.035291     48.000000
  0.194099 -0.123518 -0.017645     48.000000
  0.176454 -0.105872 -0.000000     24.000000
  0.247036 -0.176454 -0.035291     24.000000
  0.229390 -0.158809 -0.017645     48.000000
  0.211745 -0.141163  0.000000     24.000000
  0.247036 -0.176454  0.000000     12.000000
  0.247036 -0.141163 -0.035291     24.000000
  0.229390 -0.123518 -0.017645     24.000000
  0.247036 -0.141163  0.000000     12.000000
 


--------------------------------------------------------------------------------------------------------




 Dimension of arrays:
   k-points           NKPTS =    104   k-points in BZ     NKDIM =    104   number of bands    NBANDS=     48
   number of dos      NEDOS =    301   number of ions     NIONS =      1
   non local maximal  LDIM  =      4   non local SUM 2l+1 LMDIM =      8
   total plane-waves  NPLWV =  13824
   max r-space proj   IRMAX =      1   max aug-charges    IRDMAX=  32640
   dimension x,y,z NGX =    24 NGY =   24 NGZ =   24
   dimension x,y,z NGXF=    48 NGYF=   48 NGZF=   48
   support grid    NGXF=    48 NGYF=   48 NGZF=   48
   ions per type =               1
   NGX,Y,Z   is equivalent  to a cutoff of  13.94, 13.94, 13.94 a.u.
   NGXF,Y,Z  is equivalent  to a cutoff of  27.88, 27.88, 27.88 a.u.

 SYSTEM =  unknown system                          
 POSCAR =  # Generated by Masgent for k-point conve

 Startparameter for this run:
   NWRITE =      2    write-flag & timer
   PREC   = accura    normal or accurate (medium, high low for compatibility)
   ISTART =      0    job   : 0-new  1-cont  2-samecut
   ICHARG =      2    charge: 1-file 2-atom 10-const
   ISPIN  =      2    spin polarized calculation?
   LNONCOLLINEAR =      F non collinear calculations
   LSORBIT =      F    spin-orbit coupling
   INIWAV =      1    electr: 0-lowe 1-rand  2-diag
   LASPH  =      T    aspherical Exc in radial PAW
 Electronic Relaxation 1
   ENCUT  =  520.0 eV  38.22 Ry    6.18 a.u.   5.32  5.32  5.32*2*pi/ulx,y,z
   ENINI  =  520.0     initial cutoff
   ENAUG  =  291.1 eV  augmentation charge cutoff
   NELM   =    100;   NELMIN=  2; NELMDL=  0     # of ELM steps 
   EDIFF  = 0.5E-04   stopping-criterion for ELM
   LREAL  =      F    real-space projection
   NLSPLINE    = F    spline interpolate recip. space projectors
   LCOMPAT=      F    compatible to vasp.4.4
   GGA_COMPAT  = T    GGA compatible to vasp.4.4-vasp.4.6
   LMAXPAW     = -100 max onsite density
   LMAXMIX     =    2 max onsite mixed and CHGCAR
   VOSKOWN=      0    Vosko Wilk Nusair interpolation
   ROPT   =    0.00000
 Ionic relaxation
   EDIFFG = 0.5E-03   stopping-criterion for IOM
   NSW    =      0    number of steps for IOM
   NBLOCK =      1;   KBLOCK =      1    inner block; outer block 
   IBRION =     -1    ionic relax: 0-MD 1-quasi-New 2-CG
   NFREE  =      0    steps in history (QN), initial steepest desc. (CG)
   ISIF   =      2    stress and relaxation
   IWAVPR =     10    prediction:  0-non 1-charg 2-wave 3-comb
   ISYM   =      2    0-nonsym 1-usesym 2-fastsym
   LCORR  =      T    Harris-Foulkes like correction to forces

   POTIM  = 0.5000    time-step for ionic-motion
   TEIN   =    0.0    initial temperature
   TEBEG  =    0.0;   TEEND  =   0.0 temperature during run
   SMASS  =  -3.00    Nose mass-parameter (am)
   estimated Nose-frequenzy (Omega)   =  0.10E-29 period in steps = 0.13E+47 mass=  -0.187E-27a.u.
   SCALEE = 1.0000    scale energy and forces
   NPACO  =    256;   APACO  = 16.0  distance and # of slots for P.C.
   PSTRESS=    0.0 pullay stress

  Mass of Ions in am
   POMASS =  26.98
  Ionic Valenz
   ZVAL   =   3.00
  Atomic Wigner-Seitz radii
   RWIGS  =  -1.00
  virtual crystal weights 
   VCA    =   1.00
   NELECT =       3.0000    total number of electrons
   NUPDOWN=      -1.0000    fix difference up-down

 DOS related values:
   EMIN   =  10.00;   EMAX   =-10.00  energy-range for DOS
   EFERMI =   0.00
   ISMEAR =    -5;   SIGMA  =   0.05  broadening in eV -4-tet -1-fermi 0-gaus

 Electronic relaxation 2 (details)
   IALGO  =     68    algorithm
   LDIAG  =      T    sub-space diagonalisation (order eigenvalues)
   LSUBROT=      F    optimize rotation matrix (better conditioning)
   TURBO    =      0    0=normal 1=particle mesh
   IRESTART =      0    0=no restart 2=restart with 2 vectors
   NREBOOT  =      0    no. of reboots
   NMIN     =      0    reboot dimension
   EREF     =   0.00    reference energy to select bands
   IMIX   =      4    mixing-type and parameters
     AMIX     =   0.40;   BMIX     =  1.00
     AMIX_MAG =   1.60;   BMIX_MAG =  1.00
     AMIN     =   0.10
     WC   =   100.;   INIMIX=   1;  MIXPRE=   1;  MAXMIX= -45

 Intra band minimization:
   WEIMIN = 0.0000     energy-eigenvalue tresh-hold
   EBREAK =  0.26E-06  absolut break condition
   DEPER  =   0.30     relativ break condition  

   TIME   =   0.40     timestep for ELM

  volume/ion in A,a.u.               =      16.58       111.91
  Fermi-wavevector in a.u.,A,eV,Ry     =   0.925894  1.749687 11.664006  0.857280
  Thomas-Fermi vector in A             =   2.051798

 Write flags
   LWAVE        =      F    write WAVECAR
   LDOWNSAMPLE  =      F    k-point downsampling of WAVECAR
   LCHARG       =      T    write CHGCAR
   LVTOT        =      F    write LOCPOT, total local potential
   LVHAR        =      F    write LOCPOT, Hartree potential only
   LELF         =      F    write electronic localiz. function (ELF)
   LORBIT       =     11    0 simple, 1 ext, 2 COOP (PROOUT), +10 PAW based schemes


 Dipole corrections
   LMONO  =      F    monopole corrections only (constant potential shift)
   LDIPOL =      F    correct potential (dipole corrections)
   IDIPOL =      0    1-x, 2-y, 3-z, 4-all directions 
   EPSILON=  1.0000000 bulk dielectric constant

 Exchange correlation treatment:
   GGA     =    --    GGA type
   LEXCH   =     8    internal setting for exchange type
   VOSKOWN=      0    Vosko Wilk Nusair interpolation
   LHFCALC =     F    Hartree Fock is set to
   LHFONE  =     F    Hartree Fock one center treatment
   AEXX    =    0.0000 exact exchange contribution

 Linear response parameters
   LEPSILON=     F    determine dielectric tensor
   LRPA    =     F    only Hartree local field effects (RPA)
   LNABLA  =     F    use nabla operator in PAW spheres
   LVEL    =     F    velocity operator in full k-point grid
   LINTERFAST=   F  fast interpolation
   KINTER  =     0    interpolate to denser k-point grid
   CSHIFT  =0.1000    complex shift for real part using Kramers Kronig
   OMEGAMAX=  -1.0    maximum frequency
   DEG_THRESHOLD= 0.2000000E-02 threshold for treating states as degnerate
   RTIME   =   -0.100 relaxation time in fs
  (WPLASMAI=    0.000 imaginary part of plasma frequency in eV, 0.658/RTIME)
   DFIELD  = 0.0000000 0.0000000 0.0000000 field for delta impulse in time

 Orbital magnetization related:
   ORBITALMAG=     F  switch on orbital magnetization
   LCHIMAG   =     F  perturbation theory with respect to B field
   DQ        =  0.001000  dq finite difference perturbation B field
   LLRAUG    =     F  two centre corrections for induced B field



--------------------------------------------------------------------------------------------------------


 Static calculation
 charge density and potential will be updated during run
 spin polarized calculation
 RMM-DIIS sequential band-by-band and
  variant of blocked Davidson during initial phase
 perform sub-space diagonalisation
    before iterative eigenvector-optimisation
 modified Broyden-mixing scheme, WC =      100.0
 initial mixing is a Kerker type mixing with AMIX =  0.4000 and BMIX =      1.0000
 Hartree-type preconditioning will be used
 using additional bands           46
 reciprocal scheme for non local part
 use partial core corrections
 calculate Harris-corrections to forces   (improved forces if not selfconsistent)
 use gradient corrections 
 use of overlap-Matrix (Vanderbilt PP)
 Fermi weights with tetrahedron method with Bloechl corrections


--------------------------------------------------------------------------------------------------------


  energy-cutoff  :      520.00
  volume of cell :       16.58
      direct lattice vectors                 reciprocal lattice vectors
     0.000000000  2.024000000  2.024000000    -0.247035573  0.247035573  0.247035573
     2.024000000  0.000000000  2.024000000     0.247035573 -0.247035573  0.247035573
     2.024000000  2.024000000  0.000000000     0.247035573  0.247035573 -0.247035573

  length of vectors
     2.862368250  2.862368250  2.862368250     0.427878164  0.427878164  0.427878164



 k-points in units of 2pi/SCALE and weight: # Generated by Masgent for k-point conve
   0.00000000  0.00000000  0.00000000       0.000
  -0.01764540  0.01764540  0.01764540       0.003
  -0.03529080  0.03529080  0.03529080       0.003
  -0.05293619  0.05293619  0.05293619       0.003
  -0.07058159  0.07058159  0.07058159       0.003
  -0.08822699  0.08822699  0.08822699       0.003
  -0.10587239  0.10587239  0.10587239       0.003
  -0.12351779  0.12351779  0.12351779       0.001
   0.00000000  0.00000000  0.03529080       0.002
  -0.01764540  0.01764540  0.05293619       0.009
  -0.03529080  0.03529080  0.07058159       0.009
  -0.05293619  0.05293619  0.08822699       0.009
  -0.07058159  0.07058159  0.10587239       0.009
  -0.08822699  0.08822699  0.12351779       0.009
  -0.10587239  0.10587239  0.14116318       0.009
   0.12351779 -0.12351779 -0.08822699       0.009
   0.10587239 -0.10587239 -0.07058159       0.009
   0.08822699 -0.08822699 -0.05293619       0.009
   0.07058159 -0.07058159 -0.03529080       0.009
   0.05293619 -0.05293619 -0.01764540       0.009
   0.03529080 -0.03529080  0.00000000       0.004
   0.00000000  0.00000000  0.07058159       0.002
  -0.01764540  0.01764540  0.08822699       0.009
  -0.03529080  0.03529080  0.10587239       0.009
  -0.05293619  0.05293619  0.12351779       0.009
  -0.07058159  0.07058159  0.14116318       0.009
  -0.08822699  0.08822699  0.15880858       0.009
   0.14116318 -0.14116318 -0.07058159       0.009
   0.12351779 -0.12351779 -0.05293619       0.009
   0.10587239 -0.10587239 -0.03529080       0.009
   0.08822699 -0.08822699 -0.01764540       0.009
   0.07058159 -0.07058159  0.00000000       0.004
   0.00000000  0.00000000  0.10587239       0.002
  -0.01764540  0.01764540  0.12351779       0.009
  -0.03529080  0.03529080  0.14116318       0.009
  -0.05293619  0.05293619  0.15880858       0.009
  -0.07058159  0.07058159  0.17645398       0.009
   0.15880858 -0.15880858 -0.05293619       0.009
   0.14116318 -0.14116318 -0.03529080       0.009
   0.12351779 -0.12351779 -0.01764540       0.009
   0.10587239 -0.10587239  0.00000000       0.004
   0.00000000  0.00000000  0.14116318       0.002
  -0.01764540  0.01764540  0.15880858       0.009
  -0.03529080  0.03529080  0.17645398       0.009
  -0.05293619  0.05293619  0.19409938       0.009
   0.17645398 -0.17645398 -0.03529080       0.009
   0.15880858 -0.15880858 -0.01764540       0.009
   0.14116318 -0.14116318  0.00000000       0.004
   0.00000000  0.00000000  0.17645398       0.002
  -0.01764540  0.01764540  0.19409938       0.009
  -0.03529080  0.03529080  0.21174478       0.009
   0.19409938 -0.19409938 -0.01764540       0.009
   0.17645398 -0.17645398  0.00000000       0.004
   0.00000000  0.00000000  0.21174478       0.002
  -0.01764540  0.01764540  0.22939018       0.009
   0.21174478 -0.21174478  0.00000000       0.004
   0.00000000  0.00000000  0.24703557       0.001
   0.00000000  0.03529080  0.07058159       0.009
  -0.01764540  0.05293619  0.08822699       0.017
  -0.03529080  0.07058159  0.10587239       0.017
  -0.05293619  0.08822699  0.12351779       0.017
  -0.07058159  0.10587239  0.14116318       0.017
   0.15880858 -0.12351779 -0.08822699       0.009
   0.00000000  0.03529080  0.10587239       0.009
  -0.01764540  0.05293619  0.12351779       0.017
  -0.03529080  0.07058159  0.14116318       0.017
  -0.05293619  0.08822699  0.15880858       0.017
   0.17645398 -0.14116318 -0.07058159       0.017
   0.15880858 -0.12351779 -0.05293619       0.017
   0.14116318 -0.10587239 -0.03529080       0.017
   0.12351779 -0.08822699 -0.01764540       0.017
   0.10587239 -0.07058159  0.00000000       0.009
   0.00000000  0.03529080  0.14116318       0.009
  -0.01764540  0.05293619  0.15880858       0.017
  -0.03529080  0.07058159  0.17645398       0.017
   0.19409938 -0.15880858 -0.05293619       0.017
   0.17645398 -0.14116318 -0.03529080       0.017
   0.15880858 -0.12351779 -0.01764540       0.017
   0.14116318 -0.10587239  0.00000000       0.009
  -0.00000000  0.03529080  0.17645398       0.009
  -0.01764540  0.05293619  0.19409938       0.017
   0.21174478 -0.17645398 -0.03529080       0.017
   0.19409938 -0.15880858 -0.01764540       0.017
   0.17645398 -0.14116318  0.00000000       0.009
   0.00000000  0.03529080  0.21174478       0.009
   0.22939018 -0.19409938 -0.01764540       0.017
   0.21174478 -0.17645398  0.00000000       0.009
   0.24703557 -0.21174478  0.00000000       0.004
   0.00000000  0.07058159  0.14116318       0.009
  -0.01764540  0.08822699  0.15880858       0.017
   0.21174478 -0.14116318 -0.07058159       0.017
   0.19409938 -0.12351779 -0.05293619       0.009
   0.00000000  0.07058159  0.17645398       0.009
   0.22939018 -0.15880858 -0.05293619       0.017
   0.21174478 -0.14116318 -0.03529080       0.017
   0.19409938 -0.12351779 -0.01764540       0.017
   0.17645398 -0.10587239 -0.00000000       0.009
   0.24703557 -0.17645398 -0.03529080       0.009
   0.22939018 -0.15880858 -0.01764540       0.017
   0.21174478 -0.14116318  0.00000000       0.009
   0.24703557 -0.17645398  0.00000000       0.004
   0.24703557 -0.14116318 -0.03529080       0.009
   0.22939018 -0.12351779 -0.01764540       0.009
   0.24703557 -0.14116318  0.00000000       0.004

 k-points in reciprocal lattice and weights: # Generated by Masgent for k-point conve
   0.00000000  0.00000000  0.00000000       0.000
   0.07142857  0.00000000  0.00000000       0.003
   0.14285714  0.00000000  0.00000000       0.003
   0.21428571  0.00000000  0.00000000       0.003
   0.28571429  0.00000000  0.00000000       0.003
   0.35714286  0.00000000  0.00000000       0.003
   0.42857143  0.00000000  0.00000000       0.003
   0.50000000  0.00000000  0.00000000       0.001
   0.07142857  0.07142857  0.00000000       0.002
   0.14285714  0.07142857  0.00000000       0.009
   0.21428571  0.07142857  0.00000000       0.009
   0.28571429  0.07142857  0.00000000       0.009
   0.35714286  0.07142857  0.00000000       0.009
   0.42857143  0.07142857  0.00000000       0.009
   0.50000000  0.07142857  0.00000000       0.009
  -0.42857143  0.07142857  0.00000000       0.009
  -0.35714286  0.07142857  0.00000000       0.009
  -0.28571429  0.07142857  0.00000000       0.009
  -0.21428571  0.07142857  0.00000000       0.009
  -0.14285714  0.07142857  0.00000000       0.009
  -0.07142857  0.07142857  0.00000000       0.004
   0.14285714  0.14285714  0.00000000       0.002
   0.21428571  0.14285714  0.00000000       0.009
   0.28571429  0.14285714  0.00000000       0.009
   0.35714286  0.14285714  0.00000000       0.009
   0.42857143  0.14285714  0.00000000       0.009
   0.50000000  0.14285714  0.00000000       0.009
  -0.42857143  0.14285714  0.00000000       0.009
  -0.35714286  0.14285714  0.00000000       0.009
  -0.28571429  0.14285714  0.00000000       0.009
  -0.21428571  0.14285714  0.00000000       0.009
  -0.14285714  0.14285714  0.00000000       0.004
   0.21428571  0.21428571  0.00000000       0.002
   0.28571429  0.21428571  0.00000000       0.009
   0.35714286  0.21428571  0.00000000       0.009
   0.42857143  0.21428571  0.00000000       0.009
   0.50000000  0.21428571  0.00000000       0.009
  -0.42857143  0.21428571  0.00000000       0.009
  -0.35714286  0.21428571  0.00000000       0.009
  -0.28571429  0.21428571  0.00000000       0.009
  -0.21428571  0.21428571  0.00000000       0.004
   0.28571429  0.28571429  0.00000000       0.002
   0.35714286  0.28571429  0.00000000       0.009
   0.42857143  0.28571429  0.00000000       0.009
   0.50000000  0.28571429  0.00000000       0.009
  -0.42857143  0.28571429  0.00000000       0.009
  -0.35714286  0.28571429  0.00000000       0.009
  -0.28571429  0.28571429  0.00000000       0.004
   0.35714286  0.35714286  0.00000000       0.002
   0.42857143  0.35714286  0.00000000       0.009
   0.50000000  0.35714286  0.00000000       0.009
  -0.42857143  0.35714286  0.00000000       0.009
  -0.35714286  0.35714286  0.00000000       0.004
   0.42857143  0.42857143  0.00000000       0.002
   0.50000000  0.42857143  0.00000000       0.009
  -0.42857143  0.42857143  0.00000000       0.004
   0.50000000  0.50000000  0.00000000       0.001
   0.21428571  0.14285714  0.07142857       0.009
   0.28571429  0.14285714  0.07142857       0.017
   0.35714286  0.14285714  0.07142857       0.017
   0.42857143  0.14285714  0.07142857       0.017
   0.50000000  0.14285714  0.07142857       0.017
  -0.42857143  0.14285714  0.07142857       0.009
   0.28571429  0.21428571  0.07142857       0.009
   0.35714286  0.21428571  0.07142857       0.017
   0.42857143  0.21428571  0.07142857       0.017
   0.50000000  0.21428571  0.07142857       0.017
  -0.42857143  0.21428571  0.07142857       0.017
  -0.35714286  0.21428571  0.07142857       0.017
  -0.28571429  0.21428571  0.07142857       0.017
  -0.21428571  0.21428571  0.07142857       0.017
  -0.14285714  0.21428571  0.07142857       0.009
   0.35714286  0.28571429  0.07142857       0.009
   0.42857143  0.28571429  0.07142857       0.017
   0.50000000  0.28571429  0.07142857       0.017
  -0.42857143  0.28571429  0.07142857       0.017
  -0.35714286  0.28571429  0.07142857       0.017
  -0.28571429  0.28571429  0.07142857       0.017
  -0.21428571  0.28571429  0.07142857       0.009
   0.42857143  0.35714286  0.07142857       0.009
   0.50000000  0.35714286  0.07142857       0.017
  -0.42857143  0.35714286  0.07142857       0.017
  -0.35714286  0.35714286  0.07142857       0.017
  -0.28571429  0.35714286  0.07142857       0.009
   0.50000000  0.42857143  0.07142857       0.009
  -0.42857143  0.42857143  0.07142857       0.017
  -0.35714286  0.42857143  0.07142857       0.009
  -0.42857143  0.50000000  0.07142857       0.004
   0.42857143  0.28571429  0.14285714       0.009
   0.50000000  0.28571429  0.14285714       0.017
  -0.42857143  0.28571429  0.14285714       0.017
  -0.35714286  0.28571429  0.14285714       0.009
   0.50000000  0.35714286  0.14285714       0.009
  -0.42857143  0.35714286  0.14285714       0.017
  -0.35714286  0.35714286  0.14285714       0.017
  -0.28571429  0.35714286  0.14285714       0.017
  -0.21428571  0.35714286  0.14285714       0.009
  -0.42857143  0.42857143  0.14285714       0.009
  -0.35714286  0.42857143  0.14285714       0.017
  -0.28571429  0.42857143  0.14285714       0.009
  -0.35714286  0.50000000  0.14285714       0.004
  -0.35714286  0.42857143  0.21428571       0.009
  -0.28571429  0.42857143  0.21428571       0.009
  -0.28571429  0.50000000  0.21428571       0.004

 position of ions in fractional coordinates (direct lattice) 
   0.00000000  0.00000000  0.00000000

 position of ions in cartesian coordinates  (Angst):
   0.00000000  0.00000000  0.00000000



--------------------------------------------------------------------------------------------------------


 k-point   1 :   0.0000 0.0000 0.0000  plane waves:     459
 k-point   2 :   0.0714 0.0000 0.0000  plane waves:     447
 k-point   3 :   0.1429 0.0000 0.0000  plane waves:     456
 k-point   4 :   0.2143 0.0000 0.0000  plane waves:     459
 k-point   5 :   0.2857 0.0000 0.0000  plane waves:     456
 k-point   6 :   0.3571 0.0000 0.0000  plane waves:     449
 k-point   7 :   0.4286 0.0000 0.0000  plane waves:     449
 k-point   8 :   0.5000 0.0000 0.0000  plane waves:     434
 k-point   9 :   0.0714 0.0714 0.0000  plane waves:     443
 k-point  10 :   0.1429 0.0714 0.0000  plane waves:     456
 k-point  11 :   0.2143 0.0714 0.0000  plane waves:     454
 k-point  12 :   0.2857 0.0714 0.0000  plane waves:     451
 k-point  13 :   0.3571 0.0714 0.0000  plane waves:     445
 k-point  14 :   0.4286 0.0714 0.0000  plane waves:     444
 k-point  15 :   0.5000 0.0714 0.0000  plane waves:     449
 k-point  16 :  -0.4286 0.0714 0.0000  plane waves:     451
 k-point  17 :  -0.3571 0.0714 0.0000  plane waves:     443
 k-point  18 :  -0.2857 0.0714 0.0000  plane waves:     449
 k-point  19 :  -0.2143 0.0714 0.0000  plane waves:     456
 k-point  20 :  -0.1429 0.0714 0.0000  plane waves:     455
 k-point  21 :  -0.0714 0.0714 0.0000  plane waves:     449
 k-point  22 :   0.1429 0.1429 0.0000  plane waves:     451
 k-point  23 :   0.2143 0.1429 0.0000  plane waves:     454
 k-point  24 :   0.2857 0.1429 0.0000  plane waves:     444
 k-point  25 :   0.3571 0.1429 0.0000  plane waves:     451
 k-point  26 :   0.4286 0.1429 0.0000  plane waves:     446
 k-point  27 :   0.5000 0.1429 0.0000  plane waves:     445
 k-point  28 :  -0.4286 0.1429 0.0000  plane waves:     446
 k-point  29 :  -0.3571 0.1429 0.0000  plane waves:     444
 k-point  30 :  -0.2857 0.1429 0.0000  plane waves:     449
 k-point  31 :  -0.2143 0.1429 0.0000  plane waves:     449
 k-point  32 :  -0.1429 0.1429 0.0000  plane waves:     449
 k-point  33 :   0.2143 0.2143 0.0000  plane waves:     455
 k-point  34 :   0.2857 0.2143 0.0000  plane waves:     445
 k-point  35 :   0.3571 0.2143 0.0000  plane waves:     447
 k-point  36 :   0.4286 0.2143 0.0000  plane waves:     448
 k-point  37 :   0.5000 0.2143 0.0000  plane waves:     447
 k-point  38 :  -0.4286 0.2143 0.0000  plane waves:     445
 k-point  39 :  -0.3571 0.2143 0.0000  plane waves:     443
 k-point  40 :  -0.2857 0.2143 0.0000  plane waves:     442
 k-point  41 :  -0.2143 0.2143 0.0000  plane waves:     449
 k-point  42 :   0.2857 0.2857 0.0000  plane waves:     444
 k-point  43 :   0.3571 0.2857 0.0000  plane waves:     441
 k-point  44 :   0.4286 0.2857 0.0000  plane waves:     448
 k-point  45 :   0.5000 0.2857 0.0000  plane waves:     443
 k-point  46 :  -0.4286 0.2857 0.0000  plane waves:     448
 k-point  47 :  -0.3571 0.2857 0.0000  plane waves:     449
 k-point  48 :  -0.2857 0.2857 0.0000  plane waves:     441
 k-point  49 :   0.3571 0.3571 0.0000  plane waves:     444
 k-point  50 :   0.4286 0.3571 0.0000  plane waves:     453
 k-point  51 :   0.5000 0.3571 0.0000  plane waves:     450
 k-point  52 :  -0.4286 0.3571 0.0000  plane waves:     445
 k-point  53 :  -0.3571 0.3571 0.0000  plane waves:     444
 k-point  54 :   0.4286 0.4286 0.0000  plane waves:     452
 k-point  55 :   0.5000 0.4286 0.0000  plane waves:     454
 k-point  56 :  -0.4286 0.4286 0.0000  plane waves:     448
 k-point  57 :   0.5000 0.5000 0.0000  plane waves:     444
 k-point  58 :   0.2143 0.1429 0.0714  plane waves:     454
 k-point  59 :   0.2857 0.1429 0.0714  plane waves:     453
 k-point  60 :   0.3571 0.1429 0.0714  plane waves:     448
 k-point  61 :   0.4286 0.1429 0.0714  plane waves:     442
 k-point  62 :   0.5000 0.1429 0.0714  plane waves:     446
 k-point  63 :  -0.4286 0.1429 0.0714  plane waves:     448
 k-point  64 :   0.2857 0.2143 0.0714  plane waves:     451
 k-point  65 :   0.3571 0.2143 0.0714  plane waves:     449
 k-point  66 :   0.4286 0.2143 0.0714  plane waves:     444
 k-point  67 :   0.5000 0.2143 0.0714  plane waves:     445
 k-point  68 :  -0.4286 0.2143 0.0714  plane waves:     443
 k-point  69 :  -0.3571 0.2143 0.0714  plane waves:     442
 k-point  70 :  -0.2857 0.2143 0.0714  plane waves:     442
 k-point  71 :  -0.2143 0.2143 0.0714  plane waves:     446
 k-point  72 :  -0.1429 0.2143 0.0714  plane waves:     449
 k-point  73 :   0.3571 0.2857 0.0714  plane waves:     445
 k-point  74 :   0.4286 0.2857 0.0714  plane waves:     446
 k-point  75 :   0.5000 0.2857 0.0714  plane waves:     445
 k-point  76 :  -0.4286 0.2857 0.0714  plane waves:     446
 k-point  77 :  -0.3571 0.2857 0.0714  plane waves:     443
 k-point  78 :  -0.2857 0.2857 0.0714  plane waves:     442
 k-point  79 :  -0.2143 0.2857 0.0714  plane waves:     442
 k-point  80 :   0.4286 0.3571 0.0714  plane waves:     444
 k-point  81 :   0.5000 0.3571 0.0714  plane waves:     448
 k-point  82 :  -0.4286 0.3571 0.0714  plane waves:     443
 k-point  83 :  -0.3571 0.3571 0.0714  plane waves:     445
 k-point  84 :  -0.2857 0.3571 0.0714  plane waves:     445
 k-point  85 :   0.5000 0.4286 0.0714  plane waves:     452
 k-point  86 :  -0.4286 0.4286 0.0714  plane waves:     450
 k-point  87 :  -0.3571 0.4286 0.0714  plane waves:     443
 k-point  88 :  -0.4286 0.5000 0.0714  plane waves:     454
 k-point  89 :   0.4286 0.2857 0.1429  plane waves:     453
 k-point  90 :   0.5000 0.2857 0.1429  plane waves:     443
 k-point  91 :  -0.4286 0.2857 0.1429  plane waves:     444
 k-point  92 :  -0.3571 0.2857 0.1429  plane waves:     442
 k-point  93 :   0.5000 0.3571 0.1429  plane waves:     448
 k-point  94 :  -0.4286 0.3571 0.1429  plane waves:     446
 k-point  95 :  -0.3571 0.3571 0.1429  plane waves:     447
 k-point  96 :  -0.2857 0.3571 0.1429  plane waves:     444
 k-point  97 :  -0.2143 0.3571 0.1429  plane waves:     442
 k-point  98 :  -0.4286 0.4286 0.1429  plane waves:     447
 k-point  99 :  -0.3571 0.4286 0.1429  plane waves:     441
 k-point 100 :  -0.2857 0.4286 0.1429  plane waves:     445
 k-point 101 :  -0.3571 0.5000 0.1429  plane waves:     448
 k-point 102 :  -0.3571 0.4286 0.2143  plane waves:     444
 k-point 103 :  -0.2857 0.4286 0.2143  plane waves:     450
 k-point 104 :  -0.2857 0.5000 0.2143  plane waves:     450

 maximum and minimum number of plane-waves per node :       459      434

 maximum number of plane-waves:       459
 maximum index in each direction: 
   IXMAX=    5   IYMAX=    5   IZMAX=    5
   IXMIN=   -5   IYMIN=   -5   IZMIN=   -5


 serial   3D FFT for wavefunctions
 parallel 3D FFT for charge:
    minimum data exchange during FFTs selected (reduces bandwidth)


 total amount of memory used by VASP MPI-rank0    36410. kBytes
=======================================================================

   base      :      30000. kBytes
   nonl-proj :       3202. kBytes
   fftplans  :        150. kBytes
   grid      :       1295. kBytes
   one-center:          6. kBytes
   wavefun   :       1757. kBytes

     INWAV:  cpu time    0.0000: real time    0.0001
 Broyden mixing: mesh for mixing (old mesh)
   NGX = 11   NGY = 11   NGZ = 11
  (NGX  = 48   NGY  = 48   NGZ  = 48)
  gives a total of   1331 points

 initial charge density was supplied:
 charge density of overlapping atoms calculated
 number of electron       3.0000000 magnetization       0.6000000
 keeping initial charge density in first step


--------------------------------------------------------------------------------------------------------


 Maximum index for augmentation-charges         1111 (set IRDMAX)


--------------------------------------------------------------------------------------------------------


 First call to EWALD:  gamma=   0.695
 Maximum number of real-space cells 3x 3x 3
 Maximum number of reciprocal cells 3x 3x 3

    FEWALD:  cpu time    0.0007: real time    0.0007


--------------------------------------- Iteration      1(   1)  ---------------------------------------


    POTLOK:  cpu time    0.0172: real time    0.0178
    SETDIJ:  cpu time    0.1937: real time    0.1941
     EDDAV:  cpu time   17.7275: real time   17.7278
 BZINTS: Fermi energy:    8.039977;    3.000000 electrons
         Band energy: 0.107696E+02;  BLOECHL correction:   -0.081023
       DOS:  cpu time    0.0762: real time    0.0766
    --------------------------------------------
      LOOP:  cpu time   18.0147: real time   18.0162

 eigenvalue-minimisations  : 28656
 total energy-change (2. order) :-0.3632511E+01  (-0.8519256E+02)
 number of electron       3.0000000 magnetization       0.6000000
 augmentation part        3.0000000 magnetization       0.6000000

 Free energy of the ion-electron system (eV)
  ---------------------------------------------------
  alpha Z        PSCENC =        -0.20254611
  Ewald energy   TEWEN  =       -73.39295237
  -Hartree energ DENC   =        -0.10329695
  -exchange      EXHF   =         0.00000000
  -V(xc)+E(xc)   XCENC  =       -26.19545267
  PAW double counting   =        66.16230985      -34.20858819
  entropy T*S    EENTRO =         0.00000000
  eigenvalues    EBANDS =        10.76955806
  atomic energy  EATOM  =        53.53845706
  Solvation  Ediel_sol  =         0.00000000
  ---------------------------------------------------
  free energy    TOTEN  =        -3.63251132 eV

  energy without entropy =       -3.63251132  energy(sigma->0) =       -3.63251132


--------------------------------------------------------------------------------------------------------




--------------------------------------- Iteration      1(   2)  ---------------------------------------


     EDDAV:  cpu time   14.1545: real time   14.1546
 BZINTS: Fermi energy:    8.011258;    3.000000 electrons
         Band energy: 0.107194E+02;  BLOECHL correction:   -0.080798
       DOS:  cpu time    0.0836: real time    0.0837
    --------------------------------------------
      LOOP:  cpu time   14.2381: real time   14.2383

 eigenvalue-minimisations  : 24960
 total energy-change (2. order) :-0.5014905E-01  (-0.5008372E-01)
 number of electron       3.0000000 magnetization       0.6000000
 augmentation part        3.0000000 magnetization       0.6000000

 Free energy of the ion-electron system (eV)
  ---------------------------------------------------
  alpha Z        PSCENC =        -0.20254611
  Ewald energy   TEWEN  =       -73.39295237
  -Hartree energ DENC   =        -0.10329695
  -exchange      EXHF   =         0.00000000
  -V(xc)+E(xc)   XCENC  =       -26.19545267
  PAW double counting   =        66.16230985      -34.20858819
  entropy T*S    EENTRO =         0.00000000
  eigenvalues    EBANDS =        10.71940901
  atomic energy  EATOM  =        53.53845706
  Solvation  Ediel_sol  =         0.00000000
  ---------------------------------------------------
  free energy    TOTEN  =        -3.68266038 eV

  energy without entropy =       -3.68266038  energy(sigma->0) =       -3.68266038


--------------------------------------------------------------------------------------------------------




--------------------------------------- Iteration      1(   3)  ---------------------------------------


     EDDAV:  cpu time   26.1852: real time   26.1849
 BZINTS: Fermi energy:    8.011257;    3.000000 electrons
         Band energy: 0.107194E+02;  BLOECHL correction:   -0.080798
       DOS:  cpu time    0.0817: real time    0.0819
    --------------------------------------------
      LOOP:  cpu time   26.2669: real time   26.2668

 eigenvalue-minimisations  : 31248
 total energy-change (2. order) :-0.2168518E-05  (-0.2178241E-05)
 number of electron       3.0000000 magnetization       0.6000000
 augmentation part        3.0000000 magnetization       0.6000000

 Free energy of the ion-electron system (eV)
  ---------------------------------------------------
  alpha Z        PSCENC =        -0.20254611
  Ewald energy   TEWEN  =       -73.39295237
  -Hartree energ DENC   =        -0.10329695
  -exchange      EXHF   =         0.00000000
  -V(xc)+E(xc)   XCENC  =       -26.19545267
  PAW double counting   =        66.16230985      -34.20858819
  entropy T*S    EENTRO =         0.00000000
  eigenvalues    EBANDS =        10.71940684
  atomic energy  EATOM  =        53.53845706
  Solvation  Ediel_sol  =         0.00000000
  ---------------------------------------------------
  free energy    TOTEN  =        -3.68266254 eV

  energy without entropy =       -3.68266254  energy(sigma->0) =       -3.68266254


--------------------------------------------------------------------------------------------------------




--------------------------------------- Iteration      1(   4)  ---------------------------------------


     EDDAV:  cpu time   20.2642: real time   20.2641
 BZINTS: Fermi energy:    8.011257;    3.000000 electrons
         Band energy: 0.107194E+02;  BLOECHL correction:   -0.080798
       DOS:  cpu time    0.0855: real time    0.0857
    --------------------------------------------
      LOOP:  cpu time   20.3497: real time   20.3498

 eigenvalue-minimisations  : 27984
 total energy-change (2. order) :-0.2636682E-09  (-0.1015288E-10)
 number of electron       3.0000000 magnetization       0.6000000
 augmentation part        3.0000000 magnetization       0.6000000

 Free energy of the ion-electron system (eV)
  ---------------------------------------------------
  alpha Z        PSCENC =        -0.20254611
  Ewald energy   TEWEN  =       -73.39295237
  -Hartree energ DENC   =        -0.10329695
  -exchange      EXHF   =         0.00000000
  -V(xc)+E(xc)   XCENC  =       -26.19545267
  PAW double counting   =        66.16230985      -34.20858819
  entropy T*S    EENTRO =         0.00000000
  eigenvalues    EBANDS =        10.71940684
  atomic energy  EATOM  =        53.53845706
  Solvation  Ediel_sol  =         0.00000000
  ---------------------------------------------------
  free energy    TOTEN  =        -3.68266254 eV

  energy without entropy =       -3.68266254  energy(sigma->0) =       -3.68266254


--------------------------------------------------------------------------------------------------------




--------------------------------------- Iteration      1(   5)  ---------------------------------------


     EDDAV:  cpu time   25.7314: real time   25.7313
 BZINTS: Fermi energy:    8.011257;    3.000000 electrons
         Band energy: 0.107194E+02;  BLOECHL correction:   -0.080798
       DOS:  cpu time    0.0856: real time    0.0858
    CHARGE:  cpu time    0.0694: real time    0.0697
    MIXING:  cpu time    0.0009: real time    0.0010
    --------------------------------------------
      LOOP:  cpu time   25.8872: real time   25.8878

 eigenvalue-minimisations  : 30432
 total energy-change (2. order) : 0.3528271E-09  ( 0.1601279E-12)
 number of electron       3.0000000 magnetization      -0.0435689
 augmentation part       -0.0369199 magnetization      -0.1856600

 Broyden mixing:
  rms(total) = 0.17391E+00    rms(broyden)= 0.17391E+00
  rms(prec ) = 0.38162E+00
  weight for this iteration     100.00

 Free energy of the ion-electron system (eV)
  ---------------------------------------------------
  alpha Z        PSCENC =        -0.20254611
  Ewald energy   TEWEN  =       -73.39295237
  -Hartree energ DENC   =        -0.10329695
  -exchange      EXHF   =         0.00000000
  -V(xc)+E(xc)   XCENC  =       -26.19545267
  PAW double counting   =        66.16230985      -34.20858819
  entropy T*S    EENTRO =         0.00000000
  eigenvalues    EBANDS =        10.71940684
  atomic energy  EATOM  =        53.53845706
  Solvation  Ediel_sol  =         0.00000000
  ---------------------------------------------------
  free energy    TOTEN  =        -3.68266254 eV

  energy without entropy =       -3.68266254  energy(sigma->0) =       -3.68266254


--------------------------------------------------------------------------------------------------------




--------------------------------------- Iteration      1(   6)  ---------------------------------------


    POTLOK:  cpu time    0.0071: real time    0.0073
    SETDIJ:  cpu time    0.1521: real time    0.1521
    EDDIAG:  cpu time    0.7785: real time    0.7802
  RMM-DIIS:  cpu time    0.3725: real time    0.3725
    ORTHCH:  cpu time    0.1098: real time    0.1098
 BZINTS: Fermi energy:    7.994952;    3.000000 electrons
         Band energy: 0.106556E+02;  BLOECHL correction:   -0.073240
       DOS:  cpu time    0.0852: real time    0.0854
    CHARGE:  cpu time    0.0660: real time    0.0660
    MIXING:  cpu time    0.0004: real time    0.0004
    --------------------------------------------
      LOOP:  cpu time    1.5717: real time    1.5737

 eigenvalue-minimisations  : 19973
 total energy-change (2. order) :-0.6648777E-01  (-0.2395930E-03)
 number of electron       3.0000000 magnetization       0.0495069
 augmentation part       -0.0370084 magnetization       0.0561921

 Broyden mixing:
  rms(total) = 0.82882E-01    rms(broyden)= 0.82882E-01
  rms(prec ) = 0.23301E+00
  weight for this iteration     100.00

 eigenvalues of (default mixing * dielectric matrix)
  average eigenvalue GAMMA=   0.9108
  0.9108

 Free energy of the ion-electron system (eV)
  ---------------------------------------------------
  alpha Z        PSCENC =        -0.20254611
  Ewald energy   TEWEN  =       -73.39295237
  -Hartree energ DENC   =        -0.08628599
  -exchange      EXHF   =         0.00000000
  -V(xc)+E(xc)   XCENC  =       -26.21304374
  PAW double counting   =        94.48059616      -62.52892768
  entropy T*S    EENTRO =         0.00000000
  eigenvalues    EBANDS =        10.65555236
  atomic energy  EATOM  =        53.53845706
  Solvation  Ediel_sol  =         0.00000000
  ---------------------------------------------------
  free energy    TOTEN  =        -3.74915032 eV

  energy without entropy =       -3.74915032  energy(sigma->0) =       -3.74915032


--------------------------------------------------------------------------------------------------------




--------------------------------------- Iteration      1(   7)  ---------------------------------------


    POTLOK:  cpu time    0.0072: real time    0.0074
    SETDIJ:  cpu time    0.1505: real time    0.1505
    EDDIAG:  cpu time    0.7648: real time    0.7648
  RMM-DIIS:  cpu time    0.4239: real time    0.4239
    ORTHCH:  cpu time    0.1390: real time    0.1390
 BZINTS: Fermi energy:    7.983271;    3.000000 electrons
         Band energy: 0.106257E+02;  BLOECHL correction:   -0.073446
       DOS:  cpu time    0.0872: real time    0.0873
    CHARGE:  cpu time    0.0659: real time    0.0659
    MIXING:  cpu time    0.0002: real time    0.0002
    --------------------------------------------
      LOOP:  cpu time    1.6387: real time    1.6391

 eigenvalue-minimisations  : 20867
 total energy-change (2. order) : 0.8602424E-02  (-0.9240256E-04)
 number of electron       3.0000000 magnetization       0.0097588
 augmentation part       -0.0377134 magnetization       0.0026191

 Broyden mixing:
  rms(total) = 0.66281E-01    rms(broyden)= 0.66281E-01
  rms(prec ) = 0.97250E-01
  weight for this iteration     100.00

 eigenvalues of (default mixing * dielectric matrix)
  average eigenvalue GAMMA=   0.9396
  1.2031  0.6760

 Free energy of the ion-electron system (eV)
  ---------------------------------------------------
  alpha Z        PSCENC =        -0.20254611
  Ewald energy   TEWEN  =       -73.39295237
  -Hartree energ DENC   =        -0.09208343
  -exchange      EXHF   =         0.00000000
  -V(xc)+E(xc)   XCENC  =       -26.16504718
  PAW double counting   =       131.49383756      -99.54586797
  entropy T*S    EENTRO =         0.00000000
  eigenvalues    EBANDS =        10.62565455
  atomic energy  EATOM  =        53.53845706
  Solvation  Ediel_sol  =         0.00000000
  ---------------------------------------------------
  free energy    TOTEN  =        -3.74054789 eV

  energy without entropy =       -3.74054789  energy(sigma->0) =       -3.74054789


--------------------------------------------------------------------------------------------------------




--------------------------------------- Iteration      1(   8)  ---------------------------------------


    POTLOK:  cpu time    0.0065: real time    0.0067
    SETDIJ:  cpu time    0.1589: real time    0.1589
    EDDIAG:  cpu time    0.7765: real time    0.7765
  RMM-DIIS:  cpu time    0.4473: real time    0.4473
    ORTHCH:  cpu time    0.1099: real time    0.1099
 BZINTS: Fermi energy:    7.979933;    3.000000 electrons
         Band energy: 0.106176E+02;  BLOECHL correction:   -0.073507
       DOS:  cpu time    0.0881: real time    0.0883
    CHARGE:  cpu time    0.0668: real time    0.0668
    MIXING:  cpu time    0.0003: real time    0.0003
    --------------------------------------------
      LOOP:  cpu time    1.6544: real time    1.6548

 eigenvalue-minimisations  : 20657
 total energy-change (2. order) : 0.1981423E-03  (-0.2005486E-04)
 number of electron       3.0000000 magnetization      -0.0018216
 augmentation part       -0.0380021 magnetization      -0.0043238

 Broyden mixing:
  rms(total) = 0.20803E-01    rms(broyden)= 0.20803E-01
  rms(prec ) = 0.24795E-01
  weight for this iteration     100.00

 eigenvalues of (default mixing * dielectric matrix)
  average eigenvalue GAMMA=   1.2770
  2.2785  0.9270  0.6256

 Free energy of the ion-electron system (eV)
  ---------------------------------------------------
  alpha Z        PSCENC =        -0.20254611
  Ewald energy   TEWEN  =       -73.39295237
  -Hartree energ DENC   =        -0.10210591
  -exchange      EXHF   =         0.00000000
  -V(xc)+E(xc)   XCENC  =       -26.14492205
  PAW double counting   =       145.35033837     -113.40426706
  entropy T*S    EENTRO =         0.00000000
  eigenvalues    EBANDS =        10.61764832
  atomic energy  EATOM  =        53.53845706
  Solvation  Ediel_sol  =         0.00000000
  ---------------------------------------------------
  free energy    TOTEN  =        -3.74034975 eV

  energy without entropy =       -3.74034975  energy(sigma->0) =       -3.74034975


--------------------------------------------------------------------------------------------------------




--------------------------------------- Iteration      1(   9)  ---------------------------------------


    POTLOK:  cpu time    0.0070: real time    0.0073
    SETDIJ:  cpu time    0.1521: real time    0.1521
    EDDIAG:  cpu time    0.8069: real time    0.8069
  RMM-DIIS:  cpu time    0.5351: real time    0.5351
    ORTHCH:  cpu time    0.1079: real time    0.1079
 BZINTS: Fermi energy:    7.979482;    3.000000 electrons
         Band energy: 0.106167E+02;  BLOECHL correction:   -0.073523
       DOS:  cpu time    0.0828: real time    0.0829
    --------------------------------------------
      LOOP:  cpu time    1.6917: real time    1.6921

 eigenvalue-minimisations  : 21620
 total energy-change (2. order) : 0.1032024E-04  (-0.2662571E-05)
 number of electron       3.0000000 magnetization      -0.0018216
 augmentation part       -0.0380021 magnetization      -0.0043238

 Free energy of the ion-electron system (eV)
  ---------------------------------------------------
  alpha Z        PSCENC =        -0.20254611
  Ewald energy   TEWEN  =       -73.39295237
  -Hartree energ DENC   =        -0.10502876
  -exchange      EXHF   =         0.00000000
  -V(xc)+E(xc)   XCENC  =       -26.14011413
  PAW double counting   =       145.44284259     -113.49773731
  entropy T*S    EENTRO =         0.00000000
  eigenvalues    EBANDS =        10.61673960
  atomic energy  EATOM  =        53.53845706
  Solvation  Ediel_sol  =         0.00000000
  ---------------------------------------------------
  free energy    TOTEN  =        -3.74033943 eV

  energy without entropy =       -3.74033943  energy(sigma->0) =       -3.74033943


--------------------------------------------------------------------------------------------------------




 average (electrostatic) potential at core
  the test charge radii are     1.0406
  (the norm of the test charge is              1.0000)
       1 -72.6952



 E-fermi :   7.9795     XC(G=0): -10.1785     alpha+bet :-14.8020

 Fermi energy:         7.9794820177

 spin component 1

 k-point     1 :       0.0000    0.0000    0.0000
  band No.  band energies     occupation 
      1      -3.1516      1.00000
      2      20.5400      0.00000
      3      20.5400      0.00000
      4      20.5400      0.00000
      5      21.9945      0.00000
      6      21.9945      0.00000
      7      21.9945      0.00000
      8      24.3774      0.00000
      9      27.3147      0.00000
     10      27.3147      0.00000
     11      30.1605      0.00000
     12      32.5107      0.00000
     13      32.5107      0.00000
     14      32.5107      0.00000
     15      41.0619      0.00000
     16      56.0145      0.00000
     17      56.0145      0.00000
     18      56.0145      0.00000
     19      56.0499      0.00000
     20      59.2130      0.00000
     21      59.2130      0.00000
     22      59.2130      0.00000
     23      62.8335      0.00000
     24      62.8335      0.00000
     25      65.0771      0.00000
     26      65.0771      0.00000
     27      65.0771      0.00000
     28      73.1775      0.00000
     29      73.1775      0.00000
     30      73.1775      0.00000
     31      80.8188      0.00000
     32      83.0771      0.00000
     33      83.0771      0.00000
     34      87.2056      0.00000
     35      87.2056      0.00000
     36      87.2056      0.00000
     37      90.0889      0.00000
     38      90.0889      0.00000
     39      90.0889      0.00000
     40      90.8971      0.00000
     41      93.4599      0.00000
     42      93.4599      0.00000
     43      93.4599      0.00000
     44      93.9352      0.00000
     45      93.9352      0.00000
     46      93.9352      0.00000
     47      96.3742      0.00000
     48      96.3742      0.00000

 k-point     2 :       0.0714    0.0000    0.0000
  band No.  band energies     occupation 
      1      -3.0134      1.00000
      2      18.3990      0.00000
      3      20.0765      0.00000
      4      20.0765      0.00000
      5      22.6481      0.00000
      6      22.6709      0.00000
      7      22.6709      0.00000
      8      25.7679      0.00000
      9      26.5608      0.00000
     10      26.5608      0.00000
     11      29.6672      0.00000
     12      33.2057      0.00000
     13      33.5437      0.00000
     14      33.5437      0.00000
     15      41.6135      0.00000
     16      55.5020      0.00000
     17      55.8334      0.00000
     18      55.8334      0.00000
     19      56.3081      0.00000
     20      57.7950      0.00000
     21      57.7950      0.00000
     22      59.2176      0.00000
     23      61.6964      0.00000
     24      61.6964      0.00000
     25      65.2010      0.00000
     26      67.9164      0.00000
     27      67.9164      0.00000
     28      72.0664      0.00000
     29      73.0504      0.00000
     30      73.0504      0.00000
     31      82.0503      0.00000
     32      82.3247      0.00000
     33      82.3247      0.00000
     34      84.6264      0.00000
     35      86.2304      0.00000
     36      86.2304      0.00000
     37      88.6611      0.00000
     38      88.6611      0.00000
     39      89.9675      0.00000
     40      90.2182      0.00000
     41      91.7459      0.00000
     42      91.7459      0.00000
     43      92.5355      0.00000
     44      95.3199      0.00000
     45      95.3199      0.00000
     46      96.3287      0.00000
     47      96.3287      0.00000
     48      96.5236      0.00000

 k-point     3 :       0.1429    0.0000    0.0000
  band No.  band energies     occupation 
      1      -2.5995      1.00000
      2      15.5205      0.00000
      3      19.4403      0.00000
      4      19.4403      0.00000
      5      22.5630      0.00000
      6      23.7942      0.00000
      7      23.7942      0.00000
      8      25.2965      0.00000
      9      25.2965      0.00000
     10      28.4774      0.00000
     11      28.5833      0.00000
     12      35.0338      0.00000
     13      35.7860      0.00000
     14      35.7860      0.00000
     15      43.0796      0.00000
     16      53.6409      0.00000
     17      53.6409      0.00000
     18      54.5554      0.00000
     19      56.4662      0.00000
     20      56.4891      0.00000
     21      56.4891      0.00000
     22      59.0795      0.00000
     23      61.5791      0.00000
     24      61.5791      0.00000
     25      65.5692      0.00000
     26      70.0125      0.00000
     27      71.1078      0.00000
     28      71.1078      0.00000
     29      73.0122      0.00000
     30      73.0122      0.00000
     31      80.1042      0.00000
     32      80.1042      0.00000
     33      80.4786      0.00000
     34      84.2589      0.00000
     35      84.2589      0.00000
     36      85.5450      0.00000
     37      86.5515      0.00000
     38      86.7568      0.00000
     39      86.7568      0.00000
     40      89.4079      0.00000
     41      89.7384      0.00000
     42      90.4303      0.00000
     43      90.4303      0.00000
     44      94.0159      0.00000
     45      96.8118      0.00000
     46      96.8118      0.00000
     47      98.6465      0.00000
     48      98.6465      0.00000

 k-point     4 :       0.2143    0.0000    0.0000
  band No.  band energies     occupation 
      1      -1.9124      1.00000
      2      12.7176      0.00000
      3      18.9735      0.00000
      4      18.9735      0.00000
      5      22.3386      0.00000
      6      23.2982      0.00000
      7      23.2982      0.00000
      8      25.9250      0.00000
      9      25.9250      0.00000
     10      27.3001      0.00000
     11      31.1970      0.00000
     12      37.7778      0.00000
     13      38.5116      0.00000
     14      38.5116      0.00000
     15      45.1293      0.00000
     16      50.0880      0.00000
     17      50.0880      0.00000
     18      53.2195      0.00000
     19      56.3736      0.00000
     20      56.3736      0.00000
     21      56.6215      0.00000
     22      58.5955      0.00000
     23      61.8795      0.00000
     24      61.8795      0.00000
     25      66.1674      0.00000
     26      67.9840      0.00000
     27      70.2347      0.00000
     28      70.2347      0.00000
     29      74.5295      0.00000
     30      74.5295      0.00000
     31      77.6699      0.00000
     32      78.6935      0.00000
     33      78.6935      0.00000
     34      81.6175      0.00000
     35      81.6175      0.00000
     36      82.8880      0.00000
     37      83.4555      0.00000
     38      86.8205      0.00000
     39      86.8205      0.00000
     40      88.5994      0.00000
     41      89.4786      0.00000
     42      89.7776      0.00000
     43      89.7776      0.00000
     44      93.5927      0.00000
     45      97.3447      0.00000
     46      97.3447      0.00000
     47     100.4806      0.00000
     48     100.4806      0.00000

 k-point     5 :       0.2857    0.0000    0.0000
  band No.  band energies     occupation 
      1      -0.9560      1.00000
      2      10.0850     -0.00961
      3      18.7225      0.00000
      4      18.7225      0.00000
      5      22.0344      0.00000
      6      22.0344      0.00000
      7      22.2145      0.00000
      8      26.0201      0.00000
      9      27.7067      0.00000
     10      27.7067      0.00000
     11      33.7734      0.00000
     12      41.1607      0.00000
     13      41.3335      0.00000
     14      41.3335      0.00000
     15      46.8437      0.00000
     16      46.8437      0.00000
     17      47.4442      0.00000
     18      51.6266      0.00000
     19      56.3456      0.00000
     20      56.3456      0.00000
     21      56.8108      0.00000
     22      57.7373      0.00000
     23      62.2096      0.00000
     24      62.2096      0.00000
     25      65.9544      0.00000
     26      66.9636      0.00000
     27      67.2260      0.00000
     28      67.2260      0.00000
     29      74.2900      0.00000
     30      74.2900      0.00000
     31      75.1478      0.00000
     32      77.7021      0.00000
     33      78.9106      0.00000
     34      78.9106      0.00000
     35      79.9637      0.00000
     36      79.9637      0.00000
     37      80.7129      0.00000
     38      88.6221      0.00000
     39      88.6221      0.00000
     40      88.7021      0.00000
     41      89.4317      0.00000
     42      89.4317      0.00000
     43      91.2929      0.00000
     44      93.0871      0.00000
     45      97.6141      0.00000
     46      97.6141      0.00000
     47     101.5408      0.00000
     48     102.8360      0.00000

 k-point     6 :       0.3571    0.0000    0.0000
  band No.  band energies     occupation 
      1       0.2646      1.00000
      2       7.6566      0.65521
      3      18.6983      0.00000
      4      18.6983      0.00000
      5      20.9192      0.00000
      6      20.9192      0.00000
      7      22.2790      0.00000
      8      24.8565      0.00000
      9      29.7040      0.00000
     10      29.7040      0.00000
     11      36.2294      0.00000
     12      42.0654      0.00000
     13      42.0654      0.00000
     14      44.7321      0.00000
     15      46.2328      0.00000
     16      46.2328      0.00000
     17      48.4116      0.00000
     18      51.5490      0.00000
     19      56.2881      0.00000
     20      56.2881      0.00000
     21      56.5273      0.00000
     22      57.0378      0.00000
     23      61.5491      0.00000
     24      61.5491      0.00000
     25      63.9229      0.00000
     26      64.5137      0.00000
     27      64.5137      0.00000
     28      67.8832      0.00000
     29      70.1610      0.00000
     30      73.8609      0.00000
     31      73.8609      0.00000
     32      76.5602      0.00000
     33      77.1144      0.00000
     34      77.1144      0.00000
     35      78.4033      0.00000
     36      80.4174      0.00000
     37      80.4174      0.00000
     38      88.5483      0.00000
     39      89.1461      0.00000
     40      89.1461      0.00000
     41      90.5735      0.00000
     42      91.7257      0.00000
     43      91.7257      0.00000
     44      94.1761      0.00000
     45      98.8023      0.00000
     46      98.8023      0.00000
     47     102.2009      0.00000
     48     104.0678      0.00000

 k-point     7 :       0.4286    0.0000    0.0000
  band No.  band energies     occupation 
      1       1.7423      1.00000
      2       5.4511      1.00000
      3      18.9046      0.00000
      4      18.9046      0.00000
      5      20.0192      0.00000
      6      20.0192      0.00000
      7      22.5694      0.00000
      8      23.8739      0.00000
      9      31.6492      0.00000
     10      31.6492      0.00000
     11      38.4084      0.00000
     12      39.8954      0.00000
     13      39.8954      0.00000
     14      46.2402      0.00000
     15      48.7027      0.00000
     16      49.1787      0.00000
     17      49.1787      0.00000
     18      54.3316      0.00000
     19      54.9366      0.00000
     20      55.9128      0.00000
     21      55.9128      0.00000
     22      57.3733      0.00000
     23      58.7284      0.00000
     24      58.7284      0.00000
     25      62.2433      0.00000
     26      64.1869      0.00000
     27      64.1869      0.00000
     28      65.0776      0.00000
     29      68.7363      0.00000
     30      73.6388      0.00000
     31      73.6388      0.00000
     32      75.8111      0.00000
     33      75.8111      0.00000
     34      76.7160      0.00000
     35      76.7608      0.00000
     36      80.5336      0.00000
     37      80.5336      0.00000
     38      88.5499      0.00000
     39      88.9291      0.00000
     40      88.9291      0.00000
     41      89.5013      0.00000
     42      94.2804      0.00000
     43      94.4720      0.00000
     44      94.4720      0.00000
     45     100.7654      0.00000
     46     100.7654      0.00000
     47     104.4111      0.00000
     48     104.4220      0.00000

 k-point     8 :       0.5000    0.0000    0.0000
  band No.  band energies     occupation 
      1       3.3749      1.00000
      2       3.5755      1.00000
      3      19.3051      0.00000
      4      19.3051      0.00000
      5      19.3864      0.00000
      6      19.3864      0.00000
      7      23.0426      0.00000
      8      23.1652      0.00000
      9      32.6713      0.00000
     10      32.6713      0.00000
     11      38.6894      0.00000
     12      38.6894      0.00000
     13      39.4852      0.00000
     14      45.4041      0.00000
     15      50.5666      0.00000
     16      51.5341      0.00000
     17      51.5341      0.00000
     18      53.4986      0.00000
     19      54.6494      0.00000
     20      54.6494      0.00000
     21      56.2422      0.00000
     22      57.4996      0.00000
     23      57.4996      0.00000
     24      58.4210      0.00000
     25      60.6120      0.00000
     26      62.6279      0.00000
     27      64.2741      0.00000
     28      64.2741      0.00000
     29      69.1232      0.00000
     30      73.5790      0.00000
     31      73.5790      0.00000
     32      75.3330      0.00000
     33      75.3330      0.00000
     34      76.0517      0.00000
     35      76.9481      0.00000
     36      80.5442      0.00000
     37      80.5442      0.00000
     38      88.6868      0.00000
     39      88.8481      0.00000
     40      88.8481      0.00000
     41      88.9406      0.00000
     42      94.1317      0.00000
     43      95.5453      0.00000
     44      95.5453      0.00000
     45     101.3584      0.00000
     46     101.3584      0.00000
     47     107.1798      0.00000
     48     107.1798      0.00000

 k-point     9 :       0.0714    0.0714    0.0000
  band No.  band energies     occupation 
      1      -2.9673      1.00000
      2      19.1113      0.00000
      3      19.1113      0.00000
      4      19.4110      0.00000
      5      21.5640      0.00000
      6      23.6921      0.00000
      7      23.6921      0.00000
      8      25.2394      0.00000
      9      25.8746      0.00000
     10      27.4853      0.00000
     11      30.3288      0.00000
     12      32.7224      0.00000
     13      32.7224      0.00000
     14      34.7412      0.00000
     15      41.8553      0.00000
     16      55.5705      0.00000
     17      55.5966      0.00000
     18      55.5966      0.00000
     19      56.4379      0.00000
     20      57.8682      0.00000
     21      57.8682      0.00000
     22      59.0719      0.00000
     23      59.3341      0.00000
     24      62.8014      0.00000
     25      66.7518      0.00000
     26      66.7518      0.00000
     27      69.0822      0.00000
     28      71.2591      0.00000
     29      73.3442      0.00000
     30      73.3442      0.00000
     31      81.1541      0.00000
     32      82.7395      0.00000
     33      83.3045      0.00000
     34      84.1254      0.00000
     35      84.1254      0.00000
     36      84.6402      0.00000
     37      89.9167      0.00000
     38      89.9167      0.00000
     39      89.9355      0.00000
     40      90.7202      0.00000
     41      90.7202      0.00000
     42      92.1511      0.00000
     43      92.6448      0.00000
     44      93.7524      0.00000
     45      94.3053      0.00000
     46      97.1497      0.00000
     47      97.1497      0.00000
     48      98.7783      0.00000

 k-point    10 :       0.1429    0.0714    0.0000
[...]
     15      45.3244      0.00000
     16      47.6336      0.00000
     17      50.3054      0.00000
     18      52.6543      0.00000
     19      53.6846      0.00000
     20      54.4595      0.00000
     21      54.9811      0.00000
     22      55.8921      0.00000
     23      57.4095      0.00000
     24      58.2114      0.00000
     25      59.5109      0.00000
     26      61.9057      0.00000
     27      62.5649      0.00000
     28      63.3258      0.00000
     29      65.6970      0.00000
     30      67.3092      0.00000
     31      70.0868      0.00000
     32      72.3005      0.00000
     33      74.4279      0.00000
     34      78.3016      0.00000
     35      80.7283      0.00000
     36      83.4416      0.00000
     37      86.6132      0.00000
     38      87.4452      0.00000
     39      89.7094      0.00000
     40      91.1547      0.00000
     41      94.9691      0.00000
     42      95.7916      0.00000
     43      97.3877      0.00000
     44      99.3439      0.00000
     45     100.0420      0.00000
     46     101.8472      0.00000
     47     102.4466      0.00000
     48     105.9589      0.00000

 k-point   100 :      -0.2857    0.4286    0.1429
  band No.  band energies     occupation 
      1       6.0774      1.00000
      2       6.7262      1.00000
      3       8.1621      0.00994
      4      11.2173      0.00000
      5      20.5986      0.00000
      6      25.0116      0.00000
      7      25.6514      0.00000
      8      27.2648      0.00000
      9      33.5699      0.00000
     10      37.2850      0.00000
     11      40.5607      0.00000
     12      41.2422      0.00000
     13      43.4249      0.00000
     14      45.3029      0.00000
     15      45.9125      0.00000
     16      48.1283      0.00000
     17      51.2440      0.00000
     18      52.3459      0.00000
     19      54.3044      0.00000
     20      55.4726      0.00000
     21      55.9139      0.00000
     22      56.6219      0.00000
     23      58.0804      0.00000
     24      58.2264      0.00000
     25      59.4477      0.00000
     26      60.2778      0.00000
     27      62.3219      0.00000
     28      62.5558      0.00000
     29      64.3788      0.00000
     30      68.0717      0.00000
     31      68.3427      0.00000
     32      71.6960      0.00000
     33      73.5092      0.00000
     34      79.0925      0.00000
     35      79.3463      0.00000
     36      85.3448      0.00000
     37      86.7565      0.00000
     38      87.7735      0.00000
     39      88.7280      0.00000
     40      92.5435      0.00000
     41      96.0985      0.00000
     42      96.6238      0.00000
     43      98.5814      0.00000
     44      98.7215      0.00000
     45     101.1362      0.00000
     46     101.8880      0.00000
     47     102.7717      0.00000
     48     104.2613      0.00000

 k-point   101 :      -0.3571    0.5000    0.1429
  band No.  band energies     occupation 
      1       5.7111      1.00000
      2       7.0500      1.04238
      3       9.2711     -0.01895
      4      10.7996      0.00000
      5      18.8087      0.00000
      6      20.7702      0.00000
      7      29.1784      0.00000
      8      29.9094      0.00000
      9      34.9096      0.00000
     10      39.7930      0.00000
     11      41.6132      0.00000
     12      41.7275      0.00000
     13      43.0740      0.00000
     14      44.1826      0.00000
     15      45.2227      0.00000
     16      45.7501      0.00000
     17      49.2943      0.00000
     18      52.5834      0.00000
     19      53.4979      0.00000
     20      53.6247      0.00000
     21      54.8573      0.00000
     22      55.1736      0.00000
     23      55.8668      0.00000
     24      56.0110      0.00000
     25      59.3545      0.00000
     26      61.7022      0.00000
     27      62.8701      0.00000
     28      66.1675      0.00000
     29      67.5419      0.00000
     30      68.1542      0.00000
     31      72.4689      0.00000
     32      72.4899      0.00000
     33      76.5932      0.00000
     34      78.9477      0.00000
     35      79.0636      0.00000
     36      82.4940      0.00000
     37      86.5621      0.00000
     38      86.6979      0.00000
     39      87.1997      0.00000
     40      90.1048      0.00000
     41      92.5572      0.00000
     42      94.9343      0.00000
     43      96.6757      0.00000
     44      99.7886      0.00000
     45     100.3544      0.00000
     46     102.8363      0.00000
     47     104.3284      0.00000
     48     105.9780      0.00000

 k-point   102 :      -0.3571    0.4286    0.2143
  band No.  band energies     occupation 
      1       4.8762      1.00000
      2       7.9128      0.78893
      3       9.2374     -0.00352
      4      10.1618      0.00000
      5      22.1754      0.00000
      6      23.3422      0.00000
      7      24.4202      0.00000
      8      28.5792      0.00000
      9      33.9214      0.00000
     10      37.6410      0.00000
     11      40.3167      0.00000
     12      40.6098      0.00000
     13      43.2355      0.00000
     14      44.2435      0.00000
     15      46.5800      0.00000
     16      48.8513      0.00000
     17      50.9590      0.00000
     18      52.1914      0.00000
     19      54.4003      0.00000
     20      54.6481      0.00000
     21      54.6540      0.00000
     22      55.6892      0.00000
     23      58.0555      0.00000
     24      59.6396      0.00000
     25      60.7033      0.00000
     26      62.4033      0.00000
     27      62.5808      0.00000
     28      64.5167      0.00000
     29      64.6461      0.00000
     30      65.2364      0.00000
     31      67.1665      0.00000
     32      70.9696      0.00000
     33      74.7216      0.00000
     34      79.1274      0.00000
     35      79.4389      0.00000
     36      85.0405      0.00000
     37      87.4919      0.00000
     38      88.7671      0.00000
     39      92.0365      0.00000
     40      93.0530      0.00000
     41      93.2359      0.00000
     42      95.5524      0.00000
     43      95.6805      0.00000
     44      97.0411      0.00000
     45     100.1323      0.00000
     46     100.5942      0.00000
     47     103.1603      0.00000
     48     106.6418      0.00000

 k-point   103 :      -0.2857    0.4286    0.2143
  band No.  band energies     occupation 
      1       6.3925      1.00000
      2       6.5857      1.00000
      3       9.0128     -0.01834
      4       9.7029      0.00000
      5      22.9798      0.00000
      6      23.3579      0.00000
      7      25.1431      0.00000
      8      26.7481      0.00000
      9      34.3587      0.00000
     10      38.2014      0.00000
     11      41.2718      0.00000
     12      41.9119      0.00000
     13      42.9977      0.00000
     14      43.5617      0.00000
     15      45.3882      0.00000
     16      47.2426      0.00000
     17      51.9024      0.00000
     18      52.4519      0.00000
     19      54.4744      0.00000
     20      54.8572      0.00000
     21      56.7499      0.00000
     22      56.8714      0.00000
     23      58.6010      0.00000
     24      59.0527      0.00000
     25      59.6063      0.00000
     26      60.3554      0.00000
     27      62.7620      0.00000
     28      63.7367      0.00000
     29      64.3161      0.00000
     30      65.4411      0.00000
     31      65.4777      0.00000
     32      72.9184      0.00000
     33      73.3719      0.00000
     34      77.7808      0.00000
     35      80.9292      0.00000
     36      83.2735      0.00000
     37      88.5509      0.00000
     38      88.7713      0.00000
     39      92.9134      0.00000
     40      93.0723      0.00000
     41      94.7736      0.00000
     42      95.5874      0.00000
     43      97.3803      0.00000
     44      98.7976      0.00000
     45      99.8274      0.00000
     46     100.1667      0.00000
     47     103.1025      0.00000
     48     103.6807      0.00000

 k-point   104 :      -0.2857    0.5000    0.2143
  band No.  band energies     occupation 
      1       6.5569      1.00000
      2       7.7432      1.00000
      3       7.8541      0.08317
      4       9.3750      0.00000
      5      22.0144      0.00000
      6      23.4501      0.00000
      7      25.5011      0.00000
      8      27.1136      0.00000
      9      34.9855      0.00000
     10      39.7857      0.00000
     11      42.0743      0.00000
     12      42.4675      0.00000
     13      42.7855      0.00000
     14      43.7571      0.00000
     15      43.9330      0.00000
     16      45.0285      0.00000
     17      51.4499      0.00000
     18      53.4231      0.00000
     19      54.0106      0.00000
     20      54.8968      0.00000
     21      56.9147      0.00000
     22      57.0471      0.00000
     23      58.0418      0.00000
     24      58.2060      0.00000
     25      60.3805      0.00000
     26      61.0000      0.00000
     27      61.9989      0.00000
     28      62.6157      0.00000
     29      64.8317      0.00000
     30      65.0906      0.00000
     31      66.4863      0.00000
     32      72.9252      0.00000
     33      75.0890      0.00000
     34      79.2687      0.00000
     35      79.3439      0.00000
     36      81.1843      0.00000
     37      88.5611      0.00000
     38      89.4159      0.00000
     39      92.2953      0.00000
     40      93.4457      0.00000
     41      96.0196      0.00000
     42      96.3411      0.00000
     43      96.8760      0.00000
     44      98.0680      0.00000
     45     100.7985      0.00000
     46     100.9164      0.00000
     47     101.7742      0.00000
     48     102.5939      0.00000


--------------------------------------------------------------------------------------------------------


 soft charge-density along one line, spin component           1
         0         1         2         3         4         5         6         7         8         9
 total charge-density along one line

 soft charge-density along one line, spin component           2
         0         1         2         3         4         5         6         7         8         9
 total charge-density along one line

 pseudopotential strength for first ion, spin component:           1
  8.445  14.393   0.000  -0.000   0.000   0.000   0.000   0.000
 14.393  24.530   0.000   0.000   0.000   0.000  -0.000   0.000
  0.000   0.000   1.987  -0.000  -0.000   5.729  -0.000  -0.000
 -0.000   0.000  -0.000   1.987  -0.000  -0.000   5.729  -0.000
  0.000   0.000  -0.000  -0.000   1.987  -0.000  -0.000   5.729
  0.000   0.000   5.729  -0.000  -0.000  16.433  -0.000  -0.000
  0.000  -0.000  -0.000   5.729  -0.000  -0.000  16.433  -0.000
  0.000   0.000  -0.000  -0.000   5.729  -0.000  -0.000  16.433
 pseudopotential strength for first ion, spin component:           2
  8.445  14.393   0.000  -0.000   0.000   0.000  -0.000   0.000
 14.393  24.531   0.000  -0.000   0.000   0.000  -0.000   0.000
  0.000   0.000   1.987  -0.000  -0.000   5.729  -0.000  -0.000
 -0.000  -0.000  -0.000   1.987  -0.000  -0.000   5.729  -0.000
  0.000   0.000  -0.000  -0.000   1.987  -0.000  -0.000   5.729
  0.000   0.000   5.729  -0.000  -0.000  16.434  -0.000  -0.000
 -0.000  -0.000  -0.000   5.729  -0.000  -0.000  16.434  -0.000
  0.000   0.000  -0.000  -0.000   5.729  -0.000  -0.000  16.434
 total augmentation occupancy for first ion, spin component:           1
  3.352  -0.828   0.000   0.000   0.000   0.000   0.000   0.000
 -0.828   0.268   0.000   0.000   0.000   0.000   0.000   0.000
  0.000   0.000   1.105   0.000   0.000  -0.070   0.000   0.000
  0.000   0.000   0.000   1.105  -0.000   0.000  -0.070  -0.000
  0.000   0.000   0.000  -0.000   1.105   0.000  -0.000  -0.070
  0.000   0.000  -0.070  -0.000   0.000   0.005  -0.000  -0.000
  0.000   0.000   0.000  -0.070   0.000  -0.000   0.005  -0.000
  0.000   0.000   0.000   0.000  -0.070  -0.000  -0.000   0.005
 total augmentation occupancy for first ion, spin component:           2
  0.017  -0.006   0.000   0.000   0.000   0.000   0.000   0.000
 -0.006   0.002   0.000   0.000   0.000   0.000   0.000   0.000
  0.000   0.000   0.002   0.000   0.000  -0.000   0.000   0.000
  0.000   0.000   0.000   0.002   0.000   0.000  -0.000   0.000
  0.000   0.000   0.000   0.000   0.002   0.000   0.000  -0.000
  0.000   0.000  -0.000   0.000   0.000   0.000   0.000   0.000
  0.000   0.000   0.000  -0.000   0.000   0.000   0.000   0.000
  0.000   0.000   0.000   0.000  -0.000   0.000   0.000   0.000


------------------------ aborting loop because EDIFF is reached ----------------------------------------





 total charge

# of ion       s       p       d       tot
------------------------------------------
    1        0.423   0.340   0.000   0.763



 magnetization (x)

# of ion       s       p       d       tot
------------------------------------------
    1       -0.000  -0.000   0.000  -0.000

    CHARGE:  cpu time    0.0703: real time    0.0703
    FORLOC:  cpu time    0.0002: real time    0.0002
    FORNL :  cpu time    0.0122: real time    0.0122
    STRESS:  cpu time    0.1638: real time    0.1638
    FORCOR:  cpu time    0.0053: real time    0.0053
    FORHAR:  cpu time    0.0007: real time    0.0008
    MIXING:  cpu time    0.0004: real time    0.0004
    OFIELD:  cpu time    0.0000: real time    0.0000

  FORCE on cell =-STRESS in cart. coord.  units (eV):
  Direction    XX          YY          ZZ          XY          YZ          ZX
  --------------------------------------------------------------------------------------
  Alpha Z    -0.20255    -0.20255    -0.20255
  Ewald     -24.46432   -24.46432   -24.46432    -0.00000    -0.00000     0.00000
  Hartree     0.03555     0.03555     0.03555     0.00000     0.00000     0.00000
  E(xc)      -8.54698    -8.54698    -8.54698     0.00000     0.00000     0.00000
  Local       0.35204     0.35204     0.35204    -0.00000    -0.00000    -0.00000
  n-local    18.84318    18.46075    18.95947     0.44029    -0.59701     0.53313
  augment    -1.01527    -1.01527    -1.01527     0.00000     0.00000     0.00000
  Kinetic    12.49290    11.05196    21.39204    -9.60880     8.42319    -6.21539
  Fock        0.00000     0.00000     0.00000     0.00000     0.00000     0.00000
  -------------------------------------------------------------------------------------
  Total      -0.10809    -0.10809    -0.10809    -0.00000    -0.00000     0.00000
  in kB     -10.44320   -10.44320   -10.44320    -0.00000    -0.00000     0.00000
  external pressure =      -10.44 kB  Pullay stress =        0.00 kB


 VOLUME and BASIS-vectors are now :
 -----------------------------------------------------------------------------
  energy-cutoff  :      520.00
  volume of cell :       16.58
      direct lattice vectors                 reciprocal lattice vectors
     0.000000000  2.024000000  2.024000000    -0.247035573  0.247035573  0.247035573
     2.024000000  0.000000000  2.024000000     0.247035573 -0.247035573  0.247035573
     2.024000000  2.024000000  0.000000000     0.247035573  0.247035573 -0.247035573

  length of vectors
     2.862368250  2.862368250  2.862368250     0.427878164  0.427878164  0.427878164


 FORCES acting on ions
    electron-ion (+dipol)            ewald-force                    non-local-force                 convergence-correction
 -----------------------------------------------------------------------------------------------
   0.126E-14 0.393E-15 0.154E-14   0.817E-16 0.470E-16 -.229E-15   -.105E-24 0.630E-25 -.362E-24   0.178E-17 -.152E-17 0.732E-17
 -----------------------------------------------------------------------------------------------
   0.126E-14 0.393E-15 0.154E-14   0.817E-16 0.470E-16 -.229E-15   -.105E-24 0.630E-25 -.362E-24   0.178E-17 -.152E-17 0.732E-17


 POSITION                                       TOTAL-FORCE (eV/Angst)
 -----------------------------------------------------------------------------------
      0.00000      0.00000      0.00000         0.000000     -0.000000      0.000000
 -----------------------------------------------------------------------------------
    total drift:                                0.000000      0.000000      0.000000


--------------------------------------------------------------------------------------------------------



  FREE ENERGIE OF THE ION-ELECTRON SYSTEM (eV)
  ---------------------------------------------------
  free  energy   TOTEN  =        -3.74033943 eV

  energy  without entropy=       -3.74033943  energy(sigma->0) =       -3.74033943



--------------------------------------------------------------------------------------------------------


    POTLOK:  cpu time    0.1583: real time    0.1583


--------------------------------------------------------------------------------------------------------


 stress matrix after NEB project (eV)
     -0.10809     -0.00000      0.00000
     -0.00000     -0.10809      0.00000
      0.00000     -0.00000     -0.10809
  FORCES: max atom, RMS     0.000000    0.000000
  FORCE total and by dimension    0.000000    0.000000
  Stress total and by dimension    0.187217    0.108090
     LOOP+:  cpu time  112.1048: real time  112.1123
 -----------------------------------------------------------------------------
|                                                                             |
|           W    W    AA    RRRRR   N    N  II  N    N   GGGG   !!!           |
|           W    W   A  A   R    R  NN   N  II  NN   N  G    G  !!!           |
|           W    W  A    A  R    R  N N  N  II  N N  N  G       !!!           |
|           W WW W  AAAAAA  RRRRR   N  N N  II  N  N N  G  GGG   !            |
|           WW  WW  A    A  R   R   N   NN  II  N   NN  G    G                |
|           W    W  A    A  R    R  N    N  II  N    N   GGGG   !!!           |
|                                                                             |
|     Tetrahedron method does not include variations of the Fermi             |
|     occupations, so forces and stress will be inaccurate. We suggest        |
|     using a different smearing scheme ISMEAR = 1 or 2 for metals in         |
|     relaxations.                                                            |
|                                                                             |
 -----------------------------------------------------------------------------

    4ORBIT:  cpu time    0.0000: real time    0.0000



 total charge

# of ion       s       p       d       tot
------------------------------------------
    1        0.423   0.340   0.000   0.763



 magnetization (x)

# of ion       s       p       d       tot
------------------------------------------
    1       -0.000  -0.000   0.000  -0.000

 BZINTS: Fermi energy:    7.979482;    3.000000 electrons
         Band energy: 0.106167E+02;  BLOECHL correction:   -0.073523

 total amount of memory used by VASP MPI-rank0    36410. kBytes
=======================================================================

   base      :      30000. kBytes
   nonl-proj :       3202. kBytes
   fftplans  :        150. kBytes
   grid      :       1295. kBytes
   one-center:          6. kBytes
   wavefun   :       1757. kBytes

  
  
 General timing and accounting informations for this job:
 ========================================================
  
                  Total CPU time used (sec):      114.982
                            User time (sec):      113.971
                          System time (sec):        1.012
                         Elapsed time (sec):      115.341
  
                   Maximum memory used (kb):       54008.
                   Average memory used (kb):          N/A
  
                          Minor page faults:        37627
                          Major page faults:          451
                 Voluntary context switches:         2383
