   57   57  200    2
  0.1326576E+02  0.7779113E-09  0.7778912E-09  0.1249563E-08  0.0000000E+00
   1.0000000000000000E-004
  CAR 
 unknown system                          
    502     10    324

  0.1262379E-14  0.1262379E-14  0.1262379E-14  0.5555556E-01
    1      -57.390540    -55.309445   1.000000   1.000000
    2      -57.250287    -55.282759   1.000000   1.000000
    3      -57.249112    -55.270091   1.000000   1.000000
    4      -57.171575    -55.099615   1.000000   1.000000
    5      -57.128285    -55.099036   1.000000   1.000000
    6      -57.117492    -55.097965   1.000000   1.000000
    7      -57.108476    -55.092267   1.000000   1.000000
    8      -57.104766    -55.090821   1.000000   1.000000
    9      -57.104567    -55.086973   1.000000   1.000000
   10      -57.102303    -55.079542   1.000000   1.000000
   11      -57.096820    -55.076512   1.000000   1.000000
   12      -57.094802    -55.070514   1.000000   1.000000
   13      -57.092714    -55.060254   1.000000   1.000000
   14      -57.078465    -55.059119   1.000000   1.000000
   15      -57.078030    -55.050927   1.000000   1.000000
   16      -57.074382    -55.050400   1.000000   1.000000
   17      -57.074278    -55.049455   1.000000   1.000000
   18      -57.074046    -55.036065   1.000000   1.000000
   19      -57.057711    -55.014812   1.000000   1.000000
   20      -57.056932    -55.013547   1.000000   1.000000
   21      -57.050640    -55.007729   1.000000   1.000000
   22      -57.048782    -54.989258   1.000000   1.000000
   23      -57.040109    -54.988628   1.000000   1.000000
   24      -57.036529    -54.979964   1.000000   1.000000
   25      -23.485304    -23.482150   1.000000   1.000000
   26      -23.416397    -23.413226   1.000000   1.000000
   27      -23.319211    -23.316223   1.000000   1.000000
   28      -23.307720    -23.304869   1.000000   1.000000
   29      -23.300622    -23.297951   1.000000   1.000000
   30      -23.287342    -23.284243   1.000000   1.000000
   31      -23.251710    -23.248621   1.000000   1.000000
   32      -23.242282    -23.239528   1.000000   1.000000
   33      -23.168146    -23.165335   1.000000   1.000000
   34      -23.148602    -23.145915   1.000000   1.000000
   35      -23.080782    -23.078236   1.000000   1.000000
   36      -23.025730    -23.023325   1.000000   1.000000
   37      -23.017194    -23.014914   1.000000   1.000000
   38      -22.900751    -22.898373   1.000000   1.000000
   39      -22.886177    -22.883543   1.000000   1.000000
   40      -22.848075    -22.847167   1.000000   1.000000
   41      -11.263901    -11.214547   1.000000   1.000000
   42      -11.156737    -11.113782   1.000000   1.000000
   43      -11.090729    -11.040545   1.000000   1.000000
   44      -11.034946    -10.981618   1.000000   1.000000
   45      -10.998105    -10.943942   1.000000   1.000000
   46      -10.976212    -10.919146   1.000000   1.000000
   47      -10.573824    -10.567278   1.000000   1.000000
   48      -10.522943    -10.499384   1.000000   1.000000
   49      -10.469324    -10.455682   1.000000   1.000000
   50      -10.447579    -10.420851   1.000000   1.000000
   51      -10.408276    -10.398959   1.000000   1.000000
   52      -10.390375    -10.363886   1.000000   1.000000
   53      -10.363277    -10.337745   1.000000   1.000000
   54      -10.327659    -10.302167   1.000000   1.000000
   55      -10.261470    -10.243475   1.000000   1.000000
   56      -10.211733    -10.170374   1.000000   1.000000
   57      -10.065457    -10.015607   1.000000   1.000000
   58      -10.055551    -10.001306   1.000000   1.000000
   59       -9.904615     -9.831709   1.000000   1.000000
   60       -9.861183     -9.795553   1.000000   1.000000
   61       -9.807713     -9.754156   1.000000   1.000000
   62       -9.778776     -9.737117   1.000000   1.000000
   63       -9.766057     -9.705905   1.000000   1.000000
   64       -9.718477     -9.630147   1.000000   1.000000
   65       -9.662427     -9.576860   1.000000   1.000000
   66       -9.604523     -9.531822   1.000000   1.000000
   67       -9.595143     -9.455579   1.000000   1.000000
   68       -9.546099     -9.432347   1.000000   1.000000
   69       -9.523583     -9.413339   1.000000   1.000000
   70       -9.497518     -9.388995   1.000000   1.000000
   71       -9.478887     -9.377955   1.000000   1.000000
   72       -9.454054     -9.353787   1.000000   1.000000
   73       -9.372847     -9.287888   1.000000   1.000000
   74       -7.305088     -7.296469   1.000000   1.000000
   75       -7.297917     -7.285942   1.000000   1.000000
   76       -7.239259     -7.225715   1.000000   1.000000
   77       -7.226340     -7.214294   1.000000   1.000000
   78       -7.135629     -7.122713   1.000000   1.000000
   79       -7.091275     -7.082357   1.000000   1.000000
   80       -7.037143     -7.020644   1.000000   1.000000
   81       -7.005387     -6.997646   1.000000   1.000000
   82       -6.975196     -6.964860   1.000000   1.000000
   83       -6.957023     -6.945789   1.000000   1.000000
   84       -6.918371     -6.914176   1.000000   1.000000
   85       -6.909948     -6.902539   1.000000   1.000000
   86       -6.898667     -6.893249   1.000000   1.000000
   87       -6.888266     -6.882754   1.000000   1.000000
   88       -6.873165     -6.865238   1.000000   1.000000
   89       -6.866794     -6.862514   1.000000   1.000000
   90       -6.821385     -6.813084   1.000000   1.000000
   91       -6.813809     -6.805701   1.000000   1.000000
   92       -6.803187     -6.790938   1.000000   1.000000
   93       -6.744807     -6.735534   1.000000   1.000000
   94       -6.691533     -6.681345   1.000000   1.000000
   95       -6.680533     -6.673472   1.000000   1.000000
   96       -6.655329     -6.645500   1.000000   1.000000
   97       -6.644675     -6.633514   1.000000   1.000000
   98       -6.621096     -6.614802   1.000000   1.000000
   99       -6.610543     -6.598579   1.000000   1.000000
  100       -6.592479     -6.578502   1.000000   1.000000
  101       -6.565911     -6.545911   1.000000   1.000000
  102       -6.516671     -6.495815   1.000000   1.000000
  103       -6.500977     -6.491478   1.000000   1.000000
  104       -6.417997     -6.401866   1.000000   1.000000
  105       -6.409873     -6.396637   1.000000   1.000000
  106       -6.363977     -6.353704   1.000000   1.000000
  107       -6.132341     -6.112066   1.000000   1.000000
  108       -6.106180     -6.091266   1.000000   1.000000
  109       -6.026420     -6.006385   1.000000   1.000000
  110       -5.990535     -5.968430   1.000000   1.000000
  111       -5.864751     -5.834165   1.000000   1.000000
  112       -5.834893     -5.810081   1.000000   1.000000
  113       -5.826176     -5.795968   1.000000   1.000000
  114       -5.812103     -5.784508   1.000000   1.000000
  115       -5.768524     -5.738500   1.000000   1.000000
  116       -5.747295     -5.717184   1.000000   1.000000
  117       -5.663530     -5.629616   1.000000   1.000000
  118       -5.631368     -5.555479   1.000000   1.000000
  119       -5.523528     -5.486037   1.000000   1.000000
  120       -4.933418     -4.918922   1.000000   1.000000
  121       -4.644252     -4.629095   1.000000   1.000000
  122        0.202472      1.163272   1.000000   1.000000
  123        0.269266      1.205088   1.000000   1.000000
  124        0.296002      2.321818   1.000000   1.000000
  125        0.334938      2.369299   1.000000   1.000000
  126        0.367111      2.402111   1.000000   1.000000
  127        0.373834      2.434745   1.000000   1.000000
  128        0.411860      2.442598   1.000000   1.000000
  129        0.452949      2.464790   1.000000   1.000000
  130        1.599672      2.536354   1.000000   1.000000
  131        1.689015      2.540524   1.000000   1.000000
  132        1.697406      2.555326   1.000000   1.000000
  133        1.716557      2.577642   1.000000   1.000000
  134        1.743280      2.725917   1.000000   1.000000
  135        1.770025      2.811091   1.000000   1.000000
  136        1.783767      2.847773   1.000000   1.000000
  137        1.811350      2.888737   1.000000   1.000000
  138        1.960881      2.947250   1.000000   1.000000
  139        1.977111      3.011956   1.000000   1.000000
  140        1.998670      3.080318   1.000000   1.000000
  141        2.053639      3.094904   1.000000   1.000000
  142        2.121645      3.130922   1.000000   1.000000
  143        2.205445      3.133444   1.000000   1.000000
  144        2.221666      3.180896   1.000000   1.000000
  145        2.262412      3.192697   1.000000   1.000000
  146        2.295458      3.268958   1.000000   1.000000
  147        2.338784      3.363635   1.000000   1.000000
  148        2.342520      3.454294   1.000000   1.000000
  149        2.359330      3.467078   1.000000   1.000000
  150        2.409706      3.550765   1.000000   1.000000
  151        2.421015      3.572181   1.000000   1.000000
  152        2.633910      3.634014   1.000000   1.000000
  153        2.655297      3.710599   1.000000   1.000000
  154        2.738753      3.717732   1.000000   1.000000
  155        2.751527      3.737051   1.000000   1.000000
  156        2.757904      3.771888   1.000000   1.000000
  157        2.807716      3.797055   1.000000   1.000000
  158        2.824088      3.823909   1.000000   1.000000
  159        2.844868      3.839445   1.000000   1.000000
  160        2.864741      3.844977   1.000000   1.000000
  161        2.888330      3.964497   1.000000   1.000000
  162        2.914360      3.987107   1.000000   1.000000
  163        3.006048      4.074147   1.000000   1.000000
  164        3.138748      4.098215   1.000000   1.000000
  165        3.195102      4.109582   1.000000   1.000000
  166        3.247145      4.152768   1.000000   1.000000
  167        3.252936      4.214093   1.000000   1.000000
  168        3.524602      4.251751   1.000000   1.000000
  169        3.535604      4.285339   1.000000   1.000000
  170        3.543234      4.357635   1.000000   1.000000
  171        3.603855      4.418772   1.000000   1.000000
  172        3.624378      4.448372   1.000000   1.000000
  173        3.910762      4.464638   1.000000   1.000000
  174        4.004204      4.475860   1.000000   1.000000
  175        4.041376      4.528878   1.000000   1.000000
  176        4.100932      4.559894   1.000000   1.000000
  177        4.132511      4.668153   1.000000   1.000000
  178        4.203350      4.770519   1.000000   1.000000
  179        4.256907      4.806577   1.000000   1.000000
  180        4.291991      4.818113   1.000000   1.000000
  181        4.344050      4.831408   1.000000   1.000000
  182        4.372812      4.879561   1.000000   1.000000
  183        4.416172      4.903888   1.000000   1.000000
  184        4.458137      4.936962   1.000000   1.000000
  185        4.586344      4.960409   1.000000   1.000000
  186        4.621846      5.006628   1.000000   1.000000
  187        4.648499      5.051993   1.000000   1.000000
  188        4.659092      5.075875   1.000000   1.000000
  189        4.674104      5.094829   1.000000   1.000000
  190        4.727158      5.121253   1.000000   1.000000
  191        4.740826      5.153308   1.000000   1.000000
  192        4.752576      5.167576   1.000000   1.000000
  193        4.779172      5.175914   1.000000   1.000000
  194        4.843602      5.188847   1.000000   1.000000
  195        4.890936      5.203664   1.000000   1.000000
  196        4.900917      5.247166   1.000000   1.000000
  197        4.917684      5.283427   1.000000   1.000000
  198        4.943932      5.309525   1.000000   1.000000
  199        4.982435      5.349819   1.000000   1.000000
  200        5.001394      5.369061   1.000000   1.000000
  201        5.036966      5.378473   1.000000   1.000000
  202        5.062162      5.407476   1.000000   1.000000
  203        5.077715      5.432498   1.000000   1.000000
  204        5.138866      5.507711   1.000000   1.000000
  205        5.163569      5.524216   1.000000   1.000000
  206        5.185369      5.560688   1.000000   1.000000
  207        5.203776      5.597532   1.000000   1.000000
  208        5.240431      5.615695   1.000000   1.000000
  209        5.271132      5.685405   1.000000   1.000000
  210        5.298592      5.701633   1.000000   1.000000
  211        5.319595      5.755042   1.000000   1.000000
  212        5.339008      5.763100   1.000000   1.000000
  213        5.349859      5.798257   1.000000   1.000000
  214        5.383787      5.855867   1.000000   1.000000
  215        5.416655      5.898055   1.000000   1.000000
  216        5.492243      5.928744   1.000000   1.000000
  217        5.532080      5.950687   1.000000   1.000000
  218        5.560316      5.976295   1.000000   1.000000
  219        5.579609      5.978662   1.000000   1.000000
  220        5.626277      6.008318   1.000000   1.000000
  221        5.657615      6.027413   1.000000   1.000000
  222        5.689676      6.042791   1.000000   1.000000
  223        5.714349      6.078243   1.000000   1.000000
  224        5.731245      6.130360   1.000000   1.000000
  225        5.773766      6.169225   1.000000   1.000000
  226        5.787619      6.187499   1.000000   1.000000
  227        5.829920      6.200160   1.000000   1.000000
  228        5.857997      6.203622   1.000000   1.000000
  229        5.872508      6.230028   1.000000   1.000000
  230        5.906870      6.251338   1.000000   1.000000
  231        5.913923      6.268453   1.000000   1.000000
  232        5.942642      6.293812   1.000000   1.000000
  233        5.969391      6.321965   1.000000   1.000000
  234        5.987609      6.341316   1.000000   1.000000
  235        6.043338      6.358456   1.000000   1.000000
  236        6.055998      6.366988   1.000000   1.000000
  237        6.118702      6.393983   1.000000   1.000000
  238        6.132297      6.399205   1.000000   1.000000
  239        6.157787      6.454002   1.000000   1.000000
  240        6.176809      6.454760   1.000000   1.000000
  241        6.209688      6.551663   1.000000   1.000000
  242        6.228770      6.644889   1.000000   1.000000
  243        6.232679      6.703143   1.000000   1.000000
  244        6.281505      7.173940   1.000000   0.997792
  245        6.289832     10.059078   1.000000   0.000000
  246        6.328616     10.201546   1.000000   0.000000
  247        6.346678     10.223876   1.000000   0.000000
  248        6.369402     10.308159   1.000000   0.000000
  249        6.456504     10.532009   1.000000   0.000000
  250        6.590962     10.599281   1.000000   0.000000
  251        6.641705     10.607456   1.000000   0.000000
  252        6.724020     10.624769   1.000000   0.000000
  253        6.967810     10.640378   0.999992   0.000000
  254        7.019728     10.673835   0.999959   0.000000
  255        7.104414     10.723930   0.999579   0.000000
  256        7.123163     10.840053   0.999327   0.000000
  257        7.168019     10.997240   0.998066   0.000000
  258        7.181636     11.043442   0.997384   0.000000
  259        8.636286     11.056390   0.000000   0.000000
  260        8.663265     11.090737   0.000000   0.000000
  261       10.070570     11.121111   0.000000   0.000000
  262       10.640510     11.151775   0.000000   0.000000
  263       10.676322     11.161677   0.000000   0.000000
  264       11.024607     11.164753   0.000000   0.000000
  265       11.037676     11.184195   0.000000   0.000000
  266       11.052804     11.207594   0.000000   0.000000
  267       11.151510     11.257162   0.000000   0.000000
  268       11.159676     11.280654   0.000000   0.000000
  269       11.197111     11.302564   0.000000   0.000000
  270       11.239147     11.314172   0.000000   0.000000
  271       11.281861     11.353185   0.000000   0.000000
  272       11.297798     11.390194   0.000000   0.000000
  273       11.323503     11.393696   0.000000   0.000000
  274       11.345110     11.411040   0.000000   0.000000
  275       11.359771     11.430069   0.000000   0.000000
  276       11.372885     11.459140   0.000000   0.000000
  277       11.388910     11.475906   0.000000   0.000000
  278       11.400009     11.481021   0.000000   0.000000
  279       11.439607     11.491063   0.000000   0.000000
  280       11.444223     11.510186   0.000000   0.000000
  281       11.453657     11.514535   0.000000   0.000000
  282       11.477172     11.524919   0.000000   0.000000
  283       11.486514     11.539169   0.000000   0.000000
  284       11.508055     11.550101   0.000000   0.000000
  285       11.518397     11.564567   0.000000   0.000000
  286       11.536237     11.578246   0.000000   0.000000
  287       11.548977     11.592730   0.000000   0.000000
  288       11.566526     11.600239   0.000000   0.000000
  289       11.584250     11.606200   0.000000   0.000000
  290       11.590221     11.614150   0.000000   0.000000
  291       11.593478     11.624475   0.000000   0.000000
  292       11.600126     11.640989   0.000000   0.000000
  293       11.613711     11.666821   0.000000   0.000000
  294       11.619918     11.670418   0.000000   0.000000
  295       11.640651     11.684126   0.000000   0.000000
  296       11.657030     11.691330   0.000000   0.000000
  297       11.671067     11.697625   0.000000   0.000000
  298       11.682230     11.703441   0.000000   0.000000
  299       11.695652     11.717633   0.000000   0.000000
  300       11.697816     11.726161   0.000000   0.000000
  301       11.709152     11.737295   0.000000   0.000000
  302       11.713391     11.749725   0.000000   0.000000
  303       11.727607     11.758955   0.000000   0.000000
  304       11.735316     11.767085   0.000000   0.000000
  305       11.745622     11.768590   0.000000   0.000000
  306       11.757483     11.775757   0.000000   0.000000
  307       11.761139     11.782078   0.000000   0.000000
  308       11.767955     11.782939   0.000000   0.000000
  309       11.768768     11.800360   0.000000   0.000000
  310       11.776939     11.807284   0.000000   0.000000
  311       11.793521     11.811178   0.000000   0.000000
  312       11.797124     11.828017   0.000000   0.000000
  313       11.804613     11.834812   0.000000   0.000000
  314       11.817897     11.838675   0.000000   0.000000
  315       11.825194     11.848433   0.000000   0.000000
  316       11.833646     11.854974   0.000000   0.000000
  317       11.841432     11.862867   0.000000   0.000000
  318       11.846738     11.865995   0.000000   0.000000
  319       11.854181     11.870691   0.000000   0.000000
  320       11.861161     11.879417   0.000000   0.000000
  321       11.863317     11.886084   0.000000   0.000000
  322       11.873710     11.894446   0.000000   0.000000
  323       11.880902     11.905816   0.000000   0.000000
  324       11.890793     11.908978   0.000000   0.000000

  0.3333333E+00  0.1262399E-14  0.1262310E-14  0.1111111E+00
    1      -57.390597    -55.309524   1.000000   1.000000
    2      -57.250254    -55.282703   1.000000   1.000000
    3      -57.249175    -55.270216   1.000000   1.000000
    4      -57.171650    -55.099685   1.000000   1.000000
    5      -57.128361    -55.098987   1.000000   1.000000
    6      -57.117523    -55.098091   1.000000   1.000000
    7      -57.108552    -55.092208   1.000000   1.000000
    8      -57.104700    -55.090953   1.000000   1.000000
    9      -57.104631    -55.086973   1.000000   1.000000
   10      -57.102246    -55.079664   1.000000   1.000000
   11      -57.096861    -55.076463   1.000000   1.000000
   12      -57.094792    -55.070623   1.000000   1.000000
   13      -57.092752    -55.060221   1.000000   1.000000
   14      -57.078545    -55.059083   1.000000   1.000000
   15      -57.078099    -55.051064   1.000000   1.000000
   16      -57.074421    -55.050480   1.000000   1.000000
   17      -57.074302    -55.049456   1.000000   1.000000
   18      -57.073984    -55.036099   1.000000   1.000000
   19      -57.057810    -55.014886   1.000000   1.000000
   20      -57.056892    -55.013626   1.000000   1.000000
   21      -57.050737    -55.007812   1.000000   1.000000
   22      -57.048849    -54.989338   1.000000   1.000000
   23      -57.040079    -54.988699   1.000000   1.000000
   24      -57.036531    -54.980042   1.000000   1.000000
   25      -23.482307    -23.479154   1.000000   1.000000
   26      -23.396897    -23.393730   1.000000   1.000000
   27      -23.344548    -23.341615   1.000000   1.000000
   28      -23.302836    -23.299909   1.000000   1.000000
   29      -23.289818    -23.287051   1.000000   1.000000
   30      -23.276707    -23.273640   1.000000   1.000000
   31      -23.260816    -23.257971   1.000000   1.000000
   32      -23.252295    -23.249344   1.000000   1.000000
   33      -23.170609    -23.167812   1.000000   1.000000
   34      -23.140728    -23.138086   1.000000   1.000000
   35      -23.084239    -23.081679   1.000000   1.000000
   36      -23.026812    -23.024425   1.000000   1.000000
   37      -23.017594    -23.015274   1.000000   1.000000
   38      -22.911071    -22.908754   1.000000   1.000000
   39      -22.883343    -22.880552   1.000000   1.000000
   40      -22.847887    -22.847079   1.000000   1.000000
   41      -11.175513    -11.135373   1.000000   1.000000
   42      -11.131793    -11.088364   1.000000   1.000000
   43      -11.083763    -11.042439   1.000000   1.000000
   44      -10.972767    -10.930733   1.000000   1.000000
   45      -10.892730    -10.847347   1.000000   1.000000
   46      -10.822577    -10.774144   1.000000   1.000000
   47      -10.710858    -10.687445   1.000000   1.000000
   48      -10.621639    -10.595550   1.000000   1.000000
   49      -10.567073    -10.519524   1.000000   1.000000
   50      -10.451220    -10.435104   1.000000   1.000000
   51      -10.423358    -10.409655   1.000000   1.000000
   52      -10.385256    -10.356039   1.000000   1.000000
   53      -10.299557    -10.284108   1.000000   1.000000
   54      -10.286919    -10.266266   1.000000   1.000000
   55      -10.191881    -10.155365   1.000000   1.000000
   56      -10.113207    -10.057878   1.000000   1.000000
   57      -10.071447    -10.004626   1.000000   1.000000
   58      -10.043264     -9.986012   1.000000   1.000000
   59       -9.969247     -9.907923   1.000000   1.000000
   60       -9.942018     -9.885473   1.000000   1.000000
   61       -9.916221     -9.853118   1.000000   1.000000
   62       -9.837422     -9.778226   1.000000   1.000000
   63       -9.795709     -9.710978   1.000000   1.000000
   64       -9.762748     -9.674465   1.000000   1.000000
   65       -9.729939     -9.653440   1.000000   1.000000
   66       -9.633899     -9.520620   1.000000   1.000000
   67       -9.598874     -9.514373   1.000000   1.000000
   68       -9.582373     -9.503300   1.000000   1.000000
   69       -9.534874     -9.441073   1.000000   1.000000
   70       -9.528586     -9.420397   1.000000   1.000000
   71       -9.499876     -9.401368   1.000000   1.000000
   72       -9.483828     -9.373354   1.000000   1.000000
   73       -9.275975     -9.213744   1.000000   1.000000
   74       -7.294120     -7.282313   1.000000   1.000000
   75       -7.247373     -7.233684   1.000000   1.000000
   76       -7.186400     -7.176082   1.000000   1.000000
   77       -7.160118     -7.150725   1.000000   1.000000
   78       -7.125284     -7.114411   1.000000   1.000000
   79       -7.116568     -7.103165   1.000000   1.000000
   80       -7.094737     -7.079795   1.000000   1.000000
   81       -7.037509     -7.025771   1.000000   1.000000
   82       -7.005932     -6.997978   1.000000   1.000000
   83       -6.981288     -6.971243   1.000000   1.000000
   84       -6.969166     -6.959362   1.000000   1.000000
   85       -6.949499     -6.939965   1.000000   1.000000
   86       -6.915899     -6.903432   1.000000   1.000000
   87       -6.886644     -6.876534   1.000000   1.000000
   88       -6.876750     -6.866883   1.000000   1.000000
   89       -6.870918     -6.863104   1.000000   1.000000
   90       -6.854467     -6.840949   1.000000   1.000000
   91       -6.827221     -6.814989   1.000000   1.000000
   92       -6.814058     -6.807652   1.000000   1.000000
   93       -6.793824     -6.784468   1.000000   1.000000
   94       -6.746634     -6.733519   1.000000   1.000000
   95       -6.696055     -6.686945   1.000000   1.000000
   96       -6.678188     -6.667037   1.000000   1.000000
   97       -6.646724     -6.637869   1.000000   1.000000
   98       -6.627226     -6.615758   1.000000   1.000000
   99       -6.588749     -6.581143   1.000000   1.000000
  100       -6.547012     -6.534882   1.000000   1.000000
  101       -6.519568     -6.505989   1.000000   1.000000
  102       -6.474533     -6.464929   1.000000   1.000000
  103       -6.434641     -6.425424   1.000000   1.000000
  104       -6.372674     -6.341241   1.000000   1.000000
  105       -6.209454     -6.189656   1.000000   1.000000
  106       -6.144629     -6.125099   1.000000   1.000000
  107       -6.117594     -6.095450   1.000000   1.000000
  108       -6.061368     -6.040235   1.000000   1.000000
  109       -6.008447     -5.984810   1.000000   1.000000
  110       -5.960429     -5.935837   1.000000   1.000000
  111       -5.931577     -5.902207   1.000000   1.000000
  112       -5.915189     -5.888875   1.000000   1.000000
  113       -5.887696     -5.860165   1.000000   1.000000
  114       -5.815815     -5.783007   1.000000   1.000000
  115       -5.794747     -5.759173   1.000000   1.000000
  116       -5.757314     -5.720871   1.000000   1.000000
  117       -5.699790     -5.662497   1.000000   1.000000
  118       -5.677190     -5.629227   1.000000   1.000000
  119       -5.587098     -5.551749   1.000000   1.000000
  120       -4.885516     -4.871673   1.000000   1.000000
  121       -4.729586     -4.716382   1.000000   1.000000
  122        0.307490      1.427102   1.000000   1.000000
  123        0.329466      1.459206   1.000000   1.000000
  124        0.330291      2.048393   1.000000   1.000000
  125        0.368050      2.054467   1.000000   1.000000
  126        0.644790      2.383568   1.000000   1.000000
  127        0.722803      2.442038   1.000000   1.000000
  128        0.773137      2.534940   1.000000   1.000000
  129        0.807408      2.583527   1.000000   1.000000
  130        1.450100      2.627406   1.000000   1.000000
  131        1.518002      2.649260   1.000000   1.000000
  132        1.550301      2.669783   1.000000   1.000000
  133        1.562573      2.683773   1.000000   1.000000
  134        1.739462      2.739083   1.000000   1.000000
  135        1.757880      2.781241   1.000000   1.000000
  136        1.810750      2.840785   1.000000   1.000000
  137        1.827710      2.874035   1.000000   1.000000
  138        1.964185      2.927356   1.000000   1.000000
  139        2.001387      2.946364   1.000000   1.000000
  140        2.018438      2.990150   1.000000   1.000000
  141        2.083513      3.030620   1.000000   1.000000
  142        2.092351      3.054572   1.000000   1.000000
  143        2.135849      3.082001   1.000000   1.000000
  144        2.164532      3.103772   1.000000   1.000000
  145        2.223719      3.179353   1.000000   1.000000
  146        2.260881      3.190936   1.000000   1.000000
  147        2.286317      3.276775   1.000000   1.000000
  148        2.332836      3.342708   1.000000   1.000000
  149        2.343354      3.401919   1.000000   1.000000
  150        2.362172      3.455713   1.000000   1.000000
  151        2.384910      3.489163   1.000000   1.000000
  152        2.425822      3.591622   1.000000   1.000000
  153        2.504210      3.620687   1.000000   1.000000
  154        2.522231      3.657865   1.000000   1.000000
  155        2.536285      3.804082   1.000000   1.000000
  156        2.567361      3.820183   1.000000   1.000000
  157        2.587248      3.829974   1.000000   1.000000
  158        2.634631      3.837475   1.000000   1.000000
  159        2.641043      3.868842   1.000000   1.000000
  160        2.691792      3.914644   1.000000   1.000000
  161        2.765444      3.959893   1.000000   1.000000
  162        2.777760      4.017642   1.000000   1.000000
  163        2.802377      4.065074   1.000000   1.000000
  164        2.835165      4.105573   1.000000   1.000000
  165        2.848524      4.175500   1.000000   1.000000
  166        3.358682      4.281646   1.000000   1.000000
  167        3.460170      4.318097   1.000000   1.000000
  168        3.534113      4.371153   1.000000   1.000000
  169        3.583916      4.459045   1.000000   1.000000
  170        3.633071      4.514948   1.000000   1.000000
  171        3.756523      4.539794   1.000000   1.000000
  172        3.804952      4.605680   1.000000   1.000000
  173        3.870057      4.649017   1.000000   1.000000
  174        3.971245      4.664618   1.000000   1.000000
  175        4.098859      4.678312   1.000000   1.000000
  176        4.172037      4.697217   1.000000   1.000000
  177        4.208754      4.717408   1.000000   1.000000
  178        4.248128      4.759752   1.000000   1.000000
  179        4.358167      4.793725   1.000000   1.000000
  180        4.404143      4.834791   1.000000   1.000000
  181        4.435703      4.879089   1.000000   1.000000
  182        4.472421      4.888617   1.000000   1.000000
  183        4.532732      4.913688   1.000000   1.000000
  184        4.577940      4.927769   1.000000   1.000000
  185        4.626113      4.954680   1.000000   1.000000
  186        4.674331      4.979202   1.000000   1.000000
  187        4.697045      5.023382   1.000000   1.000000