       N       E                     dE             d eps       ncg     rms          rms(c)
DAV:   1     0.833144650847E+04    0.83314E+04   -0.15445E+05 14228   0.209E+03
DAV:   2     0.290001680533E+04   -0.54314E+04   -0.49819E+04 14520   0.646E+02
DAV:   3     0.718762746147E+03   -0.21813E+04   -0.19410E+04 14576   0.312E+02
DAV:   4    -0.222294957780E+03   -0.94106E+03   -0.88691E+03 20112   0.177E+02
DAV:   5    -0.432836976919E+03   -0.21054E+03   -0.20400E+03 25348   0.106E+02    0.794E+01
DAV:   6    -0.410048875807E+03    0.22788E+02   -0.10674E+03 22384   0.105E+02    0.143E+02
DAV:   7    -0.412248208307E+03   -0.21993E+01   -0.27909E+02 23200   0.643E+01    0.471E+01
DAV:   8    -0.408494478975E+03    0.37537E+01   -0.37037E+01 21456   0.299E+01    0.240E+01
DAV:   9    -0.412504403494E+03   -0.40099E+01   -0.19922E+01 23160   0.153E+01    0.206E+01
DAV:  10    -0.413916516983E+03   -0.14121E+01   -0.57435E+00 23144   0.937E+00    0.154E+01
DAV:  11    -0.414703584227E+03   -0.78707E+00   -0.33376E+00 25648   0.538E+00    0.110E+01
DAV:  12    -0.414882716159E+03   -0.17913E+00   -0.87481E-01 24584   0.352E+00    0.887E+00
DAV:  13    -0.414942515480E+03   -0.59799E-01   -0.32660E-01 23712   0.195E+00    0.556E+00
DAV:  14    -0.414948462690E+03   -0.59472E-02   -0.10434E-01 23432   0.118E+00    0.393E+00
DAV:  15    -0.414954512317E+03   -0.60496E-02   -0.42423E-02 23936   0.710E-01    0.291E+00
DAV:  16    -0.414956543189E+03   -0.20309E-02   -0.16313E-02 23552   0.522E-01    0.196E+00
DAV:  17    -0.414956822484E+03   -0.27930E-03   -0.10770E-02 22632   0.357E-01    0.104E+00
DAV:  18    -0.414957473805E+03   -0.65132E-03   -0.80146E-03 24600   0.228E-01    0.618E-01
DAV:  19    -0.414957717182E+03   -0.24338E-03   -0.15656E-03 23760   0.134E-01    0.468E-01
DAV:  20    -0.414957727006E+03   -0.98244E-05   -0.62493E-04 22088   0.116E-01    0.232E-01
DAV:  21    -0.414957781592E+03   -0.54586E-04   -0.45638E-04 24600   0.631E-02    0.137E-01
DAV:  22    -0.414957811553E+03   -0.29961E-04   -0.19737E-04 24992   0.412E-02    0.108E-01
DAV:  23    -0.414957822605E+03   -0.11052E-04   -0.60535E-05 23672   0.275E-02    0.668E-02
DAV:  24    -0.414957832770E+03   -0.10165E-04   -0.32582E-05 24808   0.189E-02    0.408E-02
DAV:  25    -0.414957847831E+03   -0.15061E-04   -0.27594E-05 24240   0.181E-02    0.129E-02
DAV:  26    -0.414957856563E+03   -0.87325E-05   -0.13816E-05 21104   0.126E-02    0.119E-02
DAV:  27    -0.414957861877E+03   -0.53136E-05   -0.78520E-06 20016   0.707E-03    0.122E-02
DAV:  28    -0.414957869239E+03   -0.73615E-05   -0.63596E-06 17312   0.978E-03    0.974E-03
DAV:  29    -0.414957875136E+03   -0.58976E-05   -0.13024E-05 16576   0.937E-03    0.881E-03
DAV:  30    -0.414957879326E+03   -0.41897E-05   -0.10530E-05 16272   0.824E-03    0.646E-03
DAV:  31    -0.414957882014E+03   -0.26885E-05   -0.10971E-05 17864   0.112E-02    0.567E-03
DAV:  32    -0.414957883944E+03   -0.19293E-05   -0.75710E-06 14648   0.640E-03    0.378E-03
DAV:  33    -0.414957884535E+03   -0.59080E-06   -0.16041E-06 12648   0.354E-03    0.214E-03
DAV:  34    -0.414957884750E+03   -0.21517E-06   -0.60309E-07 12704   0.280E-03    0.159E-03
DAV:  35    -0.414957884902E+03   -0.15258E-06   -0.48566E-07 12192   0.311E-03    0.139E-03
DAV:  36    -0.414957885055E+03   -0.15282E-06   -0.44159E-07 11816   0.237E-03    0.990E-04
DAV:  37    -0.414957885123E+03   -0.67987E-07   -0.14436E-07 10416   0.187E-03
   1 F= -.41495789E+03 E0= -.41494672E+03  d E =-.414958E+03  mag=    14.0019
       N       E                     dE             d eps       ncg     rms          rms(c)
DAV:   1    -0.414965125205E+03   -0.72401E-02   -0.24543E-02 17480   0.535E-01    0.621E-02
DAV:   2    -0.414965439879E+03   -0.31467E-03   -0.33832E-03 22528   0.171E-01    0.366E-02
DAV:   3    -0.414965455982E+03   -0.16103E-04   -0.21785E-04 23816   0.470E-02    0.296E-02
DAV:   4    -0.414965454329E+03    0.16529E-05   -0.34699E-05 24152   0.191E-02    0.196E-02
DAV:   5    -0.414965451747E+03    0.25825E-05   -0.24106E-05 21920   0.153E-02    0.116E-02
DAV:   6    -0.414965452423E+03   -0.67598E-06   -0.87090E-06 22240   0.976E-03    0.598E-03
DAV:   7    -0.414965452500E+03   -0.77467E-07   -0.44434E-06 23632   0.542E-03    0.370E-03
DAV:   8    -0.414965452596E+03   -0.95941E-07   -0.60346E-07 17288   0.354E-03
   2 F= -.41496545E+03 E0= -.41495423E+03  d E =-.756747E-02  mag=    14.0021
       N       E                     dE             d eps       ncg     rms          rms(c)
DAV:   1    -0.414864443697E+03    0.10101E+00   -0.19845E+01 17016   0.152E+01    0.175E+00
DAV:   2    -0.415117590466E+03   -0.25315E+00   -0.26925E+00 22448   0.489E+00    0.109E+00
DAV:   3    -0.415129337557E+03   -0.11747E-01   -0.16394E-01 24016   0.128E+00    0.764E-01
DAV:   4    -0.415127983321E+03    0.13542E-02   -0.28100E-02 24256   0.551E-01    0.574E-01
DAV:   5    -0.415126760875E+03    0.12224E-02   -0.12424E-02 23144   0.375E-01    0.322E-01
DAV:   6    -0.415126990025E+03   -0.22915E-03   -0.45187E-03 23456   0.223E-01    0.181E-01
DAV:   7    -0.415127140259E+03   -0.15023E-03   -0.21386E-03 24552   0.133E-01    0.101E-01
DAV:   8    -0.415127186461E+03   -0.46201E-04   -0.50777E-04 23256   0.933E-02    0.514E-02
DAV:   9    -0.415127190968E+03   -0.45076E-05   -0.23084E-04 25312   0.485E-02    0.303E-02
DAV:  10    -0.415127189472E+03    0.14966E-05   -0.63136E-05 25752   0.250E-02    0.168E-02
DAV:  11    -0.415127192358E+03   -0.28869E-05   -0.21383E-05 24832   0.152E-02    0.959E-03
DAV:  12    -0.415127193696E+03   -0.13375E-05   -0.57701E-06 23896   0.890E-03    0.645E-03
DAV:  13    -0.415127194730E+03   -0.10339E-05   -0.22607E-06 22168   0.597E-03    0.482E-03
DAV:  14    -0.415127195298E+03   -0.56782E-06   -0.84751E-07 14832   0.365E-03    0.324E-03
DAV:  15    -0.415127195927E+03   -0.62940E-06   -0.86563E-07 16712   0.332E-03    0.268E-03
DAV:  16    -0.415127196498E+03   -0.57072E-06   -0.48831E-07 12232   0.319E-03    0.234E-03
DAV:  17    -0.415127197079E+03   -0.58095E-06   -0.78274E-07 13784   0.336E-03    0.214E-03
DAV:  18    -0.415127197553E+03   -0.47395E-06   -0.73439E-07 12648   0.333E-03    0.195E-03
DAV:  19    -0.415127197971E+03   -0.41848E-06   -0.11596E-06 13016   0.412E-03    0.188E-03
DAV:  20    -0.415127198257E+03   -0.28559E-06   -0.11189E-06 12040   0.304E-03    0.144E-03
DAV:  21    -0.415127198392E+03   -0.13533E-06   -0.38954E-07 12208   0.233E-03    0.104E-03
DAV:  22    -0.415127198457E+03   -0.65331E-07   -0.24183E-07 10840   0.200E-03
   3 F= -.41512720E+03 E0= -.41511321E+03  d E =-.161746E+00  mag=    14.0169
       N       E                     dE             d eps       ncg     rms          rms(c)
DAV:   1    -0.414359840413E+03    0.76736E+00   -0.53372E+01 15928   0.272E+01    0.300E+00
DAV:   2    -0.415203683254E+03   -0.84384E+00   -0.88086E+00 22088   0.883E+00    0.200E+00
DAV:   3    -0.415251750871E+03   -0.48068E-01   -0.53774E-01 24584   0.230E+00    0.120E+00
DAV:   4    -0.415248170302E+03    0.35806E-02   -0.69262E-02 23880   0.940E-01    0.945E-01
DAV:   5    -0.415242984565E+03    0.51857E-02   -0.34024E-02 23432   0.595E-01    0.548E-01
DAV:   6    -0.415243070100E+03   -0.85535E-04   -0.12367E-02 23360   0.365E-01    0.318E-01
DAV:   7    -0.415243395567E+03   -0.32547E-03   -0.49500E-03 24552   0.220E-01    0.184E-01
DAV:   8    -0.415243580701E+03   -0.18513E-03   -0.12398E-03 23080   0.153E-01    0.927E-02
DAV:   9    -0.415243614032E+03   -0.33330E-04   -0.63860E-04 25368   0.813E-02    0.545E-02
DAV:  10    -0.415243597889E+03    0.16143E-04   -0.17645E-04 25640   0.456E-02    0.323E-02
DAV:  11    -0.415243607763E+03   -0.98743E-05   -0.87542E-05 24664   0.287E-02    0.189E-02
DAV:  12    -0.415243611023E+03   -0.32596E-05   -0.16389E-05 22936   0.168E-02    0.112E-02
DAV:  13    -0.415243615122E+03   -0.40986E-05   -0.84976E-06 24256   0.988E-03    0.931E-03
DAV:  14    -0.415243617868E+03   -0.27461E-05   -0.33047E-06 21112   0.655E-03    0.648E-03
DAV:  15    -0.415243620789E+03   -0.29211E-05   -0.28322E-06 20360   0.572E-03    0.553E-03
DAV:  16    -0.415243623706E+03   -0.29170E-05   -0.28182E-06 16272   0.596E-03    0.496E-03
DAV:  17    -0.415243626323E+03   -0.26167E-05   -0.39081E-06 16344   0.625E-03    0.445E-03
DAV:  18    -0.415243628384E+03   -0.20614E-05   -0.35912E-06 14648   0.644E-03    0.404E-03
DAV:  19    -0.415243629895E+03   -0.15105E-05   -0.51087E-06 15776   0.670E-03    0.382E-03
DAV:  20    -0.415243630895E+03   -0.10006E-05   -0.37522E-06 13568   0.494E-03    0.281E-03
DAV:  21    -0.415243631347E+03   -0.45204E-06   -0.10652E-06 12440   0.344E-03    0.186E-03
DAV:  22    -0.415243631544E+03   -0.19643E-06   -0.67274E-07 12600   0.266E-03    0.127E-03
DAV:  23    -0.415243631637E+03   -0.93074E-07   -0.30576E-07 11312   0.245E-03
   4 F= -.41524363E+03 E0= -.41522724E+03  d E =-.116433E+00  mag=    14.0328
       N       E                     dE             d eps       ncg     rms          rms(c)
DAV:   1    -0.414724295940E+03    0.51934E+00   -0.25425E+01 14320   0.220E+01    0.220E+00
DAV:   2    -0.415263267623E+03   -0.53897E+00   -0.55866E+00 22112   0.704E+00    0.130E+00
DAV:   3    -0.415291807360E+03   -0.28540E-01   -0.29101E-01 24352   0.167E+00    0.757E-01
DAV:   4    -0.415291334846E+03    0.47251E-03   -0.35469E-02 24064   0.636E-01    0.627E-01
DAV:   5    -0.415289254478E+03    0.20804E-02   -0.10321E-02 23824   0.360E-01    0.431E-01
DAV:   6    -0.415288404009E+03    0.85047E-03   -0.56489E-03 21920   0.265E-01    0.209E-01
DAV:   7    -0.415288683900E+03   -0.27989E-03   -0.30086E-03 24040   0.172E-01    0.128E-01
DAV:   8    -0.415288781625E+03   -0.97725E-04   -0.72653E-04 23656   0.109E-01    0.592E-02
DAV:   9    -0.415288804509E+03   -0.22885E-04   -0.28749E-04 25536   0.600E-02    0.392E-02
DAV:  10    -0.415288803857E+03    0.65251E-06   -0.92717E-05 24944   0.379E-02    0.247E-02
DAV:  11    -0.415288812583E+03   -0.87264E-05   -0.40334E-05 24416   0.212E-02    0.146E-02
DAV:  12    -0.415288816192E+03   -0.36092E-05   -0.11066E-05 23880   0.124E-02    0.104E-02
DAV:  13    -0.415288819603E+03   -0.34110E-05   -0.59533E-06 23336   0.827E-03    0.806E-03
DAV:  14    -0.415288822543E+03   -0.29399E-05   -0.30407E-06 20184   0.624E-03    0.646E-03
DAV:  15    -0.415288825890E+03   -0.33469E-05   -0.30798E-06 18480   0.595E-03    0.558E-03
DAV:  16    -0.415288829058E+03   -0.31683E-05   -0.34811E-06 15168   0.607E-03    0.500E-03
DAV:  17    -0.415288832480E+03   -0.34216E-05   -0.61558E-06 18000   0.964E-03    0.513E-03
DAV:  18    -0.415288834860E+03   -0.23797E-05   -0.96525E-06 14080   0.642E-03    0.405E-03
DAV:  19    -0.415288836081E+03   -0.12219E-05   -0.34789E-06 14192   0.552E-03    0.310E-03
DAV:  20    -0.415288836777E+03   -0.69507E-06   -0.24909E-06 13512   0.444E-03    0.235E-03
DAV:  21    -0.415288837127E+03   -0.35048E-06   -0.13698E-06 13408   0.371E-03    0.181E-03
DAV:  22    -0.415288837339E+03   -0.21204E-06   -0.65215E-07 12504   0.253E-03    0.107E-03
DAV:  23    -0.415288837412E+03   -0.72818E-07   -0.15440E-07 10408   0.179E-03
   5 F= -.41528884E+03 E0= -.41527357E+03  d E =-.452058E-01  mag=    14.0240
       N       E                     dE             d eps       ncg     rms          rms(c)
DAV:   1    -0.413572559306E+03    0.17163E+01   -0.80873E+01 14152   0.380E+01    0.410E+00
DAV:   2    -0.415247405733E+03   -0.16748E+01   -0.17337E+01 22112   0.125E+01    0.268E+00
DAV:   3    -0.415345569100E+03   -0.98163E-01   -0.98416E-01 24240   0.291E+00    0.144E+00
DAV:   4    -0.415347441549E+03   -0.18724E-02   -0.12797E-01 23480   0.117E+00    0.117E+00
DAV:   5    -0.415343923303E+03    0.35182E-02   -0.34721E-02 24632   0.563E-01    0.825E-01
DAV:   6    -0.415341292192E+03    0.26311E-02   -0.11812E-02 21520   0.404E-01    0.444E-01
DAV:   7    -0.415341769228E+03   -0.47704E-03   -0.84901E-03 22760   0.289E-01    0.250E-01
DAV:   8    -0.415342126984E+03   -0.35776E-03   -0.29550E-03 24720   0.182E-01    0.101E-01
DAV:   9    -0.415342207086E+03   -0.80102E-04   -0.96755E-04 25040   0.110E-01    0.792E-02
DAV:  10    -0.415342219105E+03   -0.12020E-04   -0.27406E-04 24800   0.691E-02    0.457E-02
DAV:  11    -0.415342247097E+03   -0.27992E-04   -0.16129E-04 25128   0.417E-02    0.279E-02
DAV:  12    -0.415342265549E+03   -0.18452E-04   -0.42333E-05 22584   0.246E-02    0.189E-02
DAV:  13    -0.415342279663E+03   -0.14114E-04   -0.19823E-05 23648   0.139E-02    0.155E-02
DAV:  14    -0.415342293441E+03   -0.13778E-04   -0.12459E-05 23472   0.113E-02    0.130E-02
DAV:  15    -0.415342310286E+03   -0.16845E-04   -0.15112E-05 20832   0.132E-02    0.120E-02
DAV:  16    -0.415342327932E+03   -0.17646E-04   -0.24127E-05 19592   0.163E-02    0.110E-02
DAV:  17    -0.415342340020E+03   -0.12088E-04   -0.32958E-05 18400   0.128E-02    0.938E-03
DAV:  18    -0.415342348492E+03   -0.84720E-05   -0.23381E-05 19520   0.152E-02    0.862E-03
DAV:  19    -0.415342353521E+03   -0.50290E-05   -0.18367E-05 16928   0.111E-02    0.660E-03
DAV:  20    -0.415342356239E+03   -0.27176E-05   -0.10791E-05 15176   0.670E-03    0.414E-03
DAV:  21    -0.415342357245E+03   -0.10062E-05   -0.23491E-06 13528   0.455E-03    0.265E-03
DAV:  22    -0.415342357659E+03   -0.41375E-06   -0.15328E-06 13520   0.430E-03    0.211E-03
DAV:  23    -0.415342357914E+03   -0.25576E-06   -0.10341E-06 13280   0.328E-03    0.158E-03
DAV:  24    -0.415342358073E+03   -0.15898E-06   -0.37219E-07 11320   0.237E-03    0.882E-04
DAV:  25    -0.415342358131E+03   -0.57371E-07   -0.95817E-08  9464   0.175E-03
   6 F= -.41534236E+03 E0= -.41532897E+03  d E =-.535207E-01  mag=    14.0093
       N       E                     dE             d eps       ncg     rms          rms(c)
DAV:   1    -0.413488334944E+03    0.18540E+01   -0.74570E+01 14080   0.449E+01    0.404E+00
DAV:   2    -0.415274591126E+03   -0.17863E+01   -0.18483E+01 22160   0.133E+01    0.223E+00
DAV:   3    -0.415371124809E+03   -0.96534E-01   -0.97421E-01 24256   0.309E+00    0.128E+00
DAV:   4    -0.415373774493E+03   -0.26497E-02   -0.12008E-01 24832   0.113E+00    0.107E+00
DAV:   5    -0.415370322601E+03    0.34519E-02   -0.26168E-02 24352   0.597E-01    0.797E-01
DAV:   6    -0.415367845461E+03    0.24771E-02   -0.98381E-03 21488   0.434E-01    0.407E-01
DAV:   7    -0.415368264747E+03   -0.41929E-03   -0.76001E-03 22552   0.289E-01    0.224E-01
DAV:   8    -0.415368635955E+03   -0.37121E-03   -0.26441E-03 24744   0.175E-01    0.938E-02
DAV:   9    -0.415368683464E+03   -0.47509E-04   -0.64593E-04 24296   0.102E-01    0.737E-02
DAV:  10    -0.415368688714E+03   -0.52498E-05   -0.25136E-04 24600   0.654E-02    0.441E-02
DAV:  11    -0.415368718546E+03   -0.29833E-04   -0.17548E-04 25320   0.427E-02    0.251E-02
DAV:  12    -0.415368738094E+03   -0.19548E-04   -0.48609E-05 22352   0.251E-02    0.193E-02
DAV:  13    -0.415368750816E+03   -0.12722E-04   -0.18535E-05 23592   0.141E-02    0.157E-02
DAV:  14    -0.415368766939E+03   -0.16123E-04   -0.13387E-05 22136   0.121E-02    0.133E-02
DAV:  15    -0.415368788356E+03   -0.21417E-04   -0.20274E-05 20872   0.164E-02    0.130E-02
DAV:  16    -0.415368807757E+03   -0.19401E-04   -0.44463E-05 19192   0.176E-02    0.116E-02
DAV:  17    -0.415368820469E+03   -0.12712E-04   -0.33677E-05 19616   0.144E-02    0.943E-03
DAV:  18    -0.415368828271E+03   -0.78022E-05   -0.21821E-05 18656   0.152E-02    0.861E-03
DAV:  19    -0.415368833096E+03   -0.48255E-05   -0.19915E-05 18224   0.105E-02    0.625E-03
DAV:  20    -0.415368835336E+03   -0.22398E-05   -0.65464E-06 14760   0.645E-03    0.366E-03
DAV:  21    -0.415368836161E+03   -0.82521E-06   -0.23039E-06 14304   0.435E-03    0.249E-03
DAV:  22    -0.415368836482E+03   -0.32114E-06   -0.10446E-06 13032   0.363E-03    0.180E-03
DAV:  23    -0.415368836661E+03   -0.17861E-06   -0.70204E-07 12592   0.306E-03    0.142E-03
DAV:  24    -0.415368836795E+03   -0.13451E-06   -0.34152E-07 11216   0.227E-03    0.873E-04
DAV:  25    -0.415368836852E+03   -0.56214E-07   -0.97338E-08  9440   0.175E-03
   7 F= -.41536884E+03 E0= -.41535663E+03  d E =-.264787E-01  mag=    14.0034
       N       E                     dE             d eps       ncg     rms          rms(c)
DAV:   1    -0.414797119188E+03    0.57172E+00   -0.27624E+01 14056   0.251E+01    0.217E+00
DAV:   2    -0.415358730547E+03   -0.56161E+00   -0.58180E+00 22216   0.770E+00    0.113E+00
DAV:   3    -0.415390888655E+03   -0.32158E-01   -0.34615E-01 24528   0.177E+00    0.686E-01
DAV:   4    -0.415390924763E+03   -0.36108E-04   -0.39277E-02 25432   0.618E-01    0.581E-01
DAV:   5    -0.415388923482E+03    0.20013E-02   -0.10085E-02 24216   0.382E-01    0.420E-01
DAV:   6    -0.415388100821E+03    0.82266E-03   -0.43307E-03 21560   0.273E-01    0.198E-01
DAV:   7    -0.415388300557E+03   -0.19974E-03   -0.30277E-03 23624   0.164E-01    0.122E-01
DAV:   8    -0.415388429582E+03   -0.12902E-03   -0.91105E-04 24320   0.110E-01    0.583E-02
DAV:   9    -0.415388438233E+03   -0.86510E-05   -0.20785E-04 23936   0.627E-02    0.432E-02
DAV:  10    -0.415388446564E+03   -0.83316E-05   -0.12692E-04 25496   0.389E-02    0.270E-02
DAV:  11    -0.415388458489E+03   -0.11925E-04   -0.40338E-05 24728   0.224E-02    0.153E-02
DAV:  12    -0.415388465560E+03   -0.70716E-05   -0.17968E-05 24176   0.140E-02    0.124E-02
DAV:  13    -0.415388471808E+03   -0.62481E-05   -0.59137E-06 21280   0.102E-02    0.952E-03
DAV:  14    -0.415388477966E+03   -0.61574E-05   -0.66206E-06 18944   0.738E-03    0.829E-03
DAV:  15    -0.415388484224E+03   -0.62582E-05   -0.55584E-06 18648   0.768E-03    0.725E-03
DAV:  16    -0.415388491671E+03   -0.74470E-05   -0.12304E-05 18976   0.114E-02    0.703E-03
DAV:  17    -0.415388496682E+03   -0.50115E-05   -0.15881E-05 16296   0.942E-03    0.623E-03
DAV:  18    -0.415388499477E+03   -0.27940E-05   -0.77955E-06 15616   0.728E-03    0.454E-03
DAV:  19    -0.415388500924E+03   -0.14472E-05   -0.47704E-06 16504   0.669E-03    0.374E-03
DAV:  20    -0.415388501739E+03   -0.81541E-06   -0.33026E-06 13872   0.473E-03    0.260E-03
DAV:  21    -0.415388502078E+03   -0.33855E-06   -0.10633E-06 12376   0.324E-03    0.162E-03
DAV:  22    -0.415388502190E+03   -0.11276E-06   -0.35078E-07 11888   0.230E-03    0.952E-04
DAV:  23    -0.415388502232E+03   -0.41538E-07   -0.15723E-07 10224   0.201E-03
   8 F= -.41538850E+03 E0= -.41537598E+03  d E =-.196654E-01  mag=    14.0007
       N       E                     dE             d eps       ncg     rms          rms(c)
DAV:   1    -0.415243663120E+03    0.14484E+00   -0.53865E+00 14480   0.118E+01    0.114E+00
DAV:   2    -0.415389188115E+03   -0.14552E+00   -0.15064E+00 22176   0.358E+00    0.565E-01
DAV:   3    -0.415396264445E+03   -0.70763E-02   -0.71714E-02 24224   0.789E-01    0.337E-01
DAV:   4    -0.415396297190E+03   -0.32745E-04   -0.83565E-03 25128   0.265E-01    0.291E-01
DAV:   5    -0.415395851773E+03    0.44542E-03   -0.20253E-03 22844   0.176E-01    0.215E-01
DAV:   6    -0.415395684212E+03    0.16756E-03   -0.13058E-03 20536   0.141E-01    0.898E-02
DAV:   7    -0.415395766730E+03   -0.82517E-04   -0.83234E-04 24232   0.831E-02    0.501E-02
DAV:   8    -0.415395783494E+03   -0.16764E-04   -0.18608E-04 25056   0.499E-02    0.267E-02
DAV:   9    -0.415395784875E+03   -0.13813E-05   -0.35706E-05 23856   0.273E-02    0.221E-02
DAV:  10    -0.415395784957E+03   -0.81323E-07   -0.22833E-05 25512   0.156E-02    0.116E-02
DAV:  11    -0.415395785757E+03   -0.80015E-06   -0.54077E-06 23592   0.891E-03    0.670E-03
DAV:  12    -0.415395786211E+03   -0.45414E-06   -0.25799E-06 22592   0.558E-03    0.466E-03
DAV:  13    -0.415395786639E+03   -0.42772E-06   -0.80513E-07 15872   0.387E-03    0.312E-03
DAV:  14    -0.415395787008E+03   -0.36904E-06   -0.49586E-07 13608   0.289E-03    0.234E-03
DAV:  15    -0.415395787320E+03   -0.31216E-06   -0.30883E-07 12128   0.241E-03    0.199E-03
DAV:  16    -0.415395787634E+03   -0.31386E-06   -0.33761E-07 11952   0.237E-03    0.172E-03
DAV:  17    -0.415395787964E+03   -0.32996E-06   -0.41633E-07 12144   0.269E-03    0.151E-03
DAV:  18    -0.415395788245E+03   -0.28116E-06   -0.64318E-07 12232   0.287E-03    0.146E-03
DAV:  19    -0.415395788425E+03   -0.17967E-06   -0.48945E-07 11640   0.258E-03    0.121E-03
DAV:  20    -0.415395788529E+03   -0.10405E-06   -0.37532E-07 11888   0.249E-03    0.106E-03
DAV:  21    -0.415395788592E+03   -0.63403E-07   -0.26968E-07 10944   0.195E-03
   9 F= -.41539579E+03 E0= -.41538352E+03  d E =-.728636E-02  mag=    14.0018
       N       E                     dE             d eps       ncg     rms          rms(c)
DAV:   1    -0.415366443300E+03    0.29345E-01   -0.12831E+00 14240   0.598E+00    0.517E-01
DAV:   2    -0.415398090496E+03   -0.31647E-01   -0.32724E-01 21720   0.179E+00    0.256E-01
DAV:   3    -0.415399765068E+03   -0.16746E-02   -0.17129E-02 24172   0.405E-01    0.153E-01
DAV:   4    -0.415399800333E+03   -0.35265E-04   -0.20732E-03 25480   0.132E-01    0.133E-01
DAV:   5    -0.415399700129E+03    0.10020E-03   -0.47395E-04 23208   0.883E-02    0.923E-02
DAV:   6    -0.415399676592E+03    0.23537E-04   -0.24139E-04 21600   0.627E-02    0.424E-02
DAV:   7    -0.415399689883E+03   -0.13291E-04   -0.13094E-04 23336   0.374E-02    0.273E-02
DAV:   8    -0.415399695135E+03   -0.52516E-05   -0.36734E-05 24056   0.238E-02    0.104E-02
DAV:   9    -0.415399696031E+03   -0.89671E-06   -0.10532E-05 24056   0.138E-02    0.107E-02
DAV:  10    -0.415399696544E+03   -0.51301E-06   -0.44965E-06 25192   0.750E-03    0.572E-03
DAV:  11    -0.415399697057E+03   -0.51262E-06   -0.16953E-06 20816   0.435E-03    0.373E-03
DAV:  12    -0.415399697481E+03   -0.42412E-06   -0.63280E-07 13728   0.323E-03    0.270E-03
DAV:  13    -0.415399697779E+03   -0.29764E-06   -0.38731E-07 12560   0.262E-03    0.230E-03
DAV:  14    -0.415399698125E+03   -0.34613E-06   -0.28741E-07 10448   0.257E-03    0.193E-03
DAV:  15    -0.415399698442E+03   -0.31688E-06   -0.47711E-07 12648   0.242E-03    0.166E-03
DAV:  16    -0.415399698844E+03   -0.40190E-06   -0.57818E-07 11840   0.382E-03    0.169E-03
DAV:  17    -0.415399699145E+03   -0.30130E-06   -0.14986E-06 12632   0.322E-03    0.151E-03
DAV:  18    -0.415399699300E+03   -0.15508E-06   -0.47958E-07 11448   0.248E-03    0.109E-03
DAV:  19    -0.415399699373E+03   -0.72876E-07   -0.26540E-07 11208   0.202E-03
  10 F= -.41539970E+03 E0= -.41538741E+03  d E =-.391078E-02  mag=    14.0018
