unknown system                          
           1
     7.779112    0.004108    0.003623
    -0.004572    7.778910   -0.003498
    -0.005983    0.006298   12.495625
   La   Ni   O 
    16     8    33
Direct configuration=     1
   0.24565672  0.26663455  0.85627105
   0.00405108  0.50095780  0.36211310
   0.99024619  0.49558493  0.64143132
   0.50396791  0.49531518  0.64284886
   0.48518533  0.49965917  0.36255724
   0.98376759  0.99932147  0.36212714
   0.99741830  0.00462422  0.64143700
   0.74457846  0.73848500  0.13879232
   0.50267398  0.00062816  0.36256021
   0.74337093  0.25748784  0.13747369
   0.74213395  0.23351278  0.85618956
   0.24322190  0.76174565  0.13879444
   0.24535423  0.75300786  0.86042897
   0.24442785  0.24279632  0.13747279
   0.48405109  0.00488591  0.64284725
   0.74246667  0.74719180  0.86041251
   0.24293909  0.25108619  0.49990111
   0.74488994  0.24921043  0.49993276
   0.74374099  0.74799226  0.50230649
   0.24411805  0.75231093  0.50230598
   0.49379914  0.50188768  0.99974472
   0.99507010  0.50074220  0.99891014
   0.49401314  0.99836095  0.99975370
   0.99274212  0.99950962  0.99891717
   0.45694764  0.00931686  0.17813712
   0.52308630  0.95925937  0.82935511
   0.02853318  0.52441966  0.82755975
   0.95839322  0.49368231  0.17828497
   0.53077784  0.49092031  0.17812603
   0.46498340  0.54118609  0.82931121
   0.24166441  0.79055930  0.67459551
   0.02955441  0.00653860  0.17830234
   0.24800098  0.28838640  0.32253357
   0.74295122  0.78424838  0.32199927
   0.74616915  0.70986588  0.67457760
   0.73983402  0.21200672  0.32252284
   0.76316063  0.27351103  0.66952910
   0.24489796  0.71591153  0.32201208
   0.95901407  0.97607673  0.82761094
   0.99391306  0.25012798  0.99923602
   0.49390627  0.25012585  0.49766478
   0.24321867  0.00604962  0.98327719
   0.24421846  0.50027608  0.01900865
   0.74359251  0.00003095  0.01913558
   0.74459234  0.49407325  0.98335275
   0.42988611  0.24240332  0.72325462
   0.99388891  0.75012160  0.01290057
   0.49393661  0.75017403  0.49594904
   0.49388856  0.25012690  0.99582391
   0.24386149  0.00109675  0.48139063
   0.24593494  0.50213826  0.51722544
   0.74198890  0.99811688  0.51711246
   0.74394247  0.49922803  0.48149228
   0.99393288  0.25018103  0.48730218
   0.99392397  0.75010575  0.49457570
   0.49390948  0.75011851  0.01819971
   0.12202725  0.23462726  0.69632731
Direct configuration=     2
   0.24510875  0.26751808  0.85817348
   0.00393213  0.50084966  0.36218310
   0.98903847  0.49563864  0.64159420
   0.50499232  0.49600012  0.64287309
   0.48538463  0.49969562  0.36259176
   0.98360010  0.99946100  0.36222340
   0.99481677  0.00183199  0.64097754
   0.74461065  0.73847646  0.13884299
   0.50308315  0.00061961  0.36260622
   0.74347065  0.25753086  0.13761899
   0.74128352  0.23296937  0.85594636
   0.24334323  0.76174672  0.13872774
   0.24554435  0.75289118  0.86028994
   0.24447542  0.24273944  0.13730051
   0.48626680  0.00196029  0.64218674
   0.74245027  0.74729144  0.86009074
   0.24243899  0.25152810  0.49881130
   0.74494093  0.24914329  0.49999266
   0.74379194  0.74806970  0.50240307
   0.24420028  0.75233070  0.50244372
   0.49365670  0.50193305  0.99970230
   0.99529347  0.50083003  0.99893611
   0.49398980  0.99831392  0.99969342
   0.99298917  0.99942294  0.99893509
   0.45706451  0.00931904  0.17819749
   0.52441493  0.95924868  0.82983627
   0.02779712  0.52481496  0.82767679
   0.95841585  0.49358770  0.17832258
   0.53084389  0.49095089  0.17817738
   0.46545863  0.54128791  0.82951918
   0.24182271  0.79045223  0.67466045
   0.02966132  0.00666261  0.17835063
   0.24792044  0.28833649  0.32270458
   0.74307564  0.78425389  0.32192020
   0.74608821  0.70989858  0.67471868
   0.74009277  0.21192990  0.32242564
   0.76253836  0.27424130  0.67040227
   0.24492791  0.71591789  0.32206516
   0.95814716  0.97607833  0.82810303
   0.99286964  0.25005038  0.99887385
   0.49332762  0.25012544  0.49727314
   0.24331598  0.00560393  0.98353018
   0.24427408  0.50059313  0.01927059
   0.74368791  0.00024862  0.01902424
   0.74463684  0.49368216  0.98319893
   0.43152572  0.24431867  0.72305632
   0.99393167  0.75013444  0.01300379
   0.49414748  0.74988880  0.49554138
   0.49503144  0.25004916  0.99558008
   0.24395599  0.00201648  0.48188631
   0.24591809  0.50103403  0.51754058
   0.74206857  0.99802130  0.51677921
   0.74403423  0.49931967  0.48133782
   0.99431659  0.25024209  0.48723116
   0.99388502  0.74983117  0.49434839
   0.49402456  0.75012897  0.01806321
   0.12049263  0.23688906  0.69545179
Direct configuration=     3
   0.24427125  0.26920110  0.85965749
   0.00375910  0.50069478  0.36230735
   0.98730267  0.49472818  0.64202478
   0.50636011  0.49619329  0.64310786
   0.48567688  0.49969509  0.36268213
   0.98350247  0.99977075  0.36219603
   0.99113871 -0.00166290  0.64092879
   0.74468706  0.73846332  0.13872632
   0.50364303  0.00073911  0.36250297
   0.74370351  0.25763214  0.13768265
   0.73908937  0.23182253  0.85544099
   0.24357884  0.76180652  0.13872139
   0.24592606  0.75255143  0.85999584
   0.24456393  0.24248805  0.13741347
   0.48983850 -0.00179525  0.64180642
   0.74255365  0.74706022  0.86011327
   0.24175440  0.25228970  0.49669016
   0.74485458  0.24942959  0.50015121
   0.74396516  0.74762191  0.50228068
   0.24426516  0.75199011  0.50265792
   0.49394648  0.50216950  0.99959811
   0.99510685  0.50112809  0.99895485
   0.49433198  0.99807165  0.99964217
   0.99300701  0.99915444  0.99899460
   0.45725114  0.00945548  0.17834464
   0.52728799  0.95916446  0.83052616
   0.02630748  0.52591287  0.82818140
   0.95850990  0.49334493  0.17840818
   0.53092931  0.49096320  0.17828726
   0.46645062  0.54219381  0.83019860
   0.24219124  0.79037996  0.67468888
   0.02993513  0.00704177  0.17849494
   0.24774190  0.28816056  0.32282365
   0.74332779  0.78435034  0.32181262
   0.74585262  0.71089290  0.67477943
   0.74060981  0.21166176  0.32235481
   0.76157898  0.27576197  0.67181753
   0.24499789  0.71597337  0.32221191
   0.95612706  0.97607883  0.82879806
   0.99088270  0.24991958  0.99811651
   0.49252435  0.24984795  0.49635786
   0.24352193  0.00480127  0.98409480
   0.24436778  0.50102423  0.01982532
   0.74387437  0.00058649  0.01894412
   0.74471645  0.49299358  0.98296503
   0.43476719  0.24649780  0.72310605
   0.99407961  0.75017389  0.01325833
   0.49429499  0.74951338  0.49468551
   0.49712462  0.24990069  0.99503114
   0.24413580  0.00348088  0.48312474
   0.24588395  0.49950064  0.51813539
   0.74214765  0.99805457  0.51607181
   0.74420048  0.49921519  0.48099522
   0.99431833  0.25013674  0.48675377
   0.99401761  0.74947253  0.49388750
   0.49420330  0.75017305  0.01788292
   0.11742931  0.24007809  0.69397420
Direct configuration=     4
   0.24355563  0.27043093  0.85919220
   0.00359529  0.50081502  0.36232480
   0.98650055  0.49369250  0.64225304
   0.50678367  0.49566765  0.64323090
   0.48587574  0.49980115  0.36269545
   0.98366873  0.99991164  0.36213427
   0.98980437 -0.00299964  0.64138461
   0.74477204  0.73843159  0.13861884
   0.50384522  0.00082225  0.36239087
   0.74398469  0.25774852  0.13748943
   0.73695242  0.23076635  0.85544149
   0.24378107  0.76183131  0.13884422
   0.24612768  0.75234351  0.85993734
   0.24460833  0.24222859  0.13769688
   0.49169327 -0.00340864  0.64198180
   0.74297739  0.74625754  0.86076427
   0.24152745  0.25250492  0.49500198
   0.74454178  0.24975234  0.50016311
   0.74414611  0.74706093  0.50182453
   0.24425990  0.75169149  0.50274885
   0.49439664  0.50225734  0.99961973
   0.99470583  0.50116602  0.99901705
   0.49478390  0.99795439  0.99970608
   0.99278109  0.99913756  0.99903345
   0.45736274  0.00973932  0.17841519
   0.52974905  0.95926288  0.83072058
   0.02529646  0.52721086  0.82878446
   0.95862010  0.49307798  0.17847416
   0.53097780  0.49092497  0.17837692
   0.46718849  0.54342100  0.83081567
   0.24265559  0.79053044  0.67472539
   0.03026917  0.00754597  0.17858377
   0.24754499  0.28789295  0.32271641
   0.74357353  0.78446202  0.32168018
   0.74546007  0.71278686  0.67458880
   0.74102554  0.21134788  0.32236446
   0.76093616  0.27706197  0.67230265
   0.24507049  0.71604167  0.32235889
   0.95433433  0.97606081  0.82898790
   0.98960746  0.24984723  0.99739177
   0.49227407  0.24944300  0.49554264
   0.24369025  0.00441525  0.98444686
   0.24441770  0.50100990  0.02021727
   0.74401234  0.00055423  0.01915477
   0.74473458  0.49264447  0.98292686
   0.43668071  0.24655524  0.72372291
   0.99424019  0.75025582  0.01357151
   0.49419800  0.74938388  0.49401846
   0.49830699  0.24980611  0.99446085
   0.24427667  0.00400915  0.48442746
   0.24590046  0.49892818  0.51863712
   0.74216939  0.99825412  0.51554528
   0.74424851  0.49879905  0.48072606
   0.99380771  0.24986123  0.48607237
   0.99429533  0.74938112  0.49355453
   0.49436047  0.75025292  0.01786631
   0.11546191  0.24131641  0.69354209
Direct configuration=     5
   0.24184648  0.27211290  0.85793687
   0.00307686  0.50137053  0.36215594
   0.98497804  0.49279677  0.64235663
   0.50722990  0.49441158  0.64347832
   0.48626314  0.50027128  0.36248066
   0.98396221  1.00001260  0.36235861
   0.98907234 -0.00421955  0.64215156
   0.74495130  0.73838684  0.13882806
   0.50413508  0.00083676  0.36249869
   0.74460809  0.25785379  0.13731277
   0.73293983  0.22827122  0.85565431
   0.24412870  0.76176077  0.13898310
   0.24643975  0.75256794  0.86037411
   0.24462868  0.24181525  0.13751099
   0.49375878 -0.00547668  0.64251857
   0.74408003  0.74437934  0.86153655
   0.24123464  0.25259165  0.49192293
   0.74412163  0.24925961  0.49973528
   0.74426689  0.74712817  0.50077612
   0.24439293  0.75137576  0.50287258
   0.49419880  0.50204701  1.00003459
   0.99481425  0.50081950  0.99937062
   0.49495812  0.99806864  0.99988370
   0.99289122  0.99955512  0.99895273
   0.45745809  0.01053182  0.17835075
   0.53433920  0.95950080  0.83100013
   0.02418737  0.53019202  0.82961240
   0.95881860  0.49250557  0.17852452
   0.53107997  0.49077877  0.17848885
   0.46818307  0.54572991  0.83139915
   0.24371129  0.79103712  0.67514023
   0.03107875  0.00877183  0.17855241
   0.24716916  0.28719842  0.32248758
   0.74410140  0.78438284  0.32131291
   0.74434592  0.71738401  0.67393455
   0.74151142  0.21068937  0.32203491
   0.76004136  0.27995819  0.67182236
   0.24519238  0.71621371  0.32260916
   0.95122420  0.97606608  0.82905914
   0.98788782  0.24969500  0.99594141
   0.49196036  0.24883817  0.49420324
   0.24385587  0.00433178  0.98464095
   0.24445239  0.50041338  0.02077544
   0.74419930 -0.00024297  0.02025569
   0.74466455  0.49223133  0.98350189
   0.43905081  0.24508054  0.72575307
   0.99454691  0.75044775  0.01441196
   0.49424254  0.74911063  0.49286659
   0.49931796  0.24967251  0.99326742
   0.24447690  0.00394138  0.48713645
   0.24601984  0.49817472  0.51956604
   0.74230120  0.99836322  0.51467238
   0.74404605  0.49829943  0.48026084
   0.99336578  0.24940996  0.48455965
   0.99453056  0.74928975  0.49301113
   0.49466439  0.75037146  0.01825797
   0.11341298  0.24158480  0.69412025
Direct configuration=     6
   0.23973870  0.27300863  0.85798065
   0.00273849  0.50175924  0.36169818
   0.98448194  0.49246500  0.64222810
   0.50707894  0.49266705  0.64361359
   0.48622806  0.50031515  0.36216438
   0.98488289  1.00003033  0.36185182
   0.99012656 -0.00435866  0.64259327
   0.74509638  0.73845590  0.13828580
   0.50351278  0.00108998  0.36214501
   0.74496677  0.25733774  0.13707636
   0.73021981  0.22578703  0.85523263
   0.24422772  0.76221439  0.13941186
   0.24693039  0.75296435  0.86086489
   0.24462441  0.24090752  0.13748495
   0.49356580 -0.00657453  0.64318701
   0.74494897  0.74254437  0.86191040
   0.24208699  0.25212869  0.48970455
   0.74414662  0.25016858  0.49843835
   0.74424657  0.74653714  0.49987503
   0.24455685  0.75003170  0.50308086
   0.49534409  0.50228729  1.00052746
   0.99348952  0.50122952  0.99982476
   0.49595135  0.99750522  1.00048024
   0.99155433  0.99901314  0.99903646
   0.45717174  0.01145651  0.17835187
   0.53796334  0.95925014  0.83163460
   0.02426837  0.53341114  0.82916416
   0.95940892  0.49182297  0.17852179
   0.53076707  0.49045688  0.17849685
   0.46844668  0.54755350  0.83105412
   0.24461885  0.79173183  0.67601457
   0.03212325  0.01018934  0.17863854
   0.24702759  0.28658232  0.32190649
   0.74460895  0.78392815  0.32161735
   0.74320397  0.72161040  0.67276473
   0.74141133  0.20975331  0.32174779
   0.75971287  0.28320611  0.67018755
   0.24518040  0.71654622  0.32275778
   0.94923454  0.97610394  0.82910022
   0.98707715  0.24981159  0.99463288
   0.49179021  0.24845910  0.49365261
   0.24390026  0.00507551  0.98392548
   0.24422502  0.49987000  0.02109008
   0.74434404 -0.00125313  0.02195220
   0.74446211  0.49189003  0.98497420
   0.44166750  0.24325503  0.72799706
   0.99548128  0.75046005  0.01531489
   0.49411533  0.74887637  0.49212408
   0.49858197  0.24959017  0.99233323
   0.24456508  0.00396679  0.48947586
   0.24595619  0.49801366  0.52043264
   0.74253328  0.99855637  0.51400412
   0.74380638  0.49842167  0.48005334
   0.99303606  0.24940359  0.48358264
   0.99465950  0.74902619  0.49286681
   0.49403987  0.75022342  0.01905742
   0.11228202  0.24118620  0.69509116
Direct configuration=     7
   0.23903263  0.27334367  0.85795349
   0.00249183  0.50200302  0.36166894
   0.98482975  0.49265171  0.64179689
   0.50681463  0.49169627  0.64358070
   0.48631786  0.50051485  0.36205690
   0.98489299  0.99975286  0.36232615
   0.99092747 -0.00398831  0.64219843
   0.74497818  0.73798494  0.13881641
   0.50358112  0.00081502  0.36259513
   0.74488467  0.25726938  0.13698215
   0.72905579  0.22459334  0.85416445
   0.24423376  0.76197134  0.13944611
   0.24721937  0.75299338  0.86121165
   0.24464233  0.24118055  0.13709892
   0.49310502 -0.00665514  0.64320781
   0.74527418  0.74166139  0.86085162
   0.24158801  0.25257665  0.48921147
   0.74393481  0.24944500  0.49754438
   0.74410621  0.74760426  0.49959592
   0.24451646  0.75022163  0.50320565
   0.49422142  0.50176524  1.00086869
   0.99413755  0.50086547  1.00018235
   0.49546982  0.99770477  1.00069409
   0.99212413  0.99953123  0.99879233
   0.45680455  0.01186660  0.17817350
   0.53973117  0.95864747  0.83235981
   0.02435501  0.53526450  0.82892001
   0.95977002  0.49136623  0.17836005
   0.53051622  0.49011231  0.17844742
   0.46881051  0.54857319  0.83092282
   0.24499683  0.79236961  0.67647504
   0.03268428  0.01085926  0.17843844
   0.24718021  0.28615096  0.32154970
   0.74493311  0.78341080  0.32132750
   0.74255501  0.72343455  0.67240770
   0.74108399  0.20929132  0.32141123
   0.75980376  0.28514786  0.66918463
   0.24502153  0.71692536  0.32282278
   0.94825594  0.97603549  0.82940772
   0.98669915  0.24982927  0.99403867
   0.49258647  0.24840328  0.49361901
   0.24360690  0.00573459  0.98332842
   0.24409290  0.49973108  0.02094103
   0.74406984 -0.00199402  0.02334826
   0.74439551  0.49198987  0.98599201
   0.44277809  0.24162556  0.72982903
   0.99591479  0.75032538  0.01591429
   0.49389259  0.74873574  0.49178106
   0.49794589  0.24954670  0.99199918
   0.24454615  0.00290549  0.49044585
   0.24600911  0.49733093  0.52063904
   0.74260240  0.99911582  0.51364314
   0.74361343  0.49859005  0.47961910
   0.99362911  0.24961336  0.48304278
   0.99498426  0.74877478  0.49285309
   0.49350161  0.75002926  0.01974986
   0.11266574  0.24070495  0.69617293
Direct configuration=     8
   0.23955191  0.27297888  0.85858409
   0.00257379  0.50193130  0.36151276
   0.98519289  0.49318670  0.64174859
   0.50682730  0.49205054  0.64352758
   0.48627056  0.50046745  0.36194817
   0.98469951  0.99963566  0.36214829
   0.99110785 -0.00370838  0.64206591
   0.74489857  0.73779727  0.13870952
   0.50359167  0.00068859  0.36247543
   0.74468219  0.25719900  0.13682684
   0.72989009  0.22510352  0.85421471
   0.24405527  0.76196336  0.13928776
   0.24705270  0.75302707  0.86136389
   0.24458692  0.24144024  0.13699593
   0.49262305 -0.00628641  0.64306565
   0.74517353  0.74183889  0.86066167
   0.24198304  0.25209601  0.48995975
   0.74440875  0.24946202  0.49749755
   0.74404610  0.74789730  0.49990693
   0.24461415  0.75034639  0.50317229
   0.49401384  0.50173817  1.00080622
   0.99436779  0.50079302  1.00014038
   0.49507390  0.99776411  1.00065593
   0.99215402  0.99951069  0.99880222
   0.45663991  0.01164935  0.17828636
   0.53872093  0.95849802  0.83222650
   0.02450359  0.53465280  0.82868952
   0.95989030  0.49138394  0.17844868
   0.53027696  0.49002746  0.17854519
   0.46882940  0.54797041  0.83069435
   0.24472054  0.79247826  0.67621047
   0.03253072  0.01055811  0.17853897
   0.24739666  0.28631586  0.32187861
   0.74486352  0.78335514  0.32145866
   0.74273398  0.72227714  0.67238487
   0.74091807  0.20938681  0.32155599
   0.76004539  0.28471061  0.66915631
   0.24490598  0.71693346  0.32293364
   0.94882005  0.97609261  0.82920141
   0.98702657  0.24992965  0.99430202
   0.49219750  0.24853846  0.49408528
   0.24362554  0.00586857  0.98312816
   0.24404038  0.49988407  0.02061156
   0.74413588 -0.00190431  0.02336127
   0.74431299  0.49228767  0.98587162
   0.44244329  0.24171275  0.72955988
   0.99583044  0.75036429  0.01578765
   0.49398469  0.74879410  0.49208889
   0.49781543  0.24959071  0.99220298
   0.24445855  0.00323651  0.48983374
   0.24612337  0.49767633  0.52038613
   0.74262299  0.99903375  0.51385249
   0.74364902  0.49878850  0.47954720
   0.99355612  0.24968880  0.48343072
   0.99471488  0.74880668  0.49304247
   0.49329094  0.74993394  0.01976432
   0.11335209  0.24050829  0.69607179
Direct configuration=     9
   0.23978140  0.27285943  0.85874873
   0.00266036  0.50188726  0.36154363
   0.98538987  0.49337344  0.64167843
   0.50693476  0.49201969  0.64345894
   0.48621748  0.50040243  0.36201621
   0.98466812  0.99955844  0.36205738
   0.99122232 -0.00356727  0.64198279
   0.74482063  0.73765388  0.13857746
   0.50354129  0.00064729  0.36241488
   0.74455702  0.25704196  0.13676666
   0.73006435  0.22513108  0.85400863
   0.24390733  0.76206649  0.13941136
   0.24705108  0.75303229  0.86128618
   0.24452532  0.24149385  0.13719311
   0.49241951 -0.00625717  0.64301743
   0.74515132  0.74175588  0.86049474
   0.24194171  0.25214912  0.49020152
   0.74435001  0.24967375  0.49736234
   0.74402371  0.74780339  0.50003555
   0.24458156  0.75040323  0.50316026
   0.49418036  0.50184212  1.00075304
   0.99411239  0.50095278  1.00010204
   0.49522216  0.99760729  1.00067409
   0.99196033  0.99941577  0.99882207
   0.45634266  0.01160674  0.17830570
   0.53856398  0.95828637  0.83227787
   0.02448721  0.53467240  0.82860914
   0.96014334  0.49122653  0.17840457
   0.52994557  0.48984030  0.17851872
   0.46894835  0.54778981  0.83060992
   0.24458561  0.79266072  0.67617271
   0.03264033  0.01053077  0.17854531
   0.24756313  0.28634514  0.32201982
   0.74487126  0.78325380  0.32148205
   0.74275122  0.72180016  0.67227358
   0.74080629  0.20934332  0.32154767
   0.76016174  0.28490024  0.66907853
   0.24479205  0.71704671  0.32296590
   0.94881183  0.97608819  0.82915087
   0.98706771  0.24996104  0.99434456
   0.49223033  0.24853640  0.49438640
   0.24353345  0.00606682  0.98292024
   0.24400888  0.49995192  0.02035729
   0.74406739 -0.00196046  0.02360638
   0.74427817  0.49247982  0.98596751
   0.44259909  0.24173095  0.72970569
   0.99590943  0.75034320  0.01580314
   0.49407770  0.74884481  0.49220046
   0.49783431  0.24962820  0.99224712
   0.24440230  0.00330387  0.48961516
   0.24622962  0.49770191  0.52027163
   0.74266083  0.99908063  0.51390538
   0.74366438  0.49896576  0.47935351
   0.99385616  0.24970863  0.48359576
   0.99464928  0.74882090  0.49315090
   0.49298119  0.74989155  0.01986472
   0.11366681  0.24055652  0.69619006
Direct configuration=    10
   0.23978140  0.27285943  0.85874873
   0.00266036  0.50188726  0.36154363
   0.98538987  0.49337344  0.64167843
   0.50693476  0.49201969  0.64345894
   0.48621748  0.50040243  0.36201621
   0.98466812  0.99955844  0.36205738
   0.99122232 -0.00356727  0.64198279
   0.74482063  0.73765388  0.13857746
   0.50354129  0.00064729  0.36241488
   0.74455702  0.25704196  0.13676666
   0.73006435  0.22513108  0.85400863
   0.24390733  0.76206649  0.13941136
   0.24705108  0.75303229  0.86128618
   0.24452532  0.24149385  0.13719311
   0.49241951 -0.00625717  0.64301743
   0.74515132  0.74175588  0.86049474
   0.24194171  0.25214912  0.49020152
   0.74435001  0.24967375  0.49736234
   0.74402371  0.74780339  0.50003555
   0.24458156  0.75040323  0.50316026
   0.49418036  0.50184212  1.00075304
   0.99411239  0.50095278  1.00010204
   0.49522216  0.99760729  1.00067409
   0.99196033  0.99941577  0.99882207
   0.45634266  0.01160674  0.17830570
   0.53856398  0.95828637  0.83227787
   0.02448721  0.53467240  0.82860914
   0.96014334  0.49122653  0.17840457
   0.52994557  0.48984030  0.17851872
   0.46894835  0.54778981  0.83060992
   0.24458561  0.79266072  0.67617271
   0.03264033  0.01053077  0.17854531
   0.24756313  0.28634514  0.32201982
   0.74487126  0.78325380  0.32148205
   0.74275122  0.72180016  0.67227358
   0.74080629  0.20934332  0.32154767
   0.76016174  0.28490024  0.66907853
   0.24479205  0.71704671  0.32296590
   0.94881183  0.97608819  0.82915087
   0.98706771  0.24996104  0.99434456
   0.49223033  0.24853640  0.49438640
   0.24353345  0.00606682  0.98292024
   0.24400888  0.49995192  0.02035729
   0.74406739 -0.00196046  0.02360638
   0.74427817  0.49247982  0.98596751
   0.44259909  0.24173095  0.72970569
   0.99590943  0.75034320  0.01580314
   0.49407770  0.74884481  0.49220046
   0.49783431  0.24962820  0.99224712
   0.24440230  0.00330387  0.48961516
   0.24622962  0.49770191  0.52027163
   0.74266083  0.99908063  0.51390538
   0.74366438  0.49896576  0.47935351
   0.99385616  0.24970863  0.48359576
   0.99464928  0.74882090  0.49315090
   0.49298119  0.74989155  0.01986472
   0.11366681  0.24055652  0.69619006
