 vasp.6.2.1 16May21 (build Aug 15 2022 14:47:30) complex                         
 executed on             LinuxGNU date 2025.12.11  13:47:18
 running on   48 total cores
 distrk:  each k-point on   48 cores,    1 groups
 distr:  one band on NCORE=   1 cores,   48 groups


--------------------------------------------------------------------------------------------------------


 INCAR:
   ALGO = Fast
   EDIFF = 5e-05
   ENCUT = 520.0
   ISMEAR = -5
   ISPIN = 2
   LASPH = True
   LCHARG = True
   LORBIT = 11
   LREAL = False
   LWAVE = False
   MAGMOM = 1*0.6
   NELM = 100
   NSW = 0
   PREC = Accurate
   SIGMA = 0.05

 POTCAR:    PAW_PBE Al 04Jan2001                  
 -----------------------------------------------------------------------------
|                                                                             |
|           W    W    AA    RRRRR   N    N  II  N    N   GGGG   !!!           |
|           W    W   A  A   R    R  NN   N  II  NN   N  G    G  !!!           |
|           W    W  A    A  R    R  N N  N  II  N N  N  G       !!!           |
|           W WW W  AAAAAA  RRRRR   N  N N  II  N  N N  G  GGG   !            |
|           WW  WW  A    A  R   R   N   NN  II  N   NN  G    G                |
|           W    W  A    A  R    R  N    N  II  N    N   GGGG   !!!           |
|                                                                             |
|     For optimal performance we recommend to set                             |
|       NCORE = 2 up to number-of-cores-per-socket                            |
|     NCORE specifies how many cores store one orbital (NPAR=cpu/NCORE).      |
|     This setting can greatly improve the performance of VASP for DFT.       |
|     The default, NCORE=1 might be grossly inefficient on modern             |
|     multi-core architectures or massively parallel machines. Do your        |
|     own testing! More info at https://www.vasp.at/wiki/index.php/NCORE      |
|     Unfortunately you need to use the default for GW and RPA                |
|     calculations (for HF NCORE is supported but not extensively tested      |
|     yet).                                                                   |
|                                                                             |
 -----------------------------------------------------------------------------

 POTCAR:    PAW_PBE Al 04Jan2001                  
   VRHFIN =Al: s2p1                                                                                 
   LEXCH  = PE                                                                                      
   EATOM  =    53.5387 eV,    3.9350 Ry                                                             
                                                                                                    
   TITEL  = PAW_PBE Al 04Jan2001                                                                    
   LULTRA =        F    use ultrasoft PP ?                                                          
   IUNSCR =        1    unscreen: 0-lin 1-nonlin 2-no                                               
   RPACOR =    1.500    partial core radius                                                         
   POMASS =   26.981; ZVAL   =    3.000    mass and valenz                                          
   RCORE  =    1.900    outmost cutoff radius                                                       
   RWIGS  =    2.650; RWIGS  =    1.402    wigner-seitz radius (au A)                               
   ENMAX  =  240.300; ENMIN  =  180.225 eV                                                          
   ICORE  =        2    local potential                                                             
   LCOR   =        T    correct aug charges                                                         
   LPAW   =        T    paw PP                                                                      
   EAUG   =  291.052                                                                                
   DEXC   =    0.000                                                                                
   RMAX   =    1.939    core radius for proj-oper                                                   
   RAUG   =    1.300    factor for augmentation sphere                                              
   RDEP   =    1.966    radius for radial grids                                                     
   RDEPT  =    1.856    core radius for aug-charge                                                  
                                                                                                    
   Atomic configuration                                                                             
    6 entries                                                                                       
     n  l   j            E        occ.                                                              
     1  0  0.50     -1511.1048   2.0000                                                             
     2  0  0.50      -108.1629   2.0000                                                             
     2  1  1.50       -69.6402   6.0000                                                             
     3  0  0.50        -7.7528   2.0000                                                             
     3  1  1.50        -2.7121   1.0000                                                             
     3  2  2.50        -2.7212   0.0000                                                             
   Description                                                                                      
     l       E           TYP  RCUT    TYP  RCUT                                                     
     0     -7.7528455     23  1.900                                                                 
     0     -3.3096929     23  1.900                                                                 
     1     -2.7120682     23  1.900                                                                 
     1     13.6058260     23  1.900                                                                 
     2     -2.7211652      7  1.900                                                                 
  local pseudopotential read in
  partial core-charges read in
  partial kinetic energy density read in
  atomic valenz-charges read in
  non local Contribution for L=           0  read in
    real space projection operators read in
  non local Contribution for L=           0  read in
    real space projection operators read in
  non local Contribution for L=           1  read in
    real space projection operators read in
  non local Contribution for L=           1  read in
    real space projection operators read in
    PAW grid and wavefunctions read in

   number of l-projection  operators is LMAX  =           4
   number of lm-projection operators is LMMAX =           8

  PAW_PBE Al 04Jan2001                  :
 energy of atom  1       EATOM=  -53.5387
 kinetic energy error for atom=    0.0002 (will be added to EATOM!!)


 POSCAR: # Generated by Masgent for k-point conve
  positions in direct lattice
  No initial velocities read in
 exchange correlation table for  LEXCH =        8
   RHO(1)=    0.500       N(1)  =     2000
   RHO(2)=  100.500       N(2)  =     4000

 VTST: version 4.2, (08/11/21)

 CHAIN: initializing optimizer
 
 OPT: Using VASP Dynamics algorithm
 CHAIN: Read ICHAIN            0

 POSCAR: # Generated by Masgent for k-point conve
  positions in direct lattice
  No initial velocities read in



--------------------------------------------------------------------------------------------------------


 ion  position               nearest neighbor table
   1  0.000  0.000  0.000-

  LATTYP: Found a face centered cubic cell.
 ALAT       =     4.0480000000
  
  Lattice vectors:
  
 A1 = (   0.0000000000,   2.0240000000,   2.0240000000)
 A2 = (   2.0240000000,   0.0000000000,   2.0240000000)
 A3 = (   2.0240000000,   2.0240000000,   0.0000000000)


Analysis of symmetry for initial positions (statically):
=====================================================================
 Subroutine PRICEL returns:
 Original cell was already a primitive cell.
 

 Routine SETGRP: Setting up the symmetry group for a 
 face centered cubic supercell.


 Subroutine GETGRP returns: Found 48 space group operations
 (whereof 48 operations were pure point group operations)
 out of a pool of 48 trial point group operations.


The static configuration has the point symmetry O_h .


Analysis of symmetry for dynamics (positions and initial velocities):
=====================================================================
 Subroutine PRICEL returns:
 Original cell was already a primitive cell.
 

 Routine SETGRP: Setting up the symmetry group for a 
 face centered cubic supercell.


 Subroutine GETGRP returns: Found 48 space group operations
 (whereof 48 operations were pure point group operations)
 out of a pool of 48 trial point group operations.


The dynamic configuration has the point symmetry O_h .


Analysis of structural, dynamic, and magnetic symmetry:
=====================================================================
 Subroutine PRICEL returns:
 Original cell was already a primitive cell.
 

 Routine SETGRP: Setting up the symmetry group for a 
 face centered cubic supercell.


 Subroutine GETGRP returns: Found 48 space group operations
 (whereof 48 operations were pure point group operations)
 out of a pool of 48 trial point group operations.


The overall configuration has the point symmetry O_h .


 Subroutine INISYM returns: Found 48 space group operations
 (whereof 48 operations are pure point group operations),
 and found     1 'primitive' translations


----------------------------------------------------------------------------------------

                                     Primitive cell                                     

  volume of cell :      16.5829

  direct lattice vectors                    reciprocal lattice vectors
     0.000000000  2.024000000  2.024000000    -0.247035573  0.247035573  0.247035573
     2.024000000  0.000000000  2.024000000     0.247035573 -0.247035573  0.247035573
     2.024000000  2.024000000  0.000000000     0.247035573  0.247035573 -0.247035573

  length of vectors
     2.862368250  2.862368250  2.862368250     0.427878164  0.427878164  0.427878164

  position of ions in fractional coordinates (direct lattice)
     0.000000000  0.000000000  0.000000000

  ion indices of the primitive-cell ions
   primitive index   ion index
                 1           1

----------------------------------------------------------------------------------------



 KPOINTS: # Generated by Masgent for k-point conve

Automatic generation of k-mesh.
 Grid dimensions read from file:
 generate k-points for:   15   15   15

 Generating k-lattice:

  Cartesian coordinates                     Fractional coordinates (reciprocal lattice)
    -0.016469038  0.016469038  0.016469038     0.066666667  0.000000000  0.000000000
     0.016469038 -0.016469038  0.016469038     0.000000000  0.066666667  0.000000000
     0.016469038  0.016469038 -0.016469038     0.000000000  0.000000000  0.066666667

  Length of vectors
     0.028525211  0.028525211  0.028525211

  Shift w.r.t. Gamma in fractional coordinates (k-lattice)
     0.000000000  0.000000000  0.000000000

 TETIRR: Found    484 inequivalent tetrahedra from    20250
 
 Subroutine IBZKPT returns following result:
 ===========================================
 
 Found    120 irreducible k-points:
 
 Following reciprocal coordinates:
            Coordinates               Weight
  0.000000  0.000000  0.000000      1.000000
  0.066667  0.000000  0.000000      8.000000
  0.133333  0.000000  0.000000      8.000000
  0.200000  0.000000  0.000000      8.000000
  0.266667  0.000000  0.000000      8.000000
  0.333333  0.000000  0.000000      8.000000
  0.400000  0.000000  0.000000      8.000000
  0.466667  0.000000  0.000000      8.000000
  0.066667  0.066667  0.000000      6.000000
  0.133333  0.066667  0.000000     24.000000
  0.200000  0.066667  0.000000     24.000000
  0.266667  0.066667  0.000000     24.000000
  0.333333  0.066667  0.000000     24.000000
  0.400000  0.066667  0.000000     24.000000
  0.466667  0.066667  0.000000     24.000000
 -0.466667  0.066667  0.000000     24.000000
 -0.400000  0.066667  0.000000     24.000000
 -0.333333  0.066667  0.000000     24.000000
 -0.266667  0.066667  0.000000     24.000000
 -0.200000  0.066667  0.000000     24.000000
 -0.133333  0.066667  0.000000     24.000000
 -0.066667  0.066667  0.000000     12.000000
  0.133333  0.133333  0.000000      6.000000
  0.200000  0.133333  0.000000     24.000000
  0.266667  0.133333  0.000000     24.000000
  0.333333  0.133333  0.000000     24.000000
  0.400000  0.133333  0.000000     24.000000
  0.466667  0.133333  0.000000     24.000000
 -0.466667  0.133333  0.000000     24.000000
 -0.400000  0.133333  0.000000     24.000000
 -0.333333  0.133333  0.000000     24.000000
 -0.266667  0.133333  0.000000     24.000000
 -0.200000  0.133333  0.000000     24.000000
 -0.133333  0.133333  0.000000     12.000000
  0.200000  0.200000  0.000000      6.000000
  0.266667  0.200000  0.000000     24.000000
  0.333333  0.200000  0.000000     24.000000
  0.400000  0.200000  0.000000     24.000000
  0.466667  0.200000  0.000000     24.000000
 -0.466667  0.200000  0.000000     24.000000
 -0.400000  0.200000  0.000000     24.000000
 -0.333333  0.200000  0.000000     24.000000
 -0.266667  0.200000  0.000000     24.000000
 -0.200000  0.200000  0.000000     12.000000
  0.266667  0.266667  0.000000      6.000000
  0.333333  0.266667  0.000000     24.000000
  0.400000  0.266667  0.000000     24.000000
  0.466667  0.266667  0.000000     24.000000
 -0.466667  0.266667  0.000000     24.000000
 -0.400000  0.266667  0.000000     24.000000
 -0.333333  0.266667  0.000000     24.000000
 -0.266667  0.266667  0.000000     12.000000
  0.333333  0.333333  0.000000      6.000000
  0.400000  0.333333  0.000000     24.000000
  0.466667  0.333333  0.000000     24.000000
 -0.466667  0.333333  0.000000     24.000000
 -0.400000  0.333333  0.000000     24.000000
 -0.333333  0.333333  0.000000     12.000000
  0.400000  0.400000  0.000000      6.000000
  0.466667  0.400000  0.000000     24.000000
 -0.466667  0.400000  0.000000     24.000000
 -0.400000  0.400000  0.000000     12.000000
  0.466667  0.466667  0.000000      6.000000
 -0.466667  0.466667  0.000000     12.000000
  0.200000  0.133333  0.066667     24.000000
  0.266667  0.133333  0.066667     48.000000
  0.333333  0.133333  0.066667     48.000000
  0.400000  0.133333  0.066667     48.000000
  0.466667  0.133333  0.066667     48.000000
 -0.466667  0.133333  0.066667     48.000000
  0.266667  0.200000  0.066667     24.000000
  0.333333  0.200000  0.066667     48.000000
  0.400000  0.200000  0.066667     48.000000
  0.466667  0.200000  0.066667     48.000000
 -0.466667  0.200000  0.066667     48.000000
 -0.400000  0.200000  0.066667     48.000000
 -0.333333  0.200000  0.066667     48.000000
 -0.266667  0.200000  0.066667     48.000000
 -0.200000  0.200000  0.066667     48.000000
 -0.133333  0.200000  0.066667     24.000000
  0.333333  0.266667  0.066667     24.000000
  0.400000  0.266667  0.066667     48.000000
  0.466667  0.266667  0.066667     48.000000
 -0.466667  0.266667  0.066667     48.000000
 -0.400000  0.266667  0.066667     48.000000
 -0.333333  0.266667  0.066667     48.000000
 -0.266667  0.266667  0.066667     48.000000
 -0.200000  0.266667  0.066667     24.000000
  0.400000  0.333333  0.066667     24.000000
  0.466667  0.333333  0.066667     48.000000
 -0.466667  0.333333  0.066667     48.000000
 -0.400000  0.333333  0.066667     48.000000
 -0.333333  0.333333  0.066667     48.000000
 -0.266667  0.333333  0.066667     24.000000
  0.466667  0.400000  0.066667     24.000000
 -0.466667  0.400000  0.066667     48.000000
 -0.400000  0.400000  0.066667     48.000000
 -0.333333  0.400000  0.066667     24.000000
 -0.466667  0.466667  0.066667     24.000000
 -0.400000  0.466667  0.066667     24.000000
  0.400000  0.266667  0.133333     24.000000
  0.466667  0.266667  0.133333     48.000000
 -0.466667  0.266667  0.133333     48.000000
 -0.400000  0.266667  0.133333     48.000000
  0.466667  0.333333  0.133333     24.000000
 -0.466667  0.333333  0.133333     48.000000
 -0.400000  0.333333  0.133333     48.000000
 -0.333333  0.333333  0.133333     48.000000
 -0.266667  0.333333  0.133333     48.000000
 -0.200000  0.333333  0.133333     24.000000
 -0.466667  0.400000  0.133333     24.000000
 -0.400000  0.400000  0.133333     48.000000
 -0.333333  0.400000  0.133333     48.000000
 -0.266667  0.400000  0.133333     24.000000
 -0.400000  0.466667  0.133333     24.000000
 -0.333333  0.466667  0.133333     24.000000
 -0.400000  0.400000  0.200000     24.000000
 -0.333333  0.400000  0.200000     48.000000
 -0.333333  0.466667  0.200000     24.000000
 -0.266667  0.466667  0.200000     24.000000
 
 Following cartesian coordinates:
            Coordinates               Weight
  0.000000  0.000000  0.000000      1.000000
 -0.016469  0.016469  0.016469      8.000000
 -0.032938  0.032938  0.032938      8.000000
 -0.049407  0.049407  0.049407      8.000000
 -0.065876  0.065876  0.065876      8.000000
 -0.082345  0.082345  0.082345      8.000000
 -0.098814  0.098814  0.098814      8.000000
 -0.115283  0.115283  0.115283      8.000000
  0.000000  0.000000  0.032938      6.000000
 -0.016469  0.016469  0.049407     24.000000
 -0.032938  0.032938  0.065876     24.000000
 -0.049407  0.049407  0.082345     24.000000
 -0.065876  0.065876  0.098814     24.000000
 -0.082345  0.082345  0.115283     24.000000
 -0.098814  0.098814  0.131752     24.000000
  0.131752 -0.131752 -0.098814     24.000000
  0.115283 -0.115283 -0.082345     24.000000
  0.098814 -0.098814 -0.065876     24.000000
  0.082345 -0.082345 -0.049407     24.000000
  0.065876 -0.065876 -0.032938     24.000000
  0.049407 -0.049407 -0.016469     24.000000
  0.032938 -0.032938  0.000000     12.000000
  0.000000  0.000000  0.065876      6.000000
 -0.016469  0.016469  0.082345     24.000000
 -0.032938  0.032938  0.098814     24.000000
 -0.049407  0.049407  0.115283     24.000000
 -0.065876  0.065876  0.131752     24.000000
 -0.082345  0.082345  0.148221     24.000000
  0.148221 -0.148221 -0.082345     24.000000
  0.131752 -0.131752 -0.065876     24.000000
  0.115283 -0.115283 -0.049407     24.000000
  0.098814 -0.098814 -0.032938     24.000000
  0.082345 -0.082345 -0.016469     24.000000
  0.065876 -0.065876  0.000000     12.000000
  0.000000  0.000000  0.098814      6.000000
 -0.016469  0.016469  0.115283     24.000000
 -0.032938  0.032938  0.131752     24.000000
 -0.049407  0.049407  0.148221     24.000000
 -0.065876  0.065876  0.164690     24.000000
  0.164690 -0.164690 -0.065876     24.000000
  0.148221 -0.148221 -0.049407     24.000000
  0.131752 -0.131752 -0.032938     24.000000
  0.115283 -0.115283 -0.016469     24.000000
  0.098814 -0.098814  0.000000     12.000000
  0.000000  0.000000  0.131752      6.000000
 -0.016469  0.016469  0.148221     24.000000
 -0.032938  0.032938  0.164690     24.000000
 -0.049407  0.049407  0.181159     24.000000
  0.181159 -0.181159 -0.049407     24.000000
  0.164690 -0.164690 -0.032938     24.000000
  0.148221 -0.148221 -0.016469     24.000000
  0.131752 -0.131752  0.000000     12.000000
  0.000000  0.000000  0.164690      6.000000
 -0.016469  0.016469  0.181159     24.000000
 -0.032938  0.032938  0.197628     24.000000
  0.197628 -0.197628 -0.032938     24.000000
  0.181159 -0.181159 -0.016469     24.000000
  0.164690 -0.164690  0.000000     12.000000
  0.000000  0.000000  0.197628      6.000000
 -0.016469  0.016469  0.214097     24.000000
  0.214097 -0.214097 -0.016469     24.000000
  0.197628 -0.197628  0.000000     12.000000
  0.000000  0.000000  0.230567      6.000000
  0.230567 -0.230567  0.000000     12.000000
  0.000000  0.032938  0.065876     24.000000
 -0.016469  0.049407  0.082345     48.000000
 -0.032938  0.065876  0.098814     48.000000
 -0.049407  0.082345  0.115283     48.000000
 -0.065876  0.098814  0.131752     48.000000
  0.164690 -0.131752 -0.098814     48.000000
  0.000000  0.032938  0.098814     24.000000
 -0.016469  0.049407  0.115283     48.000000
 -0.032938  0.065876  0.131752     48.000000
 -0.049407  0.082345  0.148221     48.000000
  0.181159 -0.148221 -0.082345     48.000000
  0.164690 -0.131752 -0.065876     48.000000
  0.148221 -0.115283 -0.049407     48.000000
  0.131752 -0.098814 -0.032938     48.000000
  0.115283 -0.082345 -0.016469     48.000000
  0.098814 -0.065876  0.000000     24.000000
  0.000000  0.032938  0.131752     24.000000
 -0.016469  0.049407  0.148221     48.000000
 -0.032938  0.065876  0.164690     48.000000
  0.197628 -0.164690 -0.065876     48.000000
  0.181159 -0.148221 -0.049407     48.000000
  0.164690 -0.131752 -0.032938     48.000000
  0.148221 -0.115283 -0.016469     48.000000
  0.131752 -0.098814 -0.000000     24.000000
  0.000000  0.032938  0.164690     24.000000
 -0.016469  0.049407  0.181159     48.000000
  0.214097 -0.181159 -0.049407     48.000000
  0.197628 -0.164690 -0.032938     48.000000
  0.181159 -0.148221 -0.016469     48.000000
  0.164690 -0.131752  0.000000     24.000000
  0.000000  0.032938  0.197628     24.000000
  0.230567 -0.197628 -0.032938     48.000000
  0.214097 -0.181159 -0.016469     48.000000
  0.197628 -0.164690 -0.000000     24.000000
  0.247036 -0.214097 -0.016469     24.000000
  0.230567 -0.197628  0.000000     24.000000
  0.000000  0.065876  0.131752     24.000000
 -0.016469  0.082345  0.148221     48.000000
  0.214097 -0.148221 -0.082345     48.000000
  0.197628 -0.131752 -0.065876     48.000000
  0.000000  0.065876  0.164690     24.000000
  0.230567 -0.164690 -0.065876     48.000000
  0.214097 -0.148221 -0.049407     48.000000
  0.197628 -0.131752 -0.032938     48.000000
  0.181159 -0.115283 -0.016469     48.000000
  0.164690 -0.098814  0.000000     24.000000
  0.247036 -0.181159 -0.049407     24.000000
  0.230567 -0.164690 -0.032938     48.000000
  0.214097 -0.148221 -0.016469     48.000000
  0.197628 -0.131752  0.000000     24.000000
  0.247036 -0.181159 -0.016469     24.000000
  0.230567 -0.164690  0.000000     24.000000
  0.247036 -0.148221 -0.049407     24.000000
  0.230567 -0.131752 -0.032938     48.000000
  0.247036 -0.148221 -0.016469     24.000000
  0.230567 -0.131752  0.000000     24.000000
 


--------------------------------------------------------------------------------------------------------




 Dimension of arrays:
   k-points           NKPTS =    120   k-points in BZ     NKDIM =    120   number of bands    NBANDS=     48
   number of dos      NEDOS =    301   number of ions     NIONS =      1
   non local maximal  LDIM  =      4   non local SUM 2l+1 LMDIM =      8
   total plane-waves  NPLWV =  13824
   max r-space proj   IRMAX =      1   max aug-charges    IRDMAX=  32640
   dimension x,y,z NGX =    24 NGY =   24 NGZ =   24
   dimension x,y,z NGXF=    48 NGYF=   48 NGZF=   48
   support grid    NGXF=    48 NGYF=   48 NGZF=   48
   ions per type =               1
   NGX,Y,Z   is equivalent  to a cutoff of  13.94, 13.94, 13.94 a.u.
   NGXF,Y,Z  is equivalent  to a cutoff of  27.88, 27.88, 27.88 a.u.

 SYSTEM =  unknown system                          
 POSCAR =  # Generated by Masgent for k-point conve

 Startparameter for this run:
   NWRITE =      2    write-flag & timer
   PREC   = accura    normal or accurate (medium, high low for compatibility)
   ISTART =      0    job   : 0-new  1-cont  2-samecut
   ICHARG =      2    charge: 1-file 2-atom 10-const
   ISPIN  =      2    spin polarized calculation?
   LNONCOLLINEAR =      F non collinear calculations
   LSORBIT =      F    spin-orbit coupling
   INIWAV =      1    electr: 0-lowe 1-rand  2-diag
   LASPH  =      T    aspherical Exc in radial PAW
 Electronic Relaxation 1
   ENCUT  =  520.0 eV  38.22 Ry    6.18 a.u.   5.32  5.32  5.32*2*pi/ulx,y,z
   ENINI  =  520.0     initial cutoff
   ENAUG  =  291.1 eV  augmentation charge cutoff
   NELM   =    100;   NELMIN=  2; NELMDL= -5     # of ELM steps 
   EDIFF  = 0.5E-04   stopping-criterion for ELM
   LREAL  =      F    real-space projection
   NLSPLINE    = F    spline interpolate recip. space projectors
   LCOMPAT=      F    compatible to vasp.4.4
   GGA_COMPAT  = T    GGA compatible to vasp.4.4-vasp.4.6
   LMAXPAW     = -100 max onsite density
   LMAXMIX     =    2 max onsite mixed and CHGCAR
   VOSKOWN=      0    Vosko Wilk Nusair interpolation
   ROPT   =    0.00000
 Ionic relaxation
   EDIFFG = 0.5E-03   stopping-criterion for IOM
   NSW    =      0    number of steps for IOM
   NBLOCK =      1;   KBLOCK =      1    inner block; outer block 
   IBRION =     -1    ionic relax: 0-MD 1-quasi-New 2-CG
   NFREE  =      0    steps in history (QN), initial steepest desc. (CG)
   ISIF   =      2    stress and relaxation
   IWAVPR =     10    prediction:  0-non 1-charg 2-wave 3-comb
   ISYM   =      2    0-nonsym 1-usesym 2-fastsym
   LCORR  =      T    Harris-Foulkes like correction to forces

   POTIM  = 0.5000    time-step for ionic-motion
   TEIN   =    0.0    initial temperature
   TEBEG  =    0.0;   TEEND  =   0.0 temperature during run
   SMASS  =  -3.00    Nose mass-parameter (am)
   estimated Nose-frequenzy (Omega)   =  0.10E-29 period in steps = 0.13E+47 mass=  -0.187E-27a.u.
   SCALEE = 1.0000    scale energy and forces
   NPACO  =    256;   APACO  = 16.0  distance and # of slots for P.C.
   PSTRESS=    0.0 pullay stress

  Mass of Ions in am
   POMASS =  26.98
  Ionic Valenz
   ZVAL   =   3.00
  Atomic Wigner-Seitz radii
   RWIGS  =  -1.00
  virtual crystal weights 
   VCA    =   1.00
   NELECT =       3.0000    total number of electrons
   NUPDOWN=      -1.0000    fix difference up-down

 DOS related values:
   EMIN   =  10.00;   EMAX   =-10.00  energy-range for DOS
   EFERMI =   0.00
   ISMEAR =    -5;   SIGMA  =   0.05  broadening in eV -4-tet -1-fermi 0-gaus

 Electronic relaxation 2 (details)
   IALGO  =     68    algorithm
   LDIAG  =      T    sub-space diagonalisation (order eigenvalues)
   LSUBROT=      F    optimize rotation matrix (better conditioning)
   TURBO    =      0    0=normal 1=particle mesh
   IRESTART =      0    0=no restart 2=restart with 2 vectors
   NREBOOT  =      0    no. of reboots
   NMIN     =      0    reboot dimension
   EREF     =   0.00    reference energy to select bands
   IMIX   =      4    mixing-type and parameters
     AMIX     =   0.40;   BMIX     =  1.00
     AMIX_MAG =   1.60;   BMIX_MAG =  1.00
     AMIN     =   0.10
     WC   =   100.;   INIMIX=   1;  MIXPRE=   1;  MAXMIX= -45

 Intra band minimization:
   WEIMIN = 0.0000     energy-eigenvalue tresh-hold
   EBREAK =  0.26E-06  absolut break condition
   DEPER  =   0.30     relativ break condition  

   TIME   =   0.40     timestep for ELM

  volume/ion in A,a.u.               =      16.58       111.91
  Fermi-wavevector in a.u.,A,eV,Ry     =   0.925894  1.749687 11.664006  0.857280
  Thomas-Fermi vector in A             =   2.051798

 Write flags
   LWAVE        =      F    write WAVECAR
   LDOWNSAMPLE  =      F    k-point downsampling of WAVECAR
   LCHARG       =      T    write CHGCAR
   LVTOT        =      F    write LOCPOT, total local potential
   LVHAR        =      F    write LOCPOT, Hartree potential only
   LELF         =      F    write electronic localiz. function (ELF)
   LORBIT       =     11    0 simple, 1 ext, 2 COOP (PROOUT), +10 PAW based schemes


 Dipole corrections
   LMONO  =      F    monopole corrections only (constant potential shift)
   LDIPOL =      F    correct potential (dipole corrections)
   IDIPOL =      0    1-x, 2-y, 3-z, 4-all directions 
   EPSILON=  1.0000000 bulk dielectric constant

 Exchange correlation treatment:
   GGA     =    --    GGA type
   LEXCH   =     8    internal setting for exchange type
   VOSKOWN=      0    Vosko Wilk Nusair interpolation
   LHFCALC =     F    Hartree Fock is set to
   LHFONE  =     F    Hartree Fock one center treatment
   AEXX    =    0.0000 exact exchange contribution

 Linear response parameters
   LEPSILON=     F    determine dielectric tensor
   LRPA    =     F    only Hartree local field effects (RPA)
   LNABLA  =     F    use nabla operator in PAW spheres
   LVEL    =     F    velocity operator in full k-point grid
   LINTERFAST=   F  fast interpolation
   KINTER  =     0    interpolate to denser k-point grid
   CSHIFT  =0.1000    complex shift for real part using Kramers Kronig
   OMEGAMAX=  -1.0    maximum frequency
   DEG_THRESHOLD= 0.2000000E-02 threshold for treating states as degnerate
   RTIME   =   -0.100 relaxation time in fs
  (WPLASMAI=    0.000 imaginary part of plasma frequency in eV, 0.658/RTIME)
   DFIELD  = 0.0000000 0.0000000 0.0000000 field for delta impulse in time

 Orbital magnetization related:
   ORBITALMAG=     F  switch on orbital magnetization
   LCHIMAG   =     F  perturbation theory with respect to B field
   DQ        =  0.001000  dq finite difference perturbation B field
   LLRAUG    =     F  two centre corrections for induced B field



--------------------------------------------------------------------------------------------------------


 Static calculation
 charge density and potential will be updated during run
 spin polarized calculation
 RMM-DIIS sequential band-by-band and
  variant of blocked Davidson during initial phase
 perform sub-space diagonalisation
    before iterative eigenvector-optimisation
 modified Broyden-mixing scheme, WC =      100.0
 initial mixing is a Kerker type mixing with AMIX =  0.4000 and BMIX =      1.0000
 Hartree-type preconditioning will be used
 using additional bands           46
 reciprocal scheme for non local part
 use partial core corrections
 calculate Harris-corrections to forces   (improved forces if not selfconsistent)
 use gradient corrections 
 use of overlap-Matrix (Vanderbilt PP)
 Fermi weights with tetrahedron method with Bloechl corrections


--------------------------------------------------------------------------------------------------------


  energy-cutoff  :      520.00
  volume of cell :       16.58
      direct lattice vectors                 reciprocal lattice vectors
     0.000000000  2.024000000  2.024000000    -0.247035573  0.247035573  0.247035573
     2.024000000  0.000000000  2.024000000     0.247035573 -0.247035573  0.247035573
     2.024000000  2.024000000  0.000000000     0.247035573  0.247035573 -0.247035573

  length of vectors
     2.862368250  2.862368250  2.862368250     0.427878164  0.427878164  0.427878164



 k-points in units of 2pi/SCALE and weight: # Generated by Masgent for k-point conve
   0.00000000  0.00000000  0.00000000       0.000
  -0.01646904  0.01646904  0.01646904       0.002
  -0.03293808  0.03293808  0.03293808       0.002
  -0.04940711  0.04940711  0.04940711       0.002
  -0.06587615  0.06587615  0.06587615       0.002
  -0.08234519  0.08234519  0.08234519       0.002
  -0.09881423  0.09881423  0.09881423       0.002
  -0.11528327  0.11528327  0.11528327       0.002
   0.00000000  0.00000000  0.03293808       0.002
  -0.01646904  0.01646904  0.04940711       0.007
  -0.03293808  0.03293808  0.06587615       0.007
  -0.04940711  0.04940711  0.08234519       0.007
  -0.06587615  0.06587615  0.09881423       0.007
  -0.08234519  0.08234519  0.11528327       0.007
  -0.09881423  0.09881423  0.13175231       0.007
   0.13175231 -0.13175231 -0.09881423       0.007
   0.11528327 -0.11528327 -0.08234519       0.007
   0.09881423 -0.09881423 -0.06587615       0.007
   0.08234519 -0.08234519 -0.04940711       0.007
   0.06587615 -0.06587615 -0.03293808       0.007
   0.04940711 -0.04940711 -0.01646904       0.007
   0.03293808 -0.03293808  0.00000000       0.004
   0.00000000  0.00000000  0.06587615       0.002
  -0.01646904  0.01646904  0.08234519       0.007
  -0.03293808  0.03293808  0.09881423       0.007
  -0.04940711  0.04940711  0.11528327       0.007
  -0.06587615  0.06587615  0.13175231       0.007
  -0.08234519  0.08234519  0.14822134       0.007
   0.14822134 -0.14822134 -0.08234519       0.007
   0.13175231 -0.13175231 -0.06587615       0.007
   0.11528327 -0.11528327 -0.04940711       0.007
   0.09881423 -0.09881423 -0.03293808       0.007
   0.08234519 -0.08234519 -0.01646904       0.007
   0.06587615 -0.06587615  0.00000000       0.004
   0.00000000  0.00000000  0.09881423       0.002
  -0.01646904  0.01646904  0.11528327       0.007
  -0.03293808  0.03293808  0.13175231       0.007
  -0.04940711  0.04940711  0.14822134       0.007
  -0.06587615  0.06587615  0.16469038       0.007
   0.16469038 -0.16469038 -0.06587615       0.007
   0.14822134 -0.14822134 -0.04940711       0.007
   0.13175231 -0.13175231 -0.03293808       0.007
   0.11528327 -0.11528327 -0.01646904       0.007
   0.09881423 -0.09881423  0.00000000       0.004
   0.00000000  0.00000000  0.13175231       0.002
  -0.01646904  0.01646904  0.14822134       0.007
  -0.03293808  0.03293808  0.16469038       0.007
  -0.04940711  0.04940711  0.18115942       0.007
   0.18115942 -0.18115942 -0.04940711       0.007
   0.16469038 -0.16469038 -0.03293808       0.007
   0.14822134 -0.14822134 -0.01646904       0.007
   0.13175231 -0.13175231  0.00000000       0.004
   0.00000000  0.00000000  0.16469038       0.002
  -0.01646904  0.01646904  0.18115942       0.007
  -0.03293808  0.03293808  0.19762846       0.007
   0.19762846 -0.19762846 -0.03293808       0.007
   0.18115942 -0.18115942 -0.01646904       0.007
   0.16469038 -0.16469038  0.00000000       0.004
   0.00000000  0.00000000  0.19762846       0.002
  -0.01646904  0.01646904  0.21409750       0.007
   0.21409750 -0.21409750 -0.01646904       0.007
   0.19762846 -0.19762846  0.00000000       0.004
   0.00000000  0.00000000  0.23056653       0.002
   0.23056653 -0.23056653  0.00000000       0.004
   0.00000000  0.03293808  0.06587615       0.007
  -0.01646904  0.04940711  0.08234519       0.014
  -0.03293808  0.06587615  0.09881423       0.014
  -0.04940711  0.08234519  0.11528327       0.014
  -0.06587615  0.09881423  0.13175231       0.014
   0.16469038 -0.13175231 -0.09881423       0.014
   0.00000000  0.03293808  0.09881423       0.007
  -0.01646904  0.04940711  0.11528327       0.014
  -0.03293808  0.06587615  0.13175231       0.014
  -0.04940711  0.08234519  0.14822134       0.014
   0.18115942 -0.14822134 -0.08234519       0.014
   0.16469038 -0.13175231 -0.06587615       0.014
   0.14822134 -0.11528327 -0.04940711       0.014
   0.13175231 -0.09881423 -0.03293808       0.014
   0.11528327 -0.08234519 -0.01646904       0.014
   0.09881423 -0.06587615  0.00000000       0.007
   0.00000000  0.03293808  0.13175231       0.007
  -0.01646904  0.04940711  0.14822134       0.014
  -0.03293808  0.06587615  0.16469038       0.014
   0.19762846 -0.16469038 -0.06587615       0.014
   0.18115942 -0.14822134 -0.04940711       0.014
   0.16469038 -0.13175231 -0.03293808       0.014
   0.14822134 -0.11528327 -0.01646904       0.014
   0.13175231 -0.09881423 -0.00000000       0.007
   0.00000000  0.03293808  0.16469038       0.007
  -0.01646904  0.04940711  0.18115942       0.014
   0.21409750 -0.18115942 -0.04940711       0.014
   0.19762846 -0.16469038 -0.03293808       0.014
   0.18115942 -0.14822134 -0.01646904       0.014
   0.16469038 -0.13175231  0.00000000       0.007
   0.00000000  0.03293808  0.19762846       0.007
   0.23056653 -0.19762846 -0.03293808       0.014
   0.21409750 -0.18115942 -0.01646904       0.014
   0.19762846 -0.16469038 -0.00000000       0.007
   0.24703557 -0.21409750 -0.01646904       0.007
   0.23056653 -0.19762846  0.00000000       0.007
   0.00000000  0.06587615  0.13175231       0.007
  -0.01646904  0.08234519  0.14822134       0.014
   0.21409750 -0.14822134 -0.08234519       0.014
   0.19762846 -0.13175231 -0.06587615       0.014
   0.00000000  0.06587615  0.16469038       0.007
   0.23056653 -0.16469038 -0.06587615       0.014
   0.21409750 -0.14822134 -0.04940711       0.014
   0.19762846 -0.13175231 -0.03293808       0.014
   0.18115942 -0.11528327 -0.01646904       0.014
   0.16469038 -0.09881423  0.00000000       0.007
   0.24703557 -0.18115942 -0.04940711       0.007
   0.23056653 -0.16469038 -0.03293808       0.014
   0.21409750 -0.14822134 -0.01646904       0.014
   0.19762846 -0.13175231  0.00000000       0.007
   0.24703557 -0.18115942 -0.01646904       0.007
   0.23056653 -0.16469038  0.00000000       0.007
   0.24703557 -0.14822134 -0.04940711       0.007
   0.23056653 -0.13175231 -0.03293808       0.014
   0.24703557 -0.14822134 -0.01646904       0.007
   0.23056653 -0.13175231  0.00000000       0.007

 k-points in reciprocal lattice and weights: # Generated by Masgent for k-point conve
   0.00000000  0.00000000  0.00000000       0.000
   0.06666667  0.00000000  0.00000000       0.002
   0.13333333  0.00000000  0.00000000       0.002
   0.20000000  0.00000000  0.00000000       0.002
   0.26666667  0.00000000  0.00000000       0.002
   0.33333333  0.00000000  0.00000000       0.002
   0.40000000  0.00000000  0.00000000       0.002
   0.46666667  0.00000000  0.00000000       0.002
   0.06666667  0.06666667  0.00000000       0.002
   0.13333333  0.06666667  0.00000000       0.007
   0.20000000  0.06666667  0.00000000       0.007
   0.26666667  0.06666667  0.00000000       0.007
   0.33333333  0.06666667  0.00000000       0.007
   0.40000000  0.06666667  0.00000000       0.007
   0.46666667  0.06666667  0.00000000       0.007
  -0.46666667  0.06666667  0.00000000       0.007
  -0.40000000  0.06666667  0.00000000       0.007
  -0.33333333  0.06666667  0.00000000       0.007
  -0.26666667  0.06666667  0.00000000       0.007
  -0.20000000  0.06666667  0.00000000       0.007
  -0.13333333  0.06666667  0.00000000       0.007
  -0.06666667  0.06666667  0.00000000       0.004
   0.13333333  0.13333333  0.00000000       0.002
   0.20000000  0.13333333  0.00000000       0.007
   0.26666667  0.13333333  0.00000000       0.007
   0.33333333  0.13333333  0.00000000       0.007
   0.40000000  0.13333333  0.00000000       0.007
   0.46666667  0.13333333  0.00000000       0.007
  -0.46666667  0.13333333  0.00000000       0.007
  -0.40000000  0.13333333  0.00000000       0.007
  -0.33333333  0.13333333  0.00000000       0.007
  -0.26666667  0.13333333  0.00000000       0.007
  -0.20000000  0.13333333  0.00000000       0.007
  -0.13333333  0.13333333  0.00000000       0.004
   0.20000000  0.20000000  0.00000000       0.002
   0.26666667  0.20000000  0.00000000       0.007
   0.33333333  0.20000000  0.00000000       0.007
   0.40000000  0.20000000  0.00000000       0.007
   0.46666667  0.20000000  0.00000000       0.007
  -0.46666667  0.20000000  0.00000000       0.007
  -0.40000000  0.20000000  0.00000000       0.007
  -0.33333333  0.20000000  0.00000000       0.007
  -0.26666667  0.20000000  0.00000000       0.007
  -0.20000000  0.20000000  0.00000000       0.004
   0.26666667  0.26666667  0.00000000       0.002
   0.33333333  0.26666667  0.00000000       0.007
   0.40000000  0.26666667  0.00000000       0.007
   0.46666667  0.26666667  0.00000000       0.007
  -0.46666667  0.26666667  0.00000000       0.007
  -0.40000000  0.26666667  0.00000000       0.007
  -0.33333333  0.26666667  0.00000000       0.007
  -0.26666667  0.26666667  0.00000000       0.004
   0.33333333  0.33333333  0.00000000       0.002
   0.40000000  0.33333333  0.00000000       0.007
   0.46666667  0.33333333  0.00000000       0.007
  -0.46666667  0.33333333  0.00000000       0.007
  -0.40000000  0.33333333  0.00000000       0.007
  -0.33333333  0.33333333  0.00000000       0.004
   0.40000000  0.40000000  0.00000000       0.002
   0.46666667  0.40000000  0.00000000       0.007
  -0.46666667  0.40000000  0.00000000       0.007
  -0.40000000  0.40000000  0.00000000       0.004
   0.46666667  0.46666667  0.00000000       0.002
  -0.46666667  0.46666667  0.00000000       0.004
   0.20000000  0.13333333  0.06666667       0.007
   0.26666667  0.13333333  0.06666667       0.014
   0.33333333  0.13333333  0.06666667       0.014
   0.40000000  0.13333333  0.06666667       0.014
   0.46666667  0.13333333  0.06666667       0.014
  -0.46666667  0.13333333  0.06666667       0.014
   0.26666667  0.20000000  0.06666667       0.007
   0.33333333  0.20000000  0.06666667       0.014
   0.40000000  0.20000000  0.06666667       0.014
   0.46666667  0.20000000  0.06666667       0.014
  -0.46666667  0.20000000  0.06666667       0.014
  -0.40000000  0.20000000  0.06666667       0.014
  -0.33333333  0.20000000  0.06666667       0.014
  -0.26666667  0.20000000  0.06666667       0.014
  -0.20000000  0.20000000  0.06666667       0.014
  -0.13333333  0.20000000  0.06666667       0.007
   0.33333333  0.26666667  0.06666667       0.007
   0.40000000  0.26666667  0.06666667       0.014
   0.46666667  0.26666667  0.06666667       0.014
  -0.46666667  0.26666667  0.06666667       0.014
  -0.40000000  0.26666667  0.06666667       0.014
  -0.33333333  0.26666667  0.06666667       0.014
  -0.26666667  0.26666667  0.06666667       0.014
  -0.20000000  0.26666667  0.06666667       0.007
   0.40000000  0.33333333  0.06666667       0.007
   0.46666667  0.33333333  0.06666667       0.014
  -0.46666667  0.33333333  0.06666667       0.014
  -0.40000000  0.33333333  0.06666667       0.014
  -0.33333333  0.33333333  0.06666667       0.014
  -0.26666667  0.33333333  0.06666667       0.007
   0.46666667  0.40000000  0.06666667       0.007
  -0.46666667  0.40000000  0.06666667       0.014
  -0.40000000  0.40000000  0.06666667       0.014
  -0.33333333  0.40000000  0.06666667       0.007
  -0.46666667  0.46666667  0.06666667       0.007
  -0.40000000  0.46666667  0.06666667       0.007
   0.40000000  0.26666667  0.13333333       0.007
   0.46666667  0.26666667  0.13333333       0.014
  -0.46666667  0.26666667  0.13333333       0.014
  -0.40000000  0.26666667  0.13333333       0.014
   0.46666667  0.33333333  0.13333333       0.007
  -0.46666667  0.33333333  0.13333333       0.014
  -0.40000000  0.33333333  0.13333333       0.014
  -0.33333333  0.33333333  0.13333333       0.014
  -0.26666667  0.33333333  0.13333333       0.014
  -0.20000000  0.33333333  0.13333333       0.007
  -0.46666667  0.40000000  0.13333333       0.007
  -0.40000000  0.40000000  0.13333333       0.014
  -0.33333333  0.40000000  0.13333333       0.014
  -0.26666667  0.40000000  0.13333333       0.007
  -0.40000000  0.46666667  0.13333333       0.007
  -0.33333333  0.46666667  0.13333333       0.007
  -0.40000000  0.40000000  0.20000000       0.007
  -0.33333333  0.40000000  0.20000000       0.014
  -0.33333333  0.46666667  0.20000000       0.007
  -0.26666667  0.46666667  0.20000000       0.007

 position of ions in fractional coordinates (direct lattice) 
   0.00000000  0.00000000  0.00000000

 position of ions in cartesian coordinates  (Angst):
   0.00000000  0.00000000  0.00000000



--------------------------------------------------------------------------------------------------------


 k-point   1 :   0.0000 0.0000 0.0000  plane waves:     459
 k-point   2 :   0.0667 0.0000 0.0000  plane waves:     447
 k-point   3 :   0.1333 0.0000 0.0000  plane waves:     450
 k-point   4 :   0.2000 0.0000 0.0000  plane waves:     459
 k-point   5 :   0.2667 0.0000 0.0000  plane waves:     456
 k-point   6 :   0.3333 0.0000 0.0000  plane waves:     450
 k-point   7 :   0.4000 0.0000 0.0000  plane waves:     443
 k-point   8 :   0.4667 0.0000 0.0000  plane waves:     437
 k-point   9 :   0.0667 0.0667 0.0000  plane waves:     443
 k-point  10 :   0.1333 0.0667 0.0000  plane waves:     450
 k-point  11 :   0.2000 0.0667 0.0000  plane waves:     458
 k-point  12 :   0.2667 0.0667 0.0000  plane waves:     449
 k-point  13 :   0.3333 0.0667 0.0000  plane waves:     447
 k-point  14 :   0.4000 0.0667 0.0000  plane waves:     445
 k-point  15 :   0.4667 0.0667 0.0000  plane waves:     449
 k-point  16 :  -0.4667 0.0667 0.0000  plane waves:     449
 k-point  17 :  -0.4000 0.0667 0.0000  plane waves:     447
 k-point  18 :  -0.3333 0.0667 0.0000  plane waves:     441
 k-point  19 :  -0.2667 0.0667 0.0000  plane waves:     449
 k-point  20 :  -0.2000 0.0667 0.0000  plane waves:     452
 k-point  21 :  -0.1333 0.0667 0.0000  plane waves:     457
 k-point  22 :  -0.0667 0.0667 0.0000  plane waves:     449
 k-point  23 :   0.1333 0.1333 0.0000  plane waves:     451
 k-point  24 :   0.2000 0.1333 0.0000  plane waves:     454
 k-point  25 :   0.2667 0.1333 0.0000  plane waves:     447
 k-point  26 :   0.3333 0.1333 0.0000  plane waves:     448
 k-point  27 :   0.4000 0.1333 0.0000  plane waves:     445
 k-point  28 :   0.4667 0.1333 0.0000  plane waves:     443
 k-point  29 :  -0.4667 0.1333 0.0000  plane waves:     447
 k-point  30 :  -0.4000 0.1333 0.0000  plane waves:     445
 k-point  31 :  -0.3333 0.1333 0.0000  plane waves:     442
 k-point  32 :  -0.2667 0.1333 0.0000  plane waves:     451
 k-point  33 :  -0.2000 0.1333 0.0000  plane waves:     449
 k-point  34 :  -0.1333 0.1333 0.0000  plane waves:     451
 k-point  35 :   0.2000 0.2000 0.0000  plane waves:     443
 k-point  36 :   0.2667 0.2000 0.0000  plane waves:     446
 k-point  37 :   0.3333 0.2000 0.0000  plane waves:     447
 k-point  38 :   0.4000 0.2000 0.0000  plane waves:     452
 k-point  39 :   0.4667 0.2000 0.0000  plane waves:     445
 k-point  40 :  -0.4667 0.2000 0.0000  plane waves:     446
 k-point  41 :  -0.4000 0.2000 0.0000  plane waves:     440
 k-point  42 :  -0.3333 0.2000 0.0000  plane waves:     442
 k-point  43 :  -0.2667 0.2000 0.0000  plane waves:     443
 k-point  44 :  -0.2000 0.2000 0.0000  plane waves:     449
 k-point  45 :   0.2667 0.2667 0.0000  plane waves:     456
 k-point  46 :   0.3333 0.2667 0.0000  plane waves:     445
 k-point  47 :   0.4000 0.2667 0.0000  plane waves:     448
 k-point  48 :   0.4667 0.2667 0.0000  plane waves:     449
 k-point  49 :  -0.4667 0.2667 0.0000  plane waves:     449
 k-point  50 :  -0.4000 0.2667 0.0000  plane waves:     452
 k-point  51 :  -0.3333 0.2667 0.0000  plane waves:     443
 k-point  52 :  -0.2667 0.2667 0.0000  plane waves:     437
 k-point  53 :   0.3333 0.3333 0.0000  plane waves:     444
 k-point  54 :   0.4000 0.3333 0.0000  plane waves:     447
 k-point  55 :   0.4667 0.3333 0.0000  plane waves:     449
 k-point  56 :  -0.4667 0.3333 0.0000  plane waves:     444
 k-point  57 :  -0.4000 0.3333 0.0000  plane waves:     447
 k-point  58 :  -0.3333 0.3333 0.0000  plane waves:     443
 k-point  59 :   0.4000 0.4000 0.0000  plane waves:     452
 k-point  60 :   0.4667 0.4000 0.0000  plane waves:     451
 k-point  61 :  -0.4667 0.4000 0.0000  plane waves:     452
 k-point  62 :  -0.4000 0.4000 0.0000  plane waves:     442
 k-point  63 :   0.4667 0.4667 0.0000  plane waves:     452
 k-point  64 :  -0.4667 0.4667 0.0000  plane waves:     448
 k-point  65 :   0.2000 0.1333 0.0667  plane waves:     457
 k-point  66 :   0.2667 0.1333 0.0667  plane waves:     456
 k-point  67 :   0.3333 0.1333 0.0667  plane waves:     450
 k-point  68 :   0.4000 0.1333 0.0667  plane waves:     444
 k-point  69 :   0.4667 0.1333 0.0667  plane waves:     444
 k-point  70 :  -0.4667 0.1333 0.0667  plane waves:     449
 k-point  71 :   0.2667 0.2000 0.0667  plane waves:     455
 k-point  72 :   0.3333 0.2000 0.0667  plane waves:     448
 k-point  73 :   0.4000 0.2000 0.0667  plane waves:     448
 k-point  74 :   0.4667 0.2000 0.0667  plane waves:     444
 k-point  75 :  -0.4667 0.2000 0.0667  plane waves:     443
 k-point  76 :  -0.4000 0.2000 0.0667  plane waves:     443
 k-point  77 :  -0.3333 0.2000 0.0667  plane waves:     447
 k-point  78 :  -0.2667 0.2000 0.0667  plane waves:     443
 k-point  79 :  -0.2000 0.2000 0.0667  plane waves:     446
 k-point  80 :  -0.1333 0.2000 0.0667  plane waves:     451
 k-point  81 :   0.3333 0.2667 0.0667  plane waves:     449
 k-point  82 :   0.4000 0.2667 0.0667  plane waves:     448
 k-point  83 :   0.4667 0.2667 0.0667  plane waves:     444
 k-point  84 :  -0.4667 0.2667 0.0667  plane waves:     447
 k-point  85 :  -0.4000 0.2667 0.0667  plane waves:     446
 k-point  86 :  -0.3333 0.2667 0.0667  plane waves:     444
 k-point  87 :  -0.2667 0.2667 0.0667  plane waves:     440
 k-point  88 :  -0.2000 0.2667 0.0667  plane waves:     444
 k-point  89 :   0.4000 0.3333 0.0667  plane waves:     443
 k-point  90 :   0.4667 0.3333 0.0667  plane waves:     450
 k-point  91 :  -0.4667 0.3333 0.0667  plane waves:     445
 k-point  92 :  -0.4000 0.3333 0.0667  plane waves:     444
 k-point  93 :  -0.3333 0.3333 0.0667  plane waves:     445
 k-point  94 :  -0.2667 0.3333 0.0667  plane waves:     444
 k-point  95 :   0.4667 0.4000 0.0667  plane waves:     450
 k-point  96 :  -0.4667 0.4000 0.0667  plane waves:     450
 k-point  97 :  -0.4000 0.4000 0.0667  plane waves:     442
 k-point  98 :  -0.3333 0.4000 0.0667  plane waves:     447
 k-point  99 :  -0.4667 0.4667 0.0667  plane waves:     454
 k-point 100 :  -0.4000 0.4667 0.0667  plane waves:     449
 k-point 101 :   0.4000 0.2667 0.1333  plane waves:     448
 k-point 102 :   0.4667 0.2667 0.1333  plane waves:     444
 k-point 103 :  -0.4667 0.2667 0.1333  plane waves:     444
 k-point 104 :  -0.4000 0.2667 0.1333  plane waves:     443
 k-point 105 :   0.4667 0.3333 0.1333  plane waves:     449
 k-point 106 :  -0.4667 0.3333 0.1333  plane waves:     443
 k-point 107 :  -0.4000 0.3333 0.1333  plane waves:     448
 k-point 108 :  -0.3333 0.3333 0.1333  plane waves:     444
 k-point 109 :  -0.2667 0.3333 0.1333  plane waves:     438
 k-point 110 :  -0.2000 0.3333 0.1333  plane waves:     442
 k-point 111 :  -0.4667 0.4000 0.1333  plane waves:     444
 k-point 112 :  -0.4000 0.4000 0.1333  plane waves:     444
 k-point 113 :  -0.3333 0.4000 0.1333  plane waves:     445
 k-point 114 :  -0.2667 0.4000 0.1333  plane waves:     443
 k-point 115 :  -0.4000 0.4667 0.1333  plane waves:     448
 k-point 116 :  -0.3333 0.4667 0.1333  plane waves:     447
 k-point 117 :  -0.4000 0.4000 0.2000  plane waves:     446
 k-point 118 :  -0.3333 0.4000 0.2000  plane waves:     447
 k-point 119 :  -0.3333 0.4667 0.2000  plane waves:     447
 k-point 120 :  -0.2667 0.4667 0.2000  plane waves:     449

 maximum and minimum number of plane-waves per node :       459      437

 maximum number of plane-waves:       459
 maximum index in each direction: 
   IXMAX=    5   IYMAX=    5   IZMAX=    5
   IXMIN=   -5   IYMIN=   -5   IZMIN=   -5


 serial   3D FFT for wavefunctions
 parallel 3D FFT for charge:
    minimum data exchange during FFTs selected (reduces bandwidth)


 total amount of memory used by VASP MPI-rank0    37172. kBytes
=======================================================================

   base      :      30000. kBytes
   nonl-proj :       3694. kBytes
   fftplans  :        150. kBytes
   grid      :       1295. kBytes
   one-center:          6. kBytes
   wavefun   :       2027. kBytes

     INWAV:  cpu time    0.0000: real time    0.0001
 Broyden mixing: mesh for mixing (old mesh)
   NGX = 11   NGY = 11   NGZ = 11
  (NGX  = 48   NGY  = 48   NGZ  = 48)
  gives a total of   1331 points

 initial charge density was supplied:
 charge density of overlapping atoms calculated
 number of electron       3.0000000 magnetization       0.6000000
 keeping initial charge density in first step


--------------------------------------------------------------------------------------------------------


 Maximum index for augmentation-charges         1111 (set IRDMAX)


--------------------------------------------------------------------------------------------------------


 First call to EWALD:  gamma=   0.695
 Maximum number of real-space cells 3x 3x 3
 Maximum number of reciprocal cells 3x 3x 3

    FEWALD:  cpu time    0.0006: real time    0.0006


--------------------------------------- Iteration      1(   1)  ---------------------------------------


    POTLOK:  cpu time    0.0144: real time    0.0149
    SETDIJ:  cpu time    0.1522: real time    0.1525
     EDDAV:  cpu time   18.6681: real time   18.6684
 BZINTS: Fermi energy:    8.034701;    3.000000 electrons
         Band energy: 0.107663E+02;  BLOECHL correction:   -0.071034
       DOS:  cpu time    0.1069: real time    0.1071
    --------------------------------------------
      LOOP:  cpu time   18.9416: real time   18.9429

 eigenvalue-minimisations  : 32832
 total energy-change (2. order) :-0.3635795E+01  (-0.8575900E+02)
 number of electron       3.0000000 magnetization       0.6000000
 augmentation part        3.0000000 magnetization       0.6000000

 Free energy of the ion-electron system (eV)
  ---------------------------------------------------
  alpha Z        PSCENC =        -0.20254611
  Ewald energy   TEWEN  =       -73.39295237
  -Hartree energ DENC   =        -0.10329695
  -exchange      EXHF   =         0.00000000
  -V(xc)+E(xc)   XCENC  =       -26.19545267
  PAW double counting   =        66.16230985      -34.20858819
  entropy T*S    EENTRO =         0.00000000
  eigenvalues    EBANDS =        10.76627452
  atomic energy  EATOM  =        53.53845706
  Solvation  Ediel_sol  =         0.00000000
  ---------------------------------------------------
  free energy    TOTEN  =        -3.63579486 eV

  energy without entropy =       -3.63579486  energy(sigma->0) =       -3.63579486


--------------------------------------------------------------------------------------------------------




--------------------------------------- Iteration      1(   2)  ---------------------------------------


     EDDAV:  cpu time   16.5842: real time   16.5844
 BZINTS: Fermi energy:    8.006486;    3.000000 electrons
         Band energy: 0.107189E+02;  BLOECHL correction:   -0.070476
       DOS:  cpu time    0.1074: real time    0.1075
    --------------------------------------------
      LOOP:  cpu time   16.6916: real time   16.6920

 eigenvalue-minimisations  : 30000
 total energy-change (2. order) :-0.4738150E-01  (-0.4727789E-01)
 number of electron       3.0000000 magnetization       0.6000000
 augmentation part        3.0000000 magnetization       0.6000000

 Free energy of the ion-electron system (eV)
  ---------------------------------------------------
  alpha Z        PSCENC =        -0.20254611
  Ewald energy   TEWEN  =       -73.39295237
  -Hartree energ DENC   =        -0.10329695
  -exchange      EXHF   =         0.00000000
  -V(xc)+E(xc)   XCENC  =       -26.19545267
  PAW double counting   =        66.16230985      -34.20858819
  entropy T*S    EENTRO =         0.00000000
  eigenvalues    EBANDS =        10.71889302
  atomic energy  EATOM  =        53.53845706
  Solvation  Ediel_sol  =         0.00000000
  ---------------------------------------------------
  free energy    TOTEN  =        -3.68317637 eV

  energy without entropy =       -3.68317637  energy(sigma->0) =       -3.68317637


--------------------------------------------------------------------------------------------------------




--------------------------------------- Iteration      1(   3)  ---------------------------------------


     EDDAV:  cpu time   24.3739: real time   24.3739
 BZINTS: Fermi energy:    8.006484;    3.000000 electrons
         Band energy: 0.107189E+02;  BLOECHL correction:   -0.070476
       DOS:  cpu time    0.1218: real time    0.1219
    --------------------------------------------
      LOOP:  cpu time   24.4957: real time   24.4959

 eigenvalue-minimisations  : 34032
 total energy-change (2. order) :-0.2018897E-05  (-0.2026331E-05)
 number of electron       3.0000000 magnetization       0.6000000
 augmentation part        3.0000000 magnetization       0.6000000

 Free energy of the ion-electron system (eV)
  ---------------------------------------------------
  alpha Z        PSCENC =        -0.20254611
  Ewald energy   TEWEN  =       -73.39295237
  -Hartree energ DENC   =        -0.10329695
  -exchange      EXHF   =         0.00000000
  -V(xc)+E(xc)   XCENC  =       -26.19545267
  PAW double counting   =        66.16230985      -34.20858819
  entropy T*S    EENTRO =         0.00000000
  eigenvalues    EBANDS =        10.71889100
  atomic energy  EATOM  =        53.53845706
  Solvation  Ediel_sol  =         0.00000000
  ---------------------------------------------------
  free energy    TOTEN  =        -3.68317839 eV

  energy without entropy =       -3.68317839  energy(sigma->0) =       -3.68317839


--------------------------------------------------------------------------------------------------------




--------------------------------------- Iteration      1(   4)  ---------------------------------------


     EDDAV:  cpu time   24.5783: real time   24.5783
 BZINTS: Fermi energy:    8.006484;    3.000000 electrons
         Band energy: 0.107189E+02;  BLOECHL correction:   -0.070476
       DOS:  cpu time    0.1222: real time    0.1224
    --------------------------------------------
      LOOP:  cpu time   24.7005: real time   24.7007

 eigenvalue-minimisations  : 33744
 total energy-change (2. order) : 0.1743672E-10  (-0.9721286E-11)
 number of electron       3.0000000 magnetization       0.6000000
 augmentation part        3.0000000 magnetization       0.6000000

 Free energy of the ion-electron system (eV)
  ---------------------------------------------------
  alpha Z        PSCENC =        -0.20254611
  Ewald energy   TEWEN  =       -73.39295237
  -Hartree energ DENC   =        -0.10329695
  -exchange      EXHF   =         0.00000000
  -V(xc)+E(xc)   XCENC  =       -26.19545267
  PAW double counting   =        66.16230985      -34.20858819
  entropy T*S    EENTRO =         0.00000000
  eigenvalues    EBANDS =        10.71889100
  atomic energy  EATOM  =        53.53845706
  Solvation  Ediel_sol  =         0.00000000
  ---------------------------------------------------
  free energy    TOTEN  =        -3.68317839 eV

  energy without entropy =       -3.68317839  energy(sigma->0) =       -3.68317839


--------------------------------------------------------------------------------------------------------




--------------------------------------- Iteration      1(   5)  ---------------------------------------


     EDDAV:  cpu time   24.2206: real time   24.2207
 BZINTS: Fermi energy:    8.006484;    3.000000 electrons
         Band energy: 0.107189E+02;  BLOECHL correction:   -0.070476
       DOS:  cpu time    0.1215: real time    0.1217
    CHARGE:  cpu time    0.0946: real time    0.0950
    MIXING:  cpu time    0.0008: real time    0.0009
    --------------------------------------------
      LOOP:  cpu time   24.4375: real time   24.4383

 eigenvalue-minimisations  : 32976
 total energy-change (2. order) : 0.1372484E-09  ( 0.3502311E-13)
 number of electron       3.0000000 magnetization      -0.0436135
 augmentation part       -0.0370226 magnetization      -0.1856360

 Broyden mixing:
  rms(total) = 0.17378E+00    rms(broyden)= 0.17378E+00
  rms(prec ) = 0.38085E+00
  weight for this iteration     100.00

 Free energy of the ion-electron system (eV)
  ---------------------------------------------------
  alpha Z        PSCENC =        -0.20254611
  Ewald energy   TEWEN  =       -73.39295237
  -Hartree energ DENC   =        -0.10329695
  -exchange      EXHF   =         0.00000000
  -V(xc)+E(xc)   XCENC  =       -26.19545267
  PAW double counting   =        66.16230985      -34.20858819
  entropy T*S    EENTRO =         0.00000000
  eigenvalues    EBANDS =        10.71889100
  atomic energy  EATOM  =        53.53845706
  Solvation  Ediel_sol  =         0.00000000
  ---------------------------------------------------
  free energy    TOTEN  =        -3.68317838 eV

  energy without entropy =       -3.68317838  energy(sigma->0) =       -3.68317838


--------------------------------------------------------------------------------------------------------




--------------------------------------- Iteration      1(   6)  ---------------------------------------


    POTLOK:  cpu time    0.0073: real time    0.0075
    SETDIJ:  cpu time    0.1683: real time    0.1683
    EDDIAG:  cpu time    0.7970: real time    0.7984
  RMM-DIIS:  cpu time    0.4735: real time    0.4735
    ORTHCH:  cpu time    0.1001: real time    0.1001
 BZINTS: Fermi energy:    8.010752;    3.000000 electrons
         Band energy: 0.106539E+02;  BLOECHL correction:   -0.063948
       DOS:  cpu time    0.1138: real time    0.1139
    CHARGE:  cpu time    0.0904: real time    0.0904
    MIXING:  cpu time    0.0004: real time    0.0004
    --------------------------------------------
      LOOP:  cpu time    1.7508: real time    1.7527

 eigenvalue-minimisations  : 23045
 total energy-change (2. order) :-0.6765706E-01  (-0.2409777E-03)
 number of electron       3.0000000 magnetization       0.0496916
 augmentation part       -0.0372616 magnetization       0.0561934

 Broyden mixing:
  rms(total) = 0.82456E-01    rms(broyden)= 0.82456E-01
  rms(prec ) = 0.23123E+00
  weight for this iteration     100.00

 eigenvalues of (default mixing * dielectric matrix)
  average eigenvalue GAMMA=   0.9099
  0.9099

 Free energy of the ion-electron system (eV)
  ---------------------------------------------------
  alpha Z        PSCENC =        -0.20254611
  Ewald energy   TEWEN  =       -73.39295237
  -Hartree energ DENC   =        -0.08619657
  -exchange      EXHF   =         0.00000000
  -V(xc)+E(xc)   XCENC  =       -26.21310458
  PAW double counting   =        94.45401730      -62.50237851
  entropy T*S    EENTRO =         0.00000000
  eigenvalues    EBANDS =        10.65386833
  atomic energy  EATOM  =        53.53845706
  Solvation  Ediel_sol  =         0.00000000
  ---------------------------------------------------
  free energy    TOTEN  =        -3.75083544 eV

  energy without entropy =       -3.75083544  energy(sigma->0) =       -3.75083544


--------------------------------------------------------------------------------------------------------




--------------------------------------- Iteration      1(   7)  ---------------------------------------


    POTLOK:  cpu time    0.0071: real time    0.0073
    SETDIJ:  cpu time    0.1686: real time    0.1686
    EDDIAG:  cpu time    0.7926: real time    0.7926
  RMM-DIIS:  cpu time    0.5516: real time    0.5516
    ORTHCH:  cpu time    0.1005: real time    0.1005
 BZINTS: Fermi energy:    7.999223;    3.000000 electrons
         Band energy: 0.106237E+02;  BLOECHL correction:   -0.064082
       DOS:  cpu time    0.1107: real time    0.1108
    CHARGE:  cpu time    0.0911: real time    0.0911
    MIXING:  cpu time    0.0003: real time    0.0003
    --------------------------------------------
      LOOP:  cpu time    1.8224: real time    1.8228

 eigenvalue-minimisations  : 24080
 total energy-change (2. order) : 0.8614869E-02  (-0.9319686E-04)
 number of electron       3.0000000 magnetization       0.0097921
 augmentation part       -0.0379693 magnetization       0.0027734

 Broyden mixing:
  rms(total) = 0.66258E-01    rms(broyden)= 0.66258E-01
  rms(prec ) = 0.97115E-01
  weight for this iteration     100.00

 eigenvalues of (default mixing * dielectric matrix)
  average eigenvalue GAMMA=   0.9377
  1.2012  0.6743

 Free energy of the ion-electron system (eV)
  ---------------------------------------------------
  alpha Z        PSCENC =        -0.20254611
  Ewald energy   TEWEN  =       -73.39295237
  -Hartree energ DENC   =        -0.09110178
  -exchange      EXHF   =         0.00000000
  -V(xc)+E(xc)   XCENC  =       -26.16568912
  PAW double counting   =       131.17793958      -99.23007116
  entropy T*S    EENTRO =         0.00000000
  eigenvalues    EBANDS =        10.62374333
  atomic energy  EATOM  =        53.53845706
  Solvation  Ediel_sol  =         0.00000000
  ---------------------------------------------------
  free energy    TOTEN  =        -3.74222057 eV

  energy without entropy =       -3.74222057  energy(sigma->0) =       -3.74222057


--------------------------------------------------------------------------------------------------------




--------------------------------------- Iteration      1(   8)  ---------------------------------------


    POTLOK:  cpu time    0.0073: real time    0.0076
    SETDIJ:  cpu time    0.1690: real time    0.1690
    EDDIAG:  cpu time    0.7905: real time    0.7905
  RMM-DIIS:  cpu time    0.5613: real time    0.5613
    ORTHCH:  cpu time    0.0998: real time    0.0998
 BZINTS: Fermi energy:    7.996029;    3.000000 electrons
         Band energy: 0.106155E+02;  BLOECHL correction:   -0.064129
       DOS:  cpu time    0.1166: real time    0.1168
    CHARGE:  cpu time    0.0906: real time    0.0906
    MIXING:  cpu time    0.0002: real time    0.0002
    --------------------------------------------
      LOOP:  cpu time    1.8354: real time    1.8358

 eigenvalue-minimisations  : 23842
 total energy-change (2. order) : 0.2007129E-03  (-0.1995229E-04)
 number of electron       3.0000000 magnetization      -0.0018409
 augmentation part       -0.0382592 magnetization      -0.0043040

 Broyden mixing:
  rms(total) = 0.20505E-01    rms(broyden)= 0.20505E-01
  rms(prec ) = 0.24711E-01
  weight for this iteration     100.00

 eigenvalues of (default mixing * dielectric matrix)
  average eigenvalue GAMMA=   1.2747
  2.2729  0.9262  0.6251

 Free energy of the ion-electron system (eV)
  ---------------------------------------------------
  alpha Z        PSCENC =        -0.20254611
  Ewald energy   TEWEN  =       -73.39295237
  -Hartree energ DENC   =        -0.10059556
  -exchange      EXHF   =         0.00000000
  -V(xc)+E(xc)   XCENC  =       -26.14582418
  PAW double counting   =       144.97354865     -113.02759997
  entropy T*S    EENTRO =         0.00000000
  eigenvalues    EBANDS =        10.61549263
  atomic energy  EATOM  =        53.53845706
  Solvation  Ediel_sol  =         0.00000000
  ---------------------------------------------------
  free energy    TOTEN  =        -3.74201986 eV

  energy without entropy =       -3.74201986  energy(sigma->0) =       -3.74201986


--------------------------------------------------------------------------------------------------------




--------------------------------------- Iteration      1(   9)  ---------------------------------------


    POTLOK:  cpu time    0.0070: real time    0.0073
    SETDIJ:  cpu time    0.1680: real time    0.1680
    EDDIAG:  cpu time    0.7917: real time    0.7917
  RMM-DIIS:  cpu time    0.6732: real time    0.6732
    ORTHCH:  cpu time    0.1000: real time    0.1000
 BZINTS: Fermi energy:    7.995566;    3.000000 electrons
         Band energy: 0.106145E+02;  BLOECHL correction:   -0.064142
       DOS:  cpu time    0.1229: real time    0.1230
    --------------------------------------------
      LOOP:  cpu time    1.8629: real time    1.8633

 eigenvalue-minimisations  : 24950
 total energy-change (2. order) : 0.1405250E-04  (-0.2714517E-05)
 number of electron       3.0000000 magnetization      -0.0018409
 augmentation part       -0.0382592 magnetization      -0.0043040

 Free energy of the ion-electron system (eV)
  ---------------------------------------------------
  alpha Z        PSCENC =        -0.20254611
  Ewald energy   TEWEN  =       -73.39295237
  -Hartree energ DENC   =        -0.10347263
  -exchange      EXHF   =         0.00000000
  -V(xc)+E(xc)   XCENC  =       -26.14090977
  PAW double counting   =       145.18549395     -113.24052770
  entropy T*S    EENTRO =         0.00000000
  eigenvalues    EBANDS =        10.61445176
  atomic energy  EATOM  =        53.53845706
  Solvation  Ediel_sol  =         0.00000000
  ---------------------------------------------------
  free energy    TOTEN  =        -3.74200581 eV

  energy without entropy =       -3.74200581  energy(sigma->0) =       -3.74200581


--------------------------------------------------------------------------------------------------------




 average (electrostatic) potential at core
  the test charge radii are     1.0406
  (the norm of the test charge is              1.0000)
       1 -72.6927



 E-fermi :   7.9956     XC(G=0): -10.1786     alpha+bet :-14.8020

 Fermi energy:         7.9955664356

 spin component 1

 k-point     1 :       0.0000    0.0000    0.0000
  band No.  band energies     occupation 
      1      -3.1518      1.00000
      2      20.5397      0.00000
      3      20.5397      0.00000
      4      20.5397      0.00000
      5      21.9945      0.00000
      6      21.9945      0.00000
      7      21.9945      0.00000
      8      24.3766      0.00000
      9      27.3144      0.00000
     10      27.3144      0.00000
     11      30.1609      0.00000
     12      32.5108      0.00000
     13      32.5108      0.00000
     14      32.5108      0.00000
     15      41.0617      0.00000
     16      56.0177      0.00000
     17      56.0177      0.00000
     18      56.0177      0.00000
     19      56.0537      0.00000
     20      59.2134      0.00000
     21      59.2134      0.00000
     22      59.2134      0.00000
     23      62.8333      0.00000
     24      62.8333      0.00000
     25      65.0769      0.00000
     26      65.0769      0.00000
     27      65.0769      0.00000
     28      73.1775      0.00000
     29      73.1775      0.00000
     30      73.1775      0.00000
     31      80.8188      0.00000
     32      83.0778      0.00000
     33      83.0778      0.00000
     34      87.2057      0.00000
     35      87.2057      0.00000
     36      87.2057      0.00000
     37      90.0885      0.00000
     38      90.0885      0.00000
     39      90.0885      0.00000
     40      90.8966      0.00000
     41      93.4600      0.00000
     42      93.4600      0.00000
     43      93.4600      0.00000
     44      93.9349      0.00000
     45      93.9349      0.00000
     46      93.9349      0.00000
     47      96.3737      0.00000
     48      96.3737      0.00000

 k-point     2 :       0.0667    0.0000    0.0000
  band No.  band energies     occupation 
      1      -3.0314      1.00000
      2      18.5869      0.00000
      3      20.1209      0.00000
      4      20.1209      0.00000
      5      22.5994      0.00000
      6      22.5994      0.00000
      7      22.6330      0.00000
      8      25.6062      0.00000
      9      26.6436      0.00000
     10      26.6436      0.00000
     11      29.7248      0.00000
     12      33.1209      0.00000
     13      33.4242      0.00000
     14      33.4242      0.00000
     15      41.5444      0.00000
     16      55.5523      0.00000
     17      55.8724      0.00000
     18      55.8724      0.00000
     19      56.2993      0.00000
     20      57.9556      0.00000
     21      57.9556      0.00000
     22      59.2196      0.00000
     23      61.7411      0.00000
     24      61.7411      0.00000
     25      65.1849      0.00000
     26      67.6664      0.00000
     27      67.6664      0.00000
     28      72.1893      0.00000
     29      73.0663      0.00000
     30      73.0663      0.00000
     31      81.9345      0.00000
     32      82.4271      0.00000
     33      82.4271      0.00000
     34      84.8255      0.00000
     35      86.3315      0.00000
     36      86.3315      0.00000
     37      88.8244      0.00000
     38      88.8244      0.00000
     39      90.2057      0.00000
     40      90.2450      0.00000
     41      91.8626      0.00000
     42      91.8626      0.00000
     43      92.4048      0.00000
     44      95.2663      0.00000
     45      95.2663      0.00000
     46      96.1387      0.00000
     47      96.1387      0.00000
     48      96.9701      0.00000

 k-point     3 :       0.1333    0.0000    0.0000
  band No.  band energies     occupation 
      1      -2.6708      1.00000
      2      15.9033      0.00000
      3      19.5172      0.00000
      4      19.5172      0.00000
      5      22.5911      0.00000
      6      23.6678      0.00000
      7      23.6678      0.00000
      8      25.4305      0.00000
      9      25.4305      0.00000
     10      28.1055      0.00000
     11      28.7453      0.00000
     12      34.7334      0.00000
     13      35.4506      0.00000
     14      35.4506      0.00000
     15      42.8435      0.00000
     16      54.0907      0.00000
     17      54.0907      0.00000
     18      54.7114      0.00000
     19      56.4501      0.00000
     20      56.5409      0.00000
     21      56.5409      0.00000
     22      59.1181      0.00000
     23      61.5583      0.00000
     24      61.5583      0.00000
     25      65.5063      0.00000
     26      70.2919      0.00000
     27      70.8509      0.00000
     28      70.8509      0.00000
     29      72.9252      0.00000
     30      72.9252      0.00000
     31      80.4349      0.00000
     32      80.4349      0.00000
     33      80.8976      0.00000
     34      84.5882      0.00000
     35      84.5882      0.00000
     36      85.1608      0.00000
     37      86.8894      0.00000
     38      86.8894      0.00000
     39      86.9899      0.00000
     40      89.7488      0.00000
     41      90.3226      0.00000
     42      90.5597      0.00000
     43      90.5597      0.00000
     44      93.9871      0.00000
     45      96.6115      0.00000
     46      96.6115      0.00000
     47      98.4472      0.00000
     48      98.4472      0.00000

 k-point     4 :       0.2000    0.0000    0.0000
  band No.  band energies     occupation 
      1      -2.0717      1.00000
      2      13.2660      0.00000
      3      19.0501      0.00000
      4      19.0501      0.00000
      5      22.3794      0.00000
      6      23.5411      0.00000
      7      23.5411      0.00000
      8      25.6257      0.00000
      9      25.6257      0.00000
     10      27.5612      0.00000
     11      30.6648      0.00000
     12      37.1669      0.00000
     13      37.9437      0.00000
     14      37.9437      0.00000
     15      44.6863      0.00000
     16      50.7974      0.00000
     17      50.7974      0.00000
     18      53.5191      0.00000
     19      56.3852      0.00000
     20      56.3852      0.00000
     21      56.5917      0.00000
     22      58.7260      0.00000
     23      61.8065      0.00000
     24      61.8065      0.00000
     25      66.0302      0.00000
     26      68.3838      0.00000
     27      70.6583      0.00000
     28      70.6584      0.00000
     29      74.3488      0.00000
     30      74.3488      0.00000
     31      78.1649      0.00000
     32      78.7283      0.00000
     33      78.7283      0.00000
     34      82.1364      0.00000
     35      82.1364      0.00000
     36      84.0477      0.00000
     37      84.1183      0.00000
     38      86.6741      0.00000
     39      86.6741      0.00000
     40      88.1567      0.00000
     41      89.3955      0.00000
     42      89.8724      0.00000
     43      89.8724      0.00000
     44      93.7514      0.00000
     45      97.3349      0.00000
     46      97.3349      0.00000
     47     100.0191      0.00000
     48     100.0191      0.00000

 k-point     5 :       0.2667    0.0000    0.0000
  band No.  band energies     occupation 
      1      -1.2373      1.00000
      2      10.7678      0.00000
      3      18.7673      0.00000
      4      18.7673      0.00000
      5      22.2313      0.00000
      6      22.3629      0.00000
      7      22.3629      0.00000
      8      26.3535      0.00000
      9      27.2015      0.00000
     10      27.2015      0.00000
     11      33.0979      0.00000
     12      40.2180      0.00000
     13      40.6132      0.00000
     14      40.6132      0.00000
     15      46.8312      0.00000
     16      47.6269      0.00000
     17      47.6269      0.00000
     18      52.0464      0.00000
     19      56.3550      0.00000
     20      56.3550      0.00000
     21      56.7616      0.00000
     22      58.0053      0.00000
     23      62.1433      0.00000
     24      62.1433      0.00000
     25      66.5056      0.00000
     26      66.7346      0.00000
     27      68.1187      0.00000
     28      68.1187      0.00000
     29      74.4283      0.00000
     30      74.4283      0.00000
     31      75.9805      0.00000
     32      78.7612      0.00000
     33      79.1487      0.00000
     34      79.1487      0.00000
     35      80.0401      0.00000
     36      80.0401      0.00000
     37      81.4061      0.00000
     38      87.9693      0.00000
     39      87.9693      0.00000
     40      88.7614      0.00000
     41      89.5101      0.00000
     42      89.5100      0.00000
     43      90.9836      0.00000
     44      93.0457      0.00000
     45      97.4724      0.00000
     46      97.4724      0.00000
     47     101.4709      0.00000
     48     102.2507      0.00000

 k-point     6 :       0.3333    0.0000    0.0000
  band No.  band energies     occupation 
      1      -0.1714      1.00000
      2       8.4419      0.21486
      3      18.6807      0.00000
      4      18.6807      0.00000
      5      21.2683      0.00000
      6      21.2683      0.00000
      7      22.2333      0.00000
      8      25.2266      0.00000
      9      29.0266      0.00000
     10      29.0266      0.00000
     11      35.4265      0.00000
     12      42.3830      0.00000
     13      42.3830      0.00000
     14      43.5623      0.00000
     15      45.8094      0.00000
     16      45.8094      0.00000
     17      48.5020      0.00000
     18      51.1132      0.00000
     19      56.3226      0.00000
     20      56.3226      0.00000
     21      56.9600      0.00000
     22      56.9755      0.00000
     23      62.0504      0.00000
     24      62.0504      0.00000
     25      64.5806      0.00000
     26      65.1570      0.00000
     27      65.1570      0.00000
     28      67.5708      0.00000
     29      71.9553      0.00000
     30      73.9804      0.00000
     31      73.9804      0.00000
     32      76.6544      0.00000
     33      77.6891      0.00000
     34      77.6891      0.00000
     35      79.1170      0.00000
     36      80.3081      0.00000
     37      80.3081      0.00000
     38      88.5829      0.00000
     39      89.2337      0.00000
     40      89.2337      0.00000
     41      90.6446      0.00000
     42      90.6446      0.00000
     43      90.9461      0.00000
     44      93.8717      0.00000
     45      98.2835      0.00000
     46      98.2835      0.00000
     47     101.8237      0.00000
     48     103.8620      0.00000

 k-point     7 :       0.4000    0.0000    0.0000
  band No.  band energies     occupation 
      1       1.1207      1.00000
      2       6.3054      1.03345
      3      18.7942      0.00000
      4      18.7942      0.00000
      5      20.3520      0.00000
      6      20.3520      0.00000
      7      22.4248      0.00000
      8      24.2421      0.00000
      9      30.9080      0.00000
     10      30.9080      0.00000
     11      37.5983      0.00000
     12      40.7812      0.00000
     13      40.7812      0.00000
     14      46.3385      0.00000
     15      47.8929      0.00000
     16      47.8929      0.00000
     17      47.9995      0.00000
     18      53.1359      0.00000
     19      55.6098      0.00000
     20      56.1585      0.00000
     21      56.1585      0.00000
     22      57.2113      0.00000
     23      59.8965      0.00000
     24      59.8965      0.00000
     25      62.8610      0.00000
     26      64.1720      0.00000
     27      64.1720      0.00000
     28      67.0069      0.00000
     29      68.4233      0.00000
     30      73.7046      0.00000
     31      73.7046      0.00000
     32      76.2465      0.00000
     33      76.2465      0.00000
     34      76.6404      0.00000
[...]
     15      45.1198      0.00000
     16      47.7596      0.00000
     17      49.0431      0.00000
     18      51.6080      0.00000
     19      51.7913      0.00000
     20      53.2857      0.00000
     21      55.4619      0.00000
     22      55.6773      0.00000
     23      56.0596      0.00000
     24      56.4479      0.00000
     25      59.3082      0.00000
     26      61.6132      0.00000
     27      62.9472      0.00000
     28      66.9066      0.00000
     29      67.4808      0.00000
     30      69.0185      0.00000
     31      72.0150      0.00000
     32      73.3962      0.00000
     33      76.6938      0.00000
     34      78.9848      0.00000
     35      79.5553      0.00000
     36      83.0189      0.00000
     37      85.7552      0.00000
     38      86.0726      0.00000
     39      87.0726      0.00000
     40      89.6996      0.00000
     41      92.1546      0.00000
     42      94.5268      0.00000
     43      96.4028      0.00000
     44      99.6374      0.00000
     45     100.4630      0.00000
     46     101.7893      0.00000
     47     103.5186      0.00000
     48     105.3650      0.00000

 k-point   116 :      -0.3333    0.4667    0.1333
  band No.  band energies     occupation 
      1       5.9918      1.00000
      2       7.3101      1.04124
      3       8.2013      0.00560
      4      10.8923      0.00000
      5      19.4036      0.00000
      6      22.1698      0.00000
      7      27.9717      0.00000
      8      28.9640      0.00000
      9      34.5362      0.00000
     10      38.8764      0.00000
     11      41.8627      0.00000
     12      42.2311      0.00000
     13      42.8338      0.00000
     14      44.0174      0.00000
     15      45.2545      0.00000
     16      46.1797      0.00000
     17      50.0023      0.00000
     18      53.1498      0.00000
     19      53.4785      0.00000
     20      54.7638      0.00000
     21      55.5454      0.00000
     22      55.5829      0.00000
     23      56.2952      0.00000
     24      56.8742      0.00000
     25      59.2475      0.00000
     26      61.9207      0.00000
     27      62.6327      0.00000
     28      63.5695      0.00000
     29      66.3233      0.00000
     30      67.9202      0.00000
     31      70.8912      0.00000
     32      72.7205      0.00000
     33      74.8176      0.00000
     34      79.0846      0.00000
     35      79.3713      0.00000
     36      83.0578      0.00000
     37      86.1406      0.00000
     38      87.2930      0.00000
     39      89.4203      0.00000
     40      90.2912      0.00000
     41      95.0558      0.00000
     42      95.8083      0.00000
     43      96.8138      0.00000
     44     100.0565      0.00000
     45     100.2585      0.00000
     46     103.5013      0.00000
     47     104.1019      0.00000
     48     104.8324      0.00000

 k-point   117 :      -0.4000    0.4000    0.2000
  band No.  band energies     occupation 
      1       3.8819      1.00000
      2       8.3537      0.34453
      3       9.7510      0.00000
      4      10.9898      0.00000
      5      21.6659      0.00000
      6      23.0328      0.00000
      7      24.3072      0.00000
      8      29.9243      0.00000
      9      33.1175      0.00000
     10      36.4844      0.00000
     11      39.1271      0.00000
     12      39.8291      0.00000
     13      43.8063      0.00000
     14      44.7635      0.00000
     15      47.6547      0.00000
     16      49.9138      0.00000
     17      50.6256      0.00000
     18      51.4788      0.00000
     19      53.3520      0.00000
     20      54.4344      0.00000
     21      54.6744      0.00000
     22      55.2830      0.00000
     23      58.0403      0.00000
     24      59.7268      0.00000
     25      60.7799      0.00000
     26      63.2067      0.00000
     27      63.6218      0.00000
     28      64.4599      0.00000
     29      65.7974      0.00000
     30      65.9621      0.00000
     31      68.6775      0.00000
     32      69.5983      0.00000
     33      75.4561      0.00000
     34      79.4108      0.00000
     35      79.4873      0.00000
     36      86.4203      0.00000
     37      86.8303      0.00000
     38      88.0948      0.00000
     39      90.9451      0.00000
     40      92.0558      0.00000
     41      92.4464      0.00000
     42      94.9299      0.00000
     43      94.9600      0.00000
     44      96.6112      0.00000
     45     100.2501      0.00000
     46     100.4001      0.00000
     47     103.6837      0.00000
     48     106.1658      0.00000

 k-point   118 :      -0.3333    0.4000    0.2000
  band No.  band energies     occupation 
      1       5.3351      1.00000
      2       6.9591      1.03848
      3       9.5136      0.00000
      4      10.3086      0.00000
      5      22.4950      0.00000
      6      23.2062      0.00000
      7      25.0657      0.00000
      8      27.7383      0.00000
      9      33.7355      0.00000
     10      37.0493      0.00000
     11      40.2729      0.00000
     12      41.7085      0.00000
     13      42.5755      0.00000
     14      44.7407      0.00000
     15      46.3904      0.00000
     16      48.7319      0.00000
     17      51.3387      0.00000
     18      52.4163      0.00000
     19      54.5760      0.00000
     20      54.8385      0.00000
     21      55.0795      0.00000
     22      56.9138      0.00000
     23      57.4128      0.00000
     24      59.4769      0.00000
     25      59.8701      0.00000
     26      60.9648      0.00000
     27      63.2921      0.00000
     28      64.2129      0.00000
     29      65.0550      0.00000
     30      65.4216      0.00000
     31      66.6352      0.00000
     32      71.4269      0.00000
     33      73.6720      0.00000
     34      77.6437      0.00000
     35      81.4322      0.00000
     36      84.9512      0.00000
     37      87.7203      0.00000
     38      88.4651      0.00000
     39      91.6843      0.00000
     40      92.0510      0.00000
     41      94.2763      0.00000
     42      95.1807      0.00000
     43      96.2403      0.00000
     44      99.0116      0.00000
     45     100.0422      0.00000
     46     101.4155      0.00000
     47     103.2092      0.00000
     48     105.4877      0.00000

 k-point   119 :      -0.3333    0.4667    0.2000
  band No.  band energies     occupation 
      1       5.7516      1.00000
      2       8.0580      0.79192
      3       8.3331      0.00000
      4       9.6868      0.00000
      5      21.3842      0.00000
      6      22.9543      0.00000
      7      25.7650      0.00000
      8      28.1491      0.00000
      9      34.7449      0.00000
     10      39.1767      0.00000
     11      41.7322      0.00000
     12      41.7941      0.00000
     13      43.0051      0.00000
     14      43.0645      0.00000
     15      44.9850      0.00000
     16      46.6557      0.00000
     17      50.9023      0.00000
     18      53.3431      0.00000
     19      53.9908      0.00000
     20      54.7523      0.00000
     21      55.5200      0.00000
     22      55.8484      0.00000
     23      58.1120      0.00000
     24      58.6098      0.00000
     25      60.2303      0.00000
     26      61.5451      0.00000
     27      62.6219      0.00000
     28      63.2345      0.00000
     29      64.9914      0.00000
     30      65.5080      0.00000
     31      67.6953      0.00000
     32      72.4399      0.00000
     33      75.0177      0.00000
     34      79.2004      0.00000
     35      79.3389      0.00000
     36      82.4178      0.00000
     37      88.0102      0.00000
     38      89.0851      0.00000
     39      91.1627      0.00000
     40      92.7526      0.00000
     41      95.3509      0.00000
     42      95.4145      0.00000
     43      96.7017      0.00000
     44      98.6069      0.00000
     45     100.0277      0.00000
     46     100.8507      0.00000
     47     102.2165      0.00000
     48     104.7517      0.00000

 k-point   120 :      -0.2667    0.4667    0.2000
  band No.  band energies     occupation 
      1       6.7839      1.00000
      2       6.8765      1.00750
      3       8.2403      0.00000
      4       9.6423      0.00000
      5      22.4013      0.00000
      6      24.5279      0.00000
      7      24.5808      0.00000
      8      26.6052      0.00000
      9      34.6816      0.00000
     10      39.0206      0.00000
     11      41.9234      0.00000
     12      41.9423      0.00000
     13      42.7121      0.00000
     14      43.8042      0.00000
     15      44.6264      0.00000
     16      46.0967      0.00000
     17      51.9493      0.00000
     18      52.6785      0.00000
     19      54.2796      0.00000
     20      54.9248      0.00000
     21      57.1145      0.00000
     22      57.4424      0.00000
     23      58.3895      0.00000
     24      59.1500      0.00000
     25      59.7770      0.00000
     26      60.1849      0.00000
     27      62.2730      0.00000
     28      62.5917      0.00000
     29      64.5672      0.00000
     30      65.2125      0.00000
     31      65.8913      0.00000
     32      73.0157      0.00000
     33      74.0572      0.00000
     34      78.9602      0.00000
     35      79.3347      0.00000
     36      82.5454      0.00000
     37      88.7676      0.00000
     38      88.9222      0.00000
     39      92.6317      0.00000
     40      93.5160      0.00000
     41      95.9800      0.00000
     42      96.3694      0.00000
     43      97.6288      0.00000
     44      98.7893      0.00000
     45      99.1360      0.00000
     46      99.9029      0.00000
     47     102.4922      0.00000
     48     103.2921      0.00000


--------------------------------------------------------------------------------------------------------


 soft charge-density along one line, spin component           1
         0         1         2         3         4         5         6         7         8         9
 total charge-density along one line

 soft charge-density along one line, spin component           2
         0         1         2         3         4         5         6         7         8         9
 total charge-density along one line

 pseudopotential strength for first ion, spin component:           1
  8.445  14.393   0.000  -0.000   0.000   0.000  -0.000   0.000
 14.393  24.530   0.000  -0.000   0.000   0.000  -0.000   0.000
  0.000   0.000   1.987  -0.000  -0.000   5.729  -0.000  -0.000
 -0.000  -0.000  -0.000   1.987  -0.000  -0.000   5.729  -0.000
  0.000   0.000  -0.000  -0.000   1.987  -0.000  -0.000   5.729
  0.000   0.000   5.729  -0.000  -0.000  16.434  -0.000  -0.000
 -0.000  -0.000  -0.000   5.729  -0.000  -0.000  16.434  -0.000
  0.000   0.000  -0.000  -0.000   5.729  -0.000  -0.000  16.434
 pseudopotential strength for first ion, spin component:           2
  8.445  14.393   0.000  -0.000   0.000   0.000  -0.000   0.000
 14.393  24.531   0.000  -0.000   0.000   0.000  -0.000   0.000
  0.000   0.000   1.987  -0.000  -0.000   5.730  -0.000  -0.000
 -0.000  -0.000  -0.000   1.987  -0.000  -0.000   5.730  -0.000
  0.000   0.000  -0.000  -0.000   1.987  -0.000  -0.000   5.730
  0.000   0.000   5.730  -0.000  -0.000  16.434  -0.000  -0.000
 -0.000  -0.000  -0.000   5.730  -0.000  -0.000  16.434  -0.000
  0.000   0.000  -0.000  -0.000   5.730  -0.000  -0.000  16.434
 total augmentation occupancy for first ion, spin component:           1
  3.355  -0.827   0.000   0.000   0.000   0.000   0.000   0.000
 -0.827   0.269   0.000   0.000   0.000   0.000   0.000   0.000
  0.000   0.000   1.101  -0.000  -0.000  -0.070   0.000   0.000
  0.000   0.000  -0.000   1.101   0.000  -0.000  -0.070   0.000
  0.000   0.000  -0.000   0.000   1.101   0.000   0.000  -0.070
  0.000   0.000  -0.070  -0.000   0.000   0.005   0.000   0.000
  0.000   0.000   0.000  -0.070   0.000   0.000   0.005   0.000
  0.000   0.000   0.000   0.000  -0.070  -0.000  -0.000   0.005
 total augmentation occupancy for first ion, spin component:           2
  0.017  -0.006   0.000   0.000   0.000   0.000   0.000   0.000
 -0.006   0.002   0.000   0.000   0.000   0.000   0.000   0.000
  0.000   0.000   0.002   0.000   0.000  -0.000   0.000   0.000
  0.000   0.000   0.000   0.002   0.000   0.000  -0.000   0.000
  0.000   0.000   0.000   0.000   0.002   0.000   0.000  -0.000
  0.000   0.000  -0.000   0.000   0.000   0.000   0.000   0.000
  0.000   0.000   0.000  -0.000   0.000   0.000   0.000   0.000
  0.000   0.000   0.000   0.000  -0.000   0.000   0.000   0.000


------------------------ aborting loop because EDIFF is reached ----------------------------------------





 total charge

# of ion       s       p       d       tot
------------------------------------------
    1        0.425   0.339   0.000   0.764



 magnetization (x)

# of ion       s       p       d       tot
------------------------------------------
    1       -0.000  -0.000   0.000  -0.000

    CHARGE:  cpu time    0.0906: real time    0.0906
    FORLOC:  cpu time    0.0002: real time    0.0002
    FORNL :  cpu time    0.0133: real time    0.0133
    STRESS:  cpu time    0.1879: real time    0.1879
    FORCOR:  cpu time    0.0057: real time    0.0058
    FORHAR:  cpu time    0.0009: real time    0.0010
    MIXING:  cpu time    0.0002: real time    0.0002
    OFIELD:  cpu time    0.0000: real time    0.0000

  FORCE on cell =-STRESS in cart. coord.  units (eV):
  Direction    XX          YY          ZZ          XY          YZ          ZX
  --------------------------------------------------------------------------------------
  Alpha Z    -0.20255    -0.20255    -0.20255
  Ewald     -24.46432   -24.46432   -24.46432    -0.00000    -0.00000     0.00000
  Hartree     0.03501     0.03501     0.03501     0.00000     0.00000     0.00000
  E(xc)      -8.54832    -8.54832    -8.54832     0.00000     0.00000     0.00000
  Local       0.34599     0.34599     0.34599    -0.00000    -0.00000    -0.00000
  n-local    18.88776    18.52891    18.95085     0.44881    -0.59235     0.52153
  augment    -1.02216    -1.02216    -1.02216     0.00000     0.00000     0.00000
  Kinetic    12.33087    10.94716    21.64217    -9.52654     8.35555    -6.20934
  Fock        0.00000     0.00000     0.00000     0.00000     0.00000     0.00000
  -------------------------------------------------------------------------------------
  Total      -0.09377    -0.09377    -0.09377    -0.00000    -0.00000     0.00000
  in kB      -9.05941    -9.05941    -9.05941    -0.00000    -0.00000     0.00000
  external pressure =       -9.06 kB  Pullay stress =        0.00 kB


 VOLUME and BASIS-vectors are now :
 -----------------------------------------------------------------------------
  energy-cutoff  :      520.00
  volume of cell :       16.58
      direct lattice vectors                 reciprocal lattice vectors
     0.000000000  2.024000000  2.024000000    -0.247035573  0.247035573  0.247035573
     2.024000000  0.000000000  2.024000000     0.247035573 -0.247035573  0.247035573
     2.024000000  2.024000000  0.000000000     0.247035573  0.247035573 -0.247035573

  length of vectors
     2.862368250  2.862368250  2.862368250     0.427878164  0.427878164  0.427878164


 FORCES acting on ions
    electron-ion (+dipol)            ewald-force                    non-local-force                 convergence-correction
 -----------------------------------------------------------------------------------------------
   0.108E-14 0.750E-15 0.241E-14   0.817E-16 0.470E-16 -.229E-15   0.000E+00 0.000E+00 0.000E+00   0.196E-17 0.236E-18 0.588E-17
 -----------------------------------------------------------------------------------------------
   0.108E-14 0.750E-15 0.241E-14   0.817E-16 0.470E-16 -.229E-15   0.000E+00 0.000E+00 0.000E+00   0.196E-17 0.236E-18 0.588E-17


 POSITION                                       TOTAL-FORCE (eV/Angst)
 -----------------------------------------------------------------------------------
      0.00000      0.00000      0.00000        -0.000000      0.000000      0.000000
 -----------------------------------------------------------------------------------
    total drift:                                0.000000      0.000000      0.000000


--------------------------------------------------------------------------------------------------------



  FREE ENERGIE OF THE ION-ELECTRON SYSTEM (eV)
  ---------------------------------------------------
  free  energy   TOTEN  =        -3.74200581 eV

  energy  without entropy=       -3.74200581  energy(sigma->0) =       -3.74200581



--------------------------------------------------------------------------------------------------------


    POTLOK:  cpu time    0.1750: real time    0.1768


--------------------------------------------------------------------------------------------------------


 stress matrix after NEB project (eV)
     -0.09377     -0.00000      0.00000
     -0.00000     -0.09377      0.00000
     -0.00000     -0.00000     -0.09377
  FORCES: max atom, RMS     0.000000    0.000000
  FORCE total and by dimension    0.000000    0.000000
  Stress total and by dimension    0.162410    0.093767
     LOOP+:  cpu time  117.3577: real time  117.3711
 -----------------------------------------------------------------------------
|                                                                             |
|           W    W    AA    RRRRR   N    N  II  N    N   GGGG   !!!           |
|           W    W   A  A   R    R  NN   N  II  NN   N  G    G  !!!           |
|           W    W  A    A  R    R  N N  N  II  N N  N  G       !!!           |
|           W WW W  AAAAAA  RRRRR   N  N N  II  N  N N  G  GGG   !            |
|           WW  WW  A    A  R   R   N   NN  II  N   NN  G    G                |
|           W    W  A    A  R    R  N    N  II  N    N   GGGG   !!!           |
|                                                                             |
|     Tetrahedron method does not include variations of the Fermi             |
|     occupations, so forces and stress will be inaccurate. We suggest        |
|     using a different smearing scheme ISMEAR = 1 or 2 for metals in         |
|     relaxations.                                                            |
|                                                                             |
 -----------------------------------------------------------------------------

    4ORBIT:  cpu time    0.0000: real time    0.0000



 total charge

# of ion       s       p       d       tot
------------------------------------------
    1        0.425   0.339   0.000   0.764



 magnetization (x)

# of ion       s       p       d       tot
------------------------------------------
    1       -0.000  -0.000   0.000  -0.000

 BZINTS: Fermi energy:    7.995566;    3.000000 electrons
         Band energy: 0.106145E+02;  BLOECHL correction:   -0.064142

 total amount of memory used by VASP MPI-rank0    37172. kBytes
=======================================================================

   base      :      30000. kBytes
   nonl-proj :       3694. kBytes
   fftplans  :        150. kBytes
   grid      :       1295. kBytes
   one-center:          6. kBytes
   wavefun   :       2027. kBytes

  
  
 General timing and accounting informations for this job:
 ========================================================
  
                  Total CPU time used (sec):      120.525
                            User time (sec):      118.797
                          System time (sec):        1.728
                         Elapsed time (sec):      120.568
  
                   Maximum memory used (kb):       56168.
                   Average memory used (kb):          N/A
  
                          Minor page faults:        43113
                          Major page faults:          434
                 Voluntary context switches:         2605
