   57   57  200    2
  0.1326576E+02  0.7779113E-09  0.7778912E-09  0.1249563E-08  0.0000000E+00
   1.0000000000000000E-004
  CAR 
 unknown system                          
    502     10    324

  0.1262379E-14  0.1262379E-14  0.1262379E-14  0.5555556E-01
    1      -57.259648    -55.160549   1.000000   1.000000
    2      -57.155466    -55.155671   1.000000   1.000000
    3      -57.145328    -55.141834   1.000000   1.000000
    4      -57.137919    -55.109347   1.000000   1.000000
    5      -57.125263    -55.100426   1.000000   1.000000
    6      -57.104414    -55.095967   1.000000   1.000000
    7      -57.091523    -55.095564   1.000000   1.000000
    8      -57.090234    -55.081018   1.000000   1.000000
    9      -57.089408    -55.072733   1.000000   1.000000
   10      -57.088833    -55.068150   1.000000   1.000000
   11      -57.087954    -55.065068   1.000000   1.000000
   12      -57.085798    -55.044263   1.000000   1.000000
   13      -57.080807    -55.042945   1.000000   1.000000
   14      -57.076261    -55.039158   1.000000   1.000000
   15      -57.066399    -55.034963   1.000000   1.000000
   16      -57.062534    -55.034563   1.000000   1.000000
   17      -57.054607    -55.032244   1.000000   1.000000
   18      -57.053444    -55.025628   1.000000   1.000000
   19      -57.050061    -55.020750   1.000000   1.000000
   20      -57.046682    -55.002561   1.000000   1.000000
   21      -57.042244    -54.992859   1.000000   1.000000
   22      -57.038243    -54.978624   1.000000   1.000000
   23      -57.036073    -54.977819   1.000000   1.000000
   24      -57.032540    -54.973194   1.000000   1.000000
   25      -23.407236    -23.404188   1.000000   1.000000
   26      -23.335005    -23.332347   1.000000   1.000000
   27      -23.290931    -23.288245   1.000000   1.000000
   28      -23.285381    -23.282520   1.000000   1.000000
   29      -23.275746    -23.273042   1.000000   1.000000
   30      -23.271260    -23.268276   1.000000   1.000000
   31      -23.247962    -23.245076   1.000000   1.000000
   32      -23.219443    -23.216695   1.000000   1.000000
   33      -23.201856    -23.199261   1.000000   1.000000
   34      -23.167219    -23.164597   1.000000   1.000000
   35      -23.122749    -23.120413   1.000000   1.000000
   36      -23.092040    -23.089613   1.000000   1.000000
   37      -23.045567    -23.042906   1.000000   1.000000
   38      -23.034297    -23.032536   1.000000   1.000000
   39      -22.953199    -22.950470   1.000000   1.000000
   40      -22.934506    -22.931627   1.000000   1.000000
   41      -11.239718    -11.191797   1.000000   1.000000
   42      -11.139238    -11.095622   1.000000   1.000000
   43      -11.095841    -11.044844   1.000000   1.000000
   44      -11.012139    -10.957866   1.000000   1.000000
   45      -10.981853    -10.927330   1.000000   1.000000
   46      -10.969394    -10.914144   1.000000   1.000000
   47      -10.605673    -10.590475   1.000000   1.000000
   48      -10.466078    -10.452556   1.000000   1.000000
   49      -10.446686    -10.432322   1.000000   1.000000
   50      -10.408015    -10.392251   1.000000   1.000000
   51      -10.396162    -10.366147   1.000000   1.000000
   52      -10.367128    -10.346259   1.000000   1.000000
   53      -10.362537    -10.337456   1.000000   1.000000
   54      -10.320625    -10.295804   1.000000   1.000000
   55      -10.240813    -10.221700   1.000000   1.000000
   56      -10.192053    -10.149930   1.000000   1.000000
   57      -10.054807    -10.005187   1.000000   1.000000
   58      -10.045035     -9.993315   1.000000   1.000000
   59       -9.843510     -9.774878   1.000000   1.000000
   60       -9.835001     -9.767725   1.000000   1.000000
   61       -9.792928     -9.744858   1.000000   1.000000
   62       -9.773799     -9.716116   1.000000   1.000000
   63       -9.732182     -9.670212   1.000000   1.000000
   64       -9.671779     -9.592114   1.000000   1.000000
   65       -9.648483     -9.571020   1.000000   1.000000
   66       -9.639603     -9.552755   1.000000   1.000000
   67       -9.583887     -9.468961   1.000000   1.000000
   68       -9.537802     -9.418955   1.000000   1.000000
   69       -9.512324     -9.388626   1.000000   1.000000
   70       -9.472618     -9.364996   1.000000   1.000000
   71       -9.447783     -9.358727   1.000000   1.000000
   72       -9.443154     -9.346900   1.000000   1.000000
   73       -9.419802     -9.323562   1.000000   1.000000
   74       -7.287813     -7.275768   1.000000   1.000000
   75       -7.262224     -7.251035   1.000000   1.000000
   76       -7.231337     -7.217708   1.000000   1.000000
   77       -7.212702     -7.202411   1.000000   1.000000
   78       -7.149868     -7.141481   1.000000   1.000000
   79       -7.066252     -7.058588   1.000000   1.000000
   80       -7.048694     -7.029398   1.000000   1.000000
   81       -7.021073     -7.014841   1.000000   1.000000
   82       -6.956209     -6.945504   1.000000   1.000000
   83       -6.948347     -6.937958   1.000000   1.000000
   84       -6.900465     -6.891556   1.000000   1.000000
   85       -6.893181     -6.888308   1.000000   1.000000
   86       -6.886640     -6.878680   1.000000   1.000000
   87       -6.882120     -6.876727   1.000000   1.000000
   88       -6.865455     -6.860853   1.000000   1.000000
   89       -6.851849     -6.845764   1.000000   1.000000
   90       -6.822109     -6.816228   1.000000   1.000000
   91       -6.818508     -6.811501   1.000000   1.000000
   92       -6.773751     -6.762952   1.000000   1.000000
   93       -6.719091     -6.711535   1.000000   1.000000
   94       -6.713567     -6.703959   1.000000   1.000000
   95       -6.694440     -6.688791   1.000000   1.000000
   96       -6.680942     -6.674378   1.000000   1.000000
   97       -6.669516     -6.663341   1.000000   1.000000
   98       -6.634063     -6.626926   1.000000   1.000000
   99       -6.626828     -6.616222   1.000000   1.000000
  100       -6.606463     -6.589436   1.000000   1.000000
  101       -6.588112     -6.572960   1.000000   1.000000
  102       -6.575832     -6.554853   1.000000   1.000000
  103       -6.553222     -6.532086   1.000000   1.000000
  104       -6.411259     -6.392671   1.000000   1.000000
  105       -6.395635     -6.382720   1.000000   1.000000
  106       -6.387071     -6.372845   1.000000   1.000000
  107       -6.121133     -6.105311   1.000000   1.000000
  108       -6.096297     -6.078375   1.000000   1.000000
  109       -6.032697     -6.012040   1.000000   1.000000
  110       -6.008863     -5.987414   1.000000   1.000000
  111       -5.925091     -5.902243   1.000000   1.000000
  112       -5.854761     -5.825398   1.000000   1.000000
  113       -5.807758     -5.783761   1.000000   1.000000
  114       -5.787904     -5.757064   1.000000   1.000000
  115       -5.766311     -5.735565   1.000000   1.000000
  116       -5.746555     -5.717074   1.000000   1.000000
  117       -5.637990     -5.600419   1.000000   1.000000
  118       -5.612436     -5.548751   1.000000   1.000000
  119       -5.567575     -5.521726   1.000000   1.000000
  120       -5.255618     -5.225563   1.000000   1.000000
  121       -4.869660     -4.855067   1.000000   1.000000
  122        0.246063      1.191655   1.000000   1.000000
  123        0.275852      1.215172   1.000000   1.000000
  124        0.337017      2.351451   1.000000   1.000000
  125        0.368363      2.377057   1.000000   1.000000
  126        0.369789      2.430724   1.000000   1.000000
  127        0.411619      2.444491   1.000000   1.000000
  128        0.414521      2.454876   1.000000   1.000000
  129        0.448840      2.476672   1.000000   1.000000
  130        1.642238      2.545535   1.000000   1.000000
  131        1.713939      2.570231   1.000000   1.000000
  132        1.721187      2.573892   1.000000   1.000000
  133        1.734961      2.587856   1.000000   1.000000
  134        1.770294      2.779099   1.000000   1.000000
  135        1.786866      2.812958   1.000000   1.000000
  136        1.801955      2.860266   1.000000   1.000000
  137        1.817924      2.889900   1.000000   1.000000
  138        1.998008      3.024703   1.000000   1.000000
  139        2.016087      3.067475   1.000000   1.000000
  140        2.026566      3.092417   1.000000   1.000000
  141        2.053808      3.098370   1.000000   1.000000
  142        2.177971      3.127838   1.000000   1.000000
  143        2.206330      3.147308   1.000000   1.000000
  144        2.238078      3.195169   1.000000   1.000000
  145        2.265411      3.203876   1.000000   1.000000
  146        2.341924      3.313027   1.000000   1.000000
  147        2.367890      3.364575   1.000000   1.000000
  148        2.385084      3.496793   1.000000   1.000000
  149        2.401298      3.544230   1.000000   1.000000
  150        2.409783      3.555367   1.000000   1.000000
  151        2.422968      3.584886   1.000000   1.000000
  152        2.678930      3.622943   1.000000   1.000000
  153        2.731949      3.715219   1.000000   1.000000
  154        2.742910      3.738616   1.000000   1.000000
  155        2.765751      3.784777   1.000000   1.000000
  156        2.781174      3.793442   1.000000   1.000000
  157        2.830695      3.811325   1.000000   1.000000
  158        2.844805      3.820940   1.000000   1.000000
  159        2.870559      3.830313   1.000000   1.000000
  160        2.885757      3.842572   1.000000   1.000000
  161        2.898342      4.034216   1.000000   1.000000
  162        2.972106      4.043236   1.000000   1.000000
  163        3.007821      4.069486   1.000000   1.000000
  164        3.151870      4.102541   1.000000   1.000000
  165        3.195209      4.145701   1.000000   1.000000
  166        3.267369      4.168907   1.000000   1.000000
  167        3.279505      4.205663   1.000000   1.000000
  168        3.528458      4.277628   1.000000   1.000000
  169        3.538412      4.316880   1.000000   1.000000
  170        3.549811      4.348012   1.000000   1.000000
  171        3.604726      4.437516   1.000000   1.000000
  172        3.624546      4.447938   1.000000   1.000000
  173        3.978418      4.474139   1.000000   1.000000
  174        4.028199      4.501636   1.000000   1.000000
  175        4.036113      4.516100   1.000000   1.000000
  176        4.125312      4.540905   1.000000   1.000000
  177        4.154886      4.703120   1.000000   1.000000
  178        4.220535      4.751323   1.000000   1.000000
  179        4.266240      4.766003   1.000000   1.000000
  180        4.294539      4.800107   1.000000   1.000000
  181        4.304372      4.823090   1.000000   1.000000
  182        4.346307      4.921166   1.000000   1.000000
  183        4.415589      4.936758   1.000000   1.000000
  184        4.466786      4.937085   1.000000   1.000000
  185        4.604828      4.966208   1.000000   1.000000
  186        4.622138      5.020665   1.000000   1.000000
  187        4.647668      5.064065   1.000000   1.000000
  188        4.670740      5.090600   1.000000   1.000000
  189        4.674277      5.100963   1.000000   1.000000
  190        4.696278      5.128157   1.000000   1.000000
  191        4.760964      5.165417   1.000000   1.000000
  192        4.780577      5.186922   1.000000   1.000000
  193        4.806420      5.193941   1.000000   1.000000
  194        4.861696      5.205768   1.000000   1.000000
  195        4.874607      5.223026   1.000000   1.000000
  196        4.892180      5.234056   1.000000   1.000000
  197        4.902388      5.264233   1.000000   1.000000
  198        4.925821      5.278085   1.000000   1.000000
  199        4.992883      5.331601   1.000000   1.000000
  200        5.032883      5.384848   1.000000   1.000000
  201        5.047038      5.393207   1.000000   1.000000
  202        5.101663      5.424557   1.000000   1.000000
  203        5.107893      5.454125   1.000000   1.000000
  204        5.129539      5.501378   1.000000   1.000000
  205        5.167128      5.529251   1.000000   1.000000
  206        5.211586      5.570496   1.000000   1.000000
  207        5.215233      5.613537   1.000000   1.000000
  208        5.237521      5.625818   1.000000   1.000000
  209        5.260921      5.670950   1.000000   1.000000
  210        5.300091      5.716338   1.000000   1.000000
  211        5.315558      5.751688   1.000000   1.000000
  212        5.342785      5.792807   1.000000   1.000000
  213        5.362699      5.824182   1.000000   1.000000
  214        5.406400      5.892724   1.000000   1.000000
  215        5.427564      5.912149   1.000000   1.000000
  216        5.487627      5.933582   1.000000   1.000000
  217        5.542427      5.953025   1.000000   1.000000
  218        5.558408      5.979342   1.000000   1.000000
  219        5.587138      5.985013   1.000000   1.000000
  220        5.619295      5.995407   1.000000   1.000000
  221        5.643028      6.038168   1.000000   1.000000
  222        5.708843      6.054264   1.000000   1.000000
  223        5.730319      6.089136   1.000000   1.000000
  224        5.739640      6.104875   1.000000   1.000000
  225        5.763092      6.188422   1.000000   1.000000
  226        5.802480      6.197450   1.000000   1.000000
  227        5.870515      6.209621   1.000000   1.000000
  228        5.880632      6.233531   1.000000   1.000000
  229        5.889374      6.239213   1.000000   1.000000
  230        5.913989      6.242410   1.000000   1.000000
  231        5.922021      6.276074   1.000000   1.000000
  232        5.937725      6.304841   1.000000   1.000000
  233        5.955682      6.327654   1.000000   1.000000
  234        5.992902      6.342747   1.000000   1.000000
  235        6.002211      6.371081   1.000000   1.000000
  236        6.045879      6.371757   1.000000   1.000000
  237        6.146878      6.388944   1.000000   1.000000
  238        6.152265      6.423518   1.000000   1.000000
  239        6.166080      6.438350   1.000000   1.000000
  240        6.195368      6.457881   1.000000   1.000000
  241        6.208692      6.485971   1.000000   1.000000
  242        6.220438      6.666177   1.000000   1.000000
  243        6.246995      6.772126   1.000000   1.000000
  244        6.268069      6.953356   1.000000   0.999997
  245        6.308572     10.069091   1.000000   0.000000
  246        6.326834     10.268724   1.000000   0.000000
  247        6.354140     10.306626   1.000000   0.000000
  248        6.368414     10.469967   1.000000   0.000000
  249        6.386114     10.570678   1.000000   0.000000
  250        6.614479     10.596037   1.000000   0.000000
  251        6.708716     10.610297   1.000000   0.000000
  252        6.796532     10.626644   1.000000   0.000000
  253        6.956974     10.640250   0.999997   0.000000
  254        6.971405     10.657232   0.999994   0.000000
  255        7.076668     10.709681   0.999869   0.000000
  256        7.099421     10.912542   0.999758   0.000000
  257        7.153820     10.989782   0.999047   0.000000
  258        7.172264     11.056268   0.998531   0.000000
  259        8.676199     11.078724   0.000000   0.000000
  260        8.678286     11.095076   0.000000   0.000000
  261       10.076562     11.151990   0.000000   0.000000
  262       10.603447     11.159569   0.000000   0.000000
  263       10.636638     11.167218   0.000000   0.000000
  264       11.012523     11.180134   0.000000   0.000000
  265       11.060573     11.191109   0.000000   0.000000
  266       11.090454     11.224033   0.000000   0.000000
  267       11.154482     11.231042   0.000000   0.000000
  268       11.181666     11.252948   0.000000   0.000000
  269       11.196649     11.303422   0.000000   0.000000
  270       11.223992     11.373648   0.000000   0.000000
  271       11.285138     11.391586   0.000000   0.000000
  272       11.339661     11.405970   0.000000   0.000000
  273       11.353477     11.416725   0.000000   0.000000
  274       11.362258     11.464097   0.000000   0.000000
  275       11.386655     11.484491   0.000000   0.000000
  276       11.397464     11.484982   0.000000   0.000000
  277       11.424612     11.497141   0.000000   0.000000
  278       11.449814     11.511681   0.000000   0.000000
  279       11.460524     11.521125   0.000000   0.000000
  280       11.483788     11.527034   0.000000   0.000000
  281       11.491952     11.541803   0.000000   0.000000
  282       11.499491     11.569687   0.000000   0.000000
  283       11.519619     11.579043   0.000000   0.000000
  284       11.529600     11.585360   0.000000   0.000000
  285       11.541226     11.589320   0.000000   0.000000
  286       11.569734     11.610201   0.000000   0.000000
  287       11.579121     11.625638   0.000000   0.000000
  288       11.606325     11.627809   0.000000   0.000000
  289       11.611236     11.631458   0.000000   0.000000
  290       11.623044     11.641224   0.000000   0.000000
  291       11.627604     11.657778   0.000000   0.000000
  292       11.633790     11.670182   0.000000   0.000000
  293       11.639308     11.680329   0.000000   0.000000
  294       11.650532     11.696182   0.000000   0.000000
  295       11.671371     11.700144   0.000000   0.000000
  296       11.686834     11.704776   0.000000   0.000000
  297       11.692679     11.717987   0.000000   0.000000
  298       11.698775     11.729875   0.000000   0.000000
  299       11.710295     11.738281   0.000000   0.000000
  300       11.719430     11.741392   0.000000   0.000000
  301       11.727137     11.752515   0.000000   0.000000
  302       11.733093     11.761465   0.000000   0.000000
  303       11.739406     11.766035   0.000000   0.000000
  304       11.750305     11.770178   0.000000   0.000000
  305       11.758772     11.775198   0.000000   0.000000
  306       11.760501     11.780907   0.000000   0.000000
  307       11.763756     11.782087   0.000000   0.000000
  308       11.773087     11.791197   0.000000   0.000000
  309       11.773327     11.800989   0.000000   0.000000
  310       11.782307     11.806503   0.000000   0.000000
  311       11.789849     11.807452   0.000000   0.000000
  312       11.796063     11.809335   0.000000   0.000000
  313       11.801137     11.822560   0.000000   0.000000
  314       11.804390     11.827747   0.000000   0.000000
  315       11.810506     11.835096   0.000000   0.000000
  316       11.822558     11.845710   0.000000   0.000000
  317       11.825083     11.852953   0.000000   0.000000
  318       11.834888     11.864634   0.000000   0.000000
  319       11.843543     11.874688   0.000000   0.000000
  320       11.859608     11.877358   0.000000   0.000000
  321       11.867761     11.880625   0.000000   0.000000
  322       11.872491     11.887687   0.000000   0.000000
  323       11.875348     11.893033   0.000000   0.000000
  324       11.883627     11.898884   0.000000   0.000000

  0.3333333E+00  0.1262399E-14  0.1262310E-14  0.1111111E+00
    1      -57.259677    -55.160539   1.000000   1.000000
    2      -57.155567    -55.155783   1.000000   1.000000
    3      -57.145399    -55.141878   1.000000   1.000000
    4      -57.137877    -55.109438   1.000000   1.000000
    5      -57.125291    -55.100377   1.000000   1.000000
    6      -57.104431    -55.095948   1.000000   1.000000
    7      -57.091449    -55.095682   1.000000   1.000000
    8      -57.090289    -55.081138   1.000000   1.000000
    9      -57.089487    -55.072684   1.000000   1.000000
   10      -57.088863    -55.068092   1.000000   1.000000
   11      -57.088005    -55.065201   1.000000   1.000000
   12      -57.085894    -55.044317   1.000000   1.000000
   13      -57.080892    -55.042902   1.000000   1.000000
   14      -57.076227    -55.039176   1.000000   1.000000
   15      -57.066497    -55.035042   1.000000   1.000000
   16      -57.062473    -55.034607   1.000000   1.000000
   17      -57.054702    -55.032340   1.000000   1.000000
   18      -57.053382    -55.025704   1.000000   1.000000
   19      -57.050022    -55.020800   1.000000   1.000000
   20      -57.046636    -55.002636   1.000000   1.000000
   21      -57.042321    -54.992938   1.000000   1.000000
   22      -57.038276    -54.978697   1.000000   1.000000
   23      -57.036157    -54.977899   1.000000   1.000000
   24      -57.032573    -54.973272   1.000000   1.000000
   25      -23.384132    -23.381141   1.000000   1.000000
   26      -23.339289    -23.336489   1.000000   1.000000
   27      -23.311333    -23.308566   1.000000   1.000000
   28      -23.278142    -23.275373   1.000000   1.000000
   29      -23.270604    -23.267755   1.000000   1.000000
   30      -23.257479    -23.254682   1.000000   1.000000
   31      -23.246077    -23.243197   1.000000   1.000000
   32      -23.233605    -23.230852   1.000000   1.000000
   33      -23.203248    -23.200676   1.000000   1.000000
   34      -23.171967    -23.169378   1.000000   1.000000
   35      -23.118799    -23.116490   1.000000   1.000000
   36      -23.100417    -23.097987   1.000000   1.000000
   37      -23.047478    -23.044808   1.000000   1.000000
   38      -23.030133    -23.028316   1.000000   1.000000
   39      -22.956847    -22.954123   1.000000   1.000000
   40      -22.937333    -22.934459   1.000000   1.000000
   41      -11.146892    -11.107778   1.000000   1.000000
   42      -11.113377    -11.068811   1.000000   1.000000
   43      -11.084562    -11.044134   1.000000   1.000000
   44      -10.956672    -10.912945   1.000000   1.000000
   45      -10.870537    -10.824446   1.000000   1.000000
   46      -10.806385    -10.757138   1.000000   1.000000
   47      -10.705437    -10.680290   1.000000   1.000000
   48      -10.605888    -10.579621   1.000000   1.000000
   49      -10.561985    -10.517283   1.000000   1.000000
   50      -10.457376    -10.440223   1.000000   1.000000
   51      -10.386496    -10.368645   1.000000   1.000000
   52      -10.353057    -10.327092   1.000000   1.000000
   53      -10.287173    -10.271116   1.000000   1.000000
   54      -10.256773    -10.245496   1.000000   1.000000
   55      -10.152755    -10.104131   1.000000   1.000000
   56      -10.098693    -10.043684   1.000000   1.000000
   57      -10.046093     -9.986256   1.000000   1.000000
   58      -10.027651     -9.965032   1.000000   1.000000
   59       -9.950954     -9.890238   1.000000   1.000000
   60       -9.941151     -9.884536   1.000000   1.000000
   61       -9.910598     -9.850279   1.000000   1.000000
   62       -9.840901     -9.780922   1.000000   1.000000
   63       -9.774058     -9.691751   1.000000   1.000000
   64       -9.737581     -9.644726   1.000000   1.000000
   65       -9.705113     -9.635091   1.000000   1.000000
   66       -9.615977     -9.537824   1.000000   1.000000
   67       -9.607358     -9.495912   1.000000   1.000000
   68       -9.560670     -9.478044   1.000000   1.000000
   69       -9.520629     -9.428554   1.000000   1.000000
   70       -9.518413     -9.408616   1.000000   1.000000
   71       -9.483779     -9.386892   1.000000   1.000000
   72       -9.463497     -9.352590   1.000000   1.000000
   73       -9.306873     -9.239368   1.000000   1.000000
   74       -7.287426     -7.276417   1.000000   1.000000
   75       -7.238530     -7.224692   1.000000   1.000000
   76       -7.154762     -7.144743   1.000000   1.000000
   77       -7.137076     -7.127186   1.000000   1.000000
   78       -7.114997     -7.103445   1.000000   1.000000
   79       -7.096623     -7.086835   1.000000   1.000000
   80       -7.078701     -7.065810   1.000000   1.000000
   81       -7.040449     -7.026600   1.000000   1.000000
   82       -7.005744     -6.997641   1.000000   1.000000
   83       -6.985308     -6.973845   1.000000   1.000000
   84       -6.958924     -6.948722   1.000000   1.000000
   85       -6.935378     -6.929009   1.000000   1.000000
   86       -6.929026     -6.918505   1.000000   1.000000
   87       -6.878418     -6.867744   1.000000   1.000000
   88       -6.866978     -6.858064   1.000000   1.000000
   89       -6.855724     -6.849197   1.000000   1.000000
   90       -6.845997     -6.833827   1.000000   1.000000
   91       -6.834907     -6.825657   1.000000   1.000000
   92       -6.819622     -6.810107   1.000000   1.000000
   93       -6.785434     -6.775761   1.000000   1.000000
   94       -6.760411     -6.748176   1.000000   1.000000
   95       -6.726153     -6.718140   1.000000   1.000000
   96       -6.702966     -6.685655   1.000000   1.000000
   97       -6.659134     -6.652030   1.000000   1.000000
   98       -6.621939     -6.610883   1.000000   1.000000
   99       -6.591930     -6.585603   1.000000   1.000000
  100       -6.572722     -6.561955   1.000000   1.000000
  101       -6.555769     -6.542790   1.000000   1.000000
  102       -6.505912     -6.495097   1.000000   1.000000
  103       -6.473510     -6.461559   1.000000   1.000000
  104       -6.386996     -6.355998   1.000000   1.000000
  105       -6.191270     -6.170195   1.000000   1.000000
  106       -6.160779     -6.141477   1.000000   1.000000
  107       -6.097613     -6.076743   1.000000   1.000000
  108       -6.054230     -6.032337   1.000000   1.000000
  109       -6.024359     -6.002737   1.000000   1.000000
  110       -5.972741     -5.947372   1.000000   1.000000
  111       -5.920635     -5.894231   1.000000   1.000000
  112       -5.896453     -5.867454   1.000000   1.000000
  113       -5.879190     -5.850574   1.000000   1.000000
  114       -5.835705     -5.804306   1.000000   1.000000
  115       -5.770462     -5.734938   1.000000   1.000000
  116       -5.739131     -5.706289   1.000000   1.000000
  117       -5.695921     -5.663911   1.000000   1.000000
  118       -5.682783     -5.629582   1.000000   1.000000
  119       -5.612905     -5.575461   1.000000   1.000000
  120       -5.265561     -5.235695   1.000000   1.000000
  121       -4.943793     -4.933046   1.000000   1.000000
  122        0.335555      1.451096   1.000000   1.000000
  123        0.336335      1.470641   1.000000   1.000000
  124        0.367114      2.062736   1.000000   1.000000
  125        0.370426      2.068379   1.000000   1.000000
  126        0.698461      2.415024   1.000000   1.000000
  127        0.754747      2.448021   1.000000   1.000000
  128        0.779985      2.556773   1.000000   1.000000
  129        0.802246      2.617088   1.000000   1.000000
  130        1.489583      2.644240   1.000000   1.000000
  131        1.548898      2.661122   1.000000   1.000000
  132        1.558283      2.680634   1.000000   1.000000
  133        1.570565      2.710147   1.000000   1.000000
  134        1.776296      2.774130   1.000000   1.000000
  135        1.794157      2.797633   1.000000   1.000000
  136        1.822343      2.866976   1.000000   1.000000
  137        1.834438      2.904012   1.000000   1.000000
  138        1.993430      2.953475   1.000000   1.000000
  139        2.029750      2.973326   1.000000   1.000000
  140        2.040480      2.998803   1.000000   1.000000
  141        2.091003      3.046955   1.000000   1.000000
  142        2.148480      3.064569   1.000000   1.000000
  143        2.163488      3.102396   1.000000   1.000000
  144        2.188918      3.144261   1.000000   1.000000
  145        2.241918      3.183705   1.000000   1.000000
  146        2.286766      3.204130   1.000000   1.000000
  147        2.332429      3.290558   1.000000   1.000000
  148        2.353445      3.363317   1.000000   1.000000
  149        2.356066      3.413780   1.000000   1.000000
  150        2.377450      3.455612   1.000000   1.000000
  151        2.398216      3.596093   1.000000   1.000000
  152        2.478972      3.617846   1.000000   1.000000
  153        2.521708      3.623819   1.000000   1.000000
  154        2.539413      3.693596   1.000000   1.000000
  155        2.560544      3.788145   1.000000   1.000000
  156        2.590943      3.822714   1.000000   1.000000
  157        2.613528      3.832493   1.000000   1.000000
  158        2.643530      3.874783   1.000000   1.000000
  159        2.655079      3.892922   1.000000   1.000000
  160        2.751005      3.915471   1.000000   1.000000
  161        2.765243      4.008228   1.000000   1.000000
  162        2.780883      4.015163   1.000000   1.000000
  163        2.834860      4.073555   1.000000   1.000000
  164        2.853953      4.134728   1.000000   1.000000
  165        2.872074      4.174811   1.000000   1.000000
  166        3.392722      4.307706   1.000000   1.000000
  167        3.479148      4.346609   1.000000   1.000000
  168        3.525778      4.380471   1.000000   1.000000
  169        3.629071      4.469705   1.000000   1.000000
  170        3.645809      4.505753   1.000000   1.000000
  171        3.781133      4.551238   1.000000   1.000000
  172        3.818954      4.608504   1.000000   1.000000
  173        3.852683      4.652236   1.000000   1.000000
  174        3.999355      4.679933   1.000000   1.000000
  175        4.114888      4.696886   1.000000   1.000000
  176        4.189189      4.729565   1.000000   1.000000
  177        4.236652      4.732675   1.000000   1.000000
  178        4.253662      4.778576   1.000000   1.000000
  179        4.355867      4.800768   1.000000   1.000000
  180        4.406684      4.823879   1.000000   1.000000
  181        4.442736      4.872393   1.000000   1.000000
  182        4.477074      4.896808   1.000000   1.000000
  183        4.516607      4.919185   1.000000   1.000000
  184        4.583520      4.942244   1.000000   1.000000
  185        4.609198      4.974738   1.000000   1.000000
  186        4.680517      4.990556   1.000000   1.000000
  187        4.709935      5.026208   1.000000   1.000000