       N       E                     dE             d eps       ncg     rms          rms(c)
DAV:   1     0.832315063814E+04    0.83232E+04   -0.15448E+05 14228   0.209E+03
DAV:   2     0.289756227903E+04   -0.54256E+04   -0.49789E+04 14528   0.646E+02
DAV:   3     0.714968101720E+03   -0.21826E+04   -0.19434E+04 14664   0.311E+02
DAV:   4    -0.223443786996E+03   -0.93841E+03   -0.88348E+03 20160   0.178E+02
DAV:   5    -0.433658866907E+03   -0.21022E+03   -0.20372E+03 25404   0.106E+02    0.795E+01
DAV:   6    -0.407785959690E+03    0.25873E+02   -0.10297E+03 22200   0.103E+02    0.137E+02
DAV:   7    -0.412019298619E+03   -0.42333E+01   -0.26709E+02 23024   0.620E+01    0.446E+01
DAV:   8    -0.409706677060E+03    0.23126E+01   -0.33884E+01 22336   0.268E+01    0.240E+01
DAV:   9    -0.413323835261E+03   -0.36172E+01   -0.16732E+01 23336   0.121E+01    0.200E+01
DAV:  10    -0.414852232659E+03   -0.15284E+01   -0.48616E+00 24448   0.808E+00    0.139E+01
DAV:  11    -0.415404875324E+03   -0.55264E+00   -0.19819E+00 25100   0.467E+00    0.977E+00
DAV:  12    -0.415539512145E+03   -0.13464E+00   -0.61694E-01 24080   0.282E+00    0.742E+00
DAV:  13    -0.415565769151E+03   -0.26257E-01   -0.18712E-01 22696   0.183E+00    0.471E+00
DAV:  14    -0.415568776798E+03   -0.30076E-02   -0.95805E-02 24272   0.106E+00    0.322E+00
DAV:  15    -0.415573726755E+03   -0.49500E-02   -0.38045E-02 25536   0.596E-01    0.219E+00
DAV:  16    -0.415575033254E+03   -0.13065E-02   -0.95817E-03 22816   0.429E-01    0.124E+00
DAV:  17    -0.415574956130E+03    0.77124E-04   -0.72743E-03 23520   0.297E-01    0.686E-01
DAV:  18    -0.415575369164E+03   -0.41303E-03   -0.39836E-03 25000   0.182E-01    0.419E-01
DAV:  19    -0.415575585112E+03   -0.21595E-03   -0.96742E-04 22896   0.112E-01    0.314E-01
DAV:  20    -0.415575638007E+03   -0.52895E-04   -0.46898E-04 23560   0.805E-02    0.184E-01
DAV:  21    -0.415575708608E+03   -0.70601E-04   -0.21571E-04 24360   0.486E-02    0.113E-01
DAV:  22    -0.415575756982E+03   -0.48374E-04   -0.15082E-04 24688   0.348E-02    0.758E-02
DAV:  23    -0.415575791086E+03   -0.34104E-04   -0.51500E-05 21688   0.286E-02    0.309E-02
DAV:  24    -0.415575828385E+03   -0.37300E-04   -0.68606E-05 24200   0.229E-02    0.185E-02
DAV:  25    -0.415575851368E+03   -0.22982E-04   -0.38175E-05 22400   0.161E-02    0.181E-02
DAV:  26    -0.415575868346E+03   -0.16978E-04   -0.17697E-05 21816   0.133E-02    0.210E-02
DAV:  27    -0.415575891239E+03   -0.22893E-04   -0.35147E-05 20448   0.213E-02    0.244E-02
DAV:  28    -0.415575906672E+03   -0.15434E-04   -0.58236E-05 17960   0.160E-02    0.195E-02
DAV:  29    -0.415575915167E+03   -0.84943E-05   -0.24334E-05 19808   0.124E-02    0.145E-02
DAV:  30    -0.415575919440E+03   -0.42736E-05   -0.22309E-05 19456   0.151E-02    0.831E-03
DAV:  31    -0.415575923080E+03   -0.36403E-05   -0.13896E-05 16736   0.821E-03    0.502E-03
DAV:  32    -0.415575923925E+03   -0.84416E-06   -0.21967E-06 16392   0.430E-03    0.259E-03
DAV:  33    -0.415575924191E+03   -0.26663E-06   -0.68448E-07 12560   0.301E-03    0.198E-03
DAV:  34    -0.415575924334E+03   -0.14244E-06   -0.55422E-07 11744   0.380E-03    0.176E-03
DAV:  35    -0.415575924535E+03   -0.20115E-06   -0.10204E-06 13152   0.279E-03    0.145E-03
DAV:  36    -0.415575924609E+03   -0.73902E-07   -0.21413E-07 11600   0.211E-03
   1 F= -.41557592E+03 E0= -.41556492E+03  d E =-.415576E+03  mag=    14.0000
       N       E                     dE             d eps       ncg     rms          rms(c)
DAV:   1    -0.415578238662E+03   -0.23141E-02   -0.80653E-03 16520   0.283E-01    0.287E-02
DAV:   2    -0.415578324705E+03   -0.86042E-04   -0.91819E-04 22648   0.999E-02    0.172E-02
DAV:   3    -0.415578328987E+03   -0.42820E-05   -0.60139E-05 24448   0.244E-02    0.142E-02
DAV:   4    -0.415578328258E+03    0.72881E-06   -0.82285E-06 24680   0.942E-03    0.998E-03
DAV:   5    -0.415578327152E+03    0.11060E-05   -0.60392E-06 21600   0.820E-03    0.609E-03
DAV:   6    -0.415578327334E+03   -0.18264E-06   -0.28101E-06 22048   0.554E-03    0.321E-03
DAV:   7    -0.415578327356E+03   -0.21821E-07   -0.94422E-07 19528   0.296E-03
   2 F= -.41557833E+03 E0= -.41556732E+03  d E =-.240275E-02  mag=    14.0001
       N       E                     dE             d eps       ncg     rms          rms(c)
DAV:   1    -0.415562092806E+03    0.16235E-01   -0.65708E+00 15692   0.804E+00    0.814E-01
DAV:   2    -0.415632095081E+03   -0.70002E-01   -0.74469E-01 22592   0.286E+00    0.494E-01
DAV:   3    -0.415635669452E+03   -0.35744E-02   -0.48942E-02 24512   0.688E-01    0.395E-01
DAV:   4    -0.415635042608E+03    0.62684E-03   -0.65491E-03 24744   0.268E-01    0.284E-01
DAV:   5    -0.415634165142E+03    0.87747E-03   -0.48330E-03 22104   0.229E-01    0.172E-01
DAV:   6    -0.415634300644E+03   -0.13550E-03   -0.22214E-03 22920   0.155E-01    0.930E-02
DAV:   7    -0.415634315647E+03   -0.15003E-04   -0.83392E-04 24896   0.814E-02    0.556E-02
DAV:   8    -0.415634335230E+03   -0.19583E-04   -0.18791E-04 23408   0.541E-02    0.305E-02
DAV:   9    -0.415634335294E+03   -0.64210E-07   -0.54199E-05 25136   0.263E-02    0.184E-02
DAV:  10    -0.415634335916E+03   -0.62232E-06   -0.21008E-05 25400   0.159E-02    0.114E-02
DAV:  11    -0.415634336792E+03   -0.87600E-06   -0.64181E-06 23768   0.930E-03    0.666E-03
DAV:  12    -0.415634337386E+03   -0.59365E-06   -0.46713E-06 23696   0.655E-03    0.434E-03
DAV:  13    -0.415634337858E+03   -0.47222E-06   -0.12567E-06 19072   0.418E-03    0.364E-03
DAV:  14    -0.415634338095E+03   -0.23664E-06   -0.46285E-07 13680   0.296E-03    0.277E-03
DAV:  15    -0.415634338480E+03   -0.38519E-06   -0.98883E-07 17128   0.327E-03    0.208E-03
DAV:  16    -0.415634338799E+03   -0.31886E-06   -0.34925E-07 11840   0.275E-03    0.179E-03
DAV:  17    -0.415634339109E+03   -0.30973E-06   -0.51347E-07 12680   0.271E-03    0.151E-03
DAV:  18    -0.415634339367E+03   -0.25868E-06   -0.41293E-07 11888   0.272E-03    0.140E-03
DAV:  19    -0.415634339579E+03   -0.21131E-06   -0.69712E-07 12368   0.302E-03    0.133E-03
DAV:  20    -0.415634339703E+03   -0.12405E-06   -0.49714E-07 11744   0.227E-03    0.942E-04
DAV:  21    -0.415634339756E+03   -0.52918E-07   -0.15943E-07 10824   0.161E-03
   3 F= -.41563434E+03 E0= -.41562310E+03  d E =-.560124E-01  mag=    14.0002
       N       E                     dE             d eps       ncg     rms          rms(c)
DAV:   1    -0.415437561852E+03    0.19678E+00   -0.23178E+01 15248   0.147E+01    0.142E+00
DAV:   2    -0.415685849080E+03   -0.24829E+00   -0.26054E+00 22456   0.559E+00    0.866E-01
DAV:   3    -0.415698119933E+03   -0.12271E-01   -0.16379E-01 24984   0.124E+00    0.630E-01
DAV:   4    -0.415695869816E+03    0.22501E-02   -0.19345E-02 24792   0.474E-01    0.489E-01
DAV:   5    -0.415692733830E+03    0.31360E-02   -0.12631E-02 22264   0.395E-01    0.306E-01
DAV:   6    -0.415692954850E+03   -0.22102E-03   -0.71010E-03 22616   0.273E-01    0.169E-01
DAV:   7    -0.415693087083E+03   -0.13223E-03   -0.23864E-03 25080   0.140E-01    0.970E-02
DAV:   8    -0.415693132686E+03   -0.45603E-04   -0.59978E-04 24200   0.958E-02    0.545E-02
DAV:   9    -0.415693131259E+03    0.14269E-05   -0.16402E-04 24368   0.506E-02    0.327E-02
DAV:  10    -0.415693132538E+03   -0.12795E-05   -0.94373E-05 25248   0.307E-02    0.198E-02
DAV:  11    -0.415693137344E+03   -0.48052E-05   -0.24629E-05 24656   0.173E-02    0.998E-03
DAV:  12    -0.415693139301E+03   -0.19578E-05   -0.10594E-05 23912   0.109E-02    0.786E-03
DAV:  13    -0.415693141274E+03   -0.19727E-05   -0.34342E-06 23720   0.674E-03    0.602E-03
DAV:  14    -0.415693142560E+03   -0.12859E-05   -0.17182E-06 19792   0.493E-03    0.505E-03
DAV:  15    -0.415693144012E+03   -0.14520E-05   -0.22296E-06 20696   0.485E-03    0.399E-03
DAV:  16    -0.415693145622E+03   -0.16096E-05   -0.15163E-06 17160   0.479E-03    0.366E-03
DAV:  17    -0.415693146879E+03   -0.12573E-05   -0.22765E-06 14368   0.461E-03    0.308E-03
DAV:  18    -0.415693148014E+03   -0.11347E-05   -0.24828E-06 17592   0.565E-03    0.295E-03
DAV:  19    -0.415693148695E+03   -0.68160E-06   -0.22788E-06 12488   0.422E-03    0.242E-03
DAV:  20    -0.415693149053E+03   -0.35751E-06   -0.13184E-06 13112   0.340E-03    0.180E-03
DAV:  21    -0.415693149239E+03   -0.18646E-06   -0.55986E-07 11632   0.247E-03    0.105E-03
DAV:  22    -0.415693149311E+03   -0.72090E-07   -0.20732E-07 10624   0.213E-03
   4 F= -.41569315E+03 E0= -.41568173E+03  d E =-.588096E-01  mag=    14.0002
       N       E                     dE             d eps       ncg     rms          rms(c)
DAV:   1    -0.415553258403E+03    0.13989E+00   -0.12296E+01 14928   0.125E+01    0.107E+00
DAV:   2    -0.415711114459E+03   -0.15786E+00   -0.16405E+00 22264   0.460E+00    0.586E-01
DAV:   3    -0.415719647766E+03   -0.85333E-02   -0.10268E-01 25112   0.977E-01    0.400E-01
DAV:   4    -0.415719034831E+03    0.61294E-03   -0.10805E-02 25160   0.357E-01    0.336E-01
DAV:   5    -0.415717669763E+03    0.13651E-02   -0.39653E-03 22600   0.253E-01    0.231E-01
DAV:   6    -0.415717417137E+03    0.25263E-03   -0.30190E-03 21736   0.181E-01    0.105E-01
DAV:   7    -0.415717561659E+03   -0.14452E-03   -0.14841E-03 24800   0.107E-01    0.618E-02
DAV:   8    -0.415717584411E+03   -0.22753E-04   -0.30626E-04 24512   0.680E-02    0.381E-02
DAV:   9    -0.415717586804E+03   -0.23929E-05   -0.96861E-05 25296   0.374E-02    0.256E-02
DAV:  10    -0.415717589212E+03   -0.24080E-05   -0.38047E-05 25480   0.223E-02    0.164E-02
DAV:  11    -0.415717592585E+03   -0.33726E-05   -0.11191E-05 24112   0.120E-02    0.901E-03
DAV:  12    -0.415717594218E+03   -0.16334E-05   -0.46964E-06 23400   0.707E-03    0.621E-03
DAV:  13    -0.415717595651E+03   -0.14329E-05   -0.24180E-06 22128   0.527E-03    0.504E-03
DAV:  14    -0.415717596750E+03   -0.10987E-05   -0.11290E-06 15744   0.431E-03    0.416E-03
DAV:  15    -0.415717597930E+03   -0.11806E-05   -0.10981E-06 14624   0.386E-03    0.338E-03
DAV:  16    -0.415717599323E+03   -0.13933E-05   -0.14331E-06 15240   0.514E-03    0.308E-03
DAV:  17    -0.415717600522E+03   -0.11983E-05   -0.33014E-06 14664   0.527E-03    0.299E-03
DAV:  18    -0.415717601260E+03   -0.73827E-06   -0.19010E-06 13776   0.452E-03    0.239E-03
DAV:  19    -0.415717601687E+03   -0.42686E-06   -0.14692E-06 13904   0.416E-03    0.209E-03
DAV:  20    -0.415717601921E+03   -0.23413E-06   -0.92925E-07 12384   0.317E-03    0.149E-03
DAV:  21    -0.415717602026E+03   -0.10527E-06   -0.33796E-07 11368   0.228E-03    0.885E-04
DAV:  22    -0.415717602055E+03   -0.28478E-07   -0.83523E-08  9488   0.163E-03
   5 F= -.41571760E+03 E0= -.41570630E+03  d E =-.244527E-01  mag=    14.0001
       N       E                     dE             d eps       ncg     rms          rms(c)
DAV:   1    -0.415241503685E+03    0.47610E+00   -0.37383E+01 14912   0.213E+01    0.183E+00
DAV:   2    -0.415720732159E+03   -0.47923E+00   -0.49805E+00 22296   0.800E+00    0.102E+00
DAV:   3    -0.415747481043E+03   -0.26749E-01   -0.30900E-01 25064   0.164E+00    0.670E-01
DAV:   4    -0.415746766371E+03    0.71467E-03   -0.31535E-02 24984   0.613E-01    0.569E-01
DAV:   5    -0.415743766209E+03    0.30002E-02   -0.93344E-03 22472   0.382E-01    0.396E-01
DAV:   6    -0.415742776124E+03    0.99009E-03   -0.80155E-03 20496   0.300E-01    0.150E-01
DAV:   7    -0.415743299685E+03   -0.52356E-03   -0.47701E-03 25080   0.176E-01    0.101E-01
DAV:   8    -0.415743349591E+03   -0.49906E-04   -0.86675E-04 25336   0.101E-01    0.555E-02
DAV:   9    -0.415743355592E+03   -0.60007E-05   -0.23446E-04 25032   0.569E-02    0.435E-02
DAV:  10    -0.415743365701E+03   -0.10109E-04   -0.90374E-05 23904   0.366E-02    0.260E-02
DAV:  11    -0.415743376812E+03   -0.11111E-04   -0.33606E-05 24616   0.196E-02    0.172E-02
DAV:  12    -0.415743383878E+03   -0.70666E-05   -0.13699E-05 23760   0.128E-02    0.118E-02
DAV:  13    -0.415743389932E+03   -0.60537E-05   -0.76335E-06 23360   0.954E-03    0.984E-03
DAV:  14    -0.415743395541E+03   -0.56086E-05   -0.51240E-06 19872   0.817E-03    0.802E-03
DAV:  15    -0.415743401526E+03   -0.59852E-05   -0.61838E-06 18984   0.786E-03    0.682E-03
DAV:  16    -0.415743407280E+03   -0.57538E-05   -0.85330E-06 19088   0.913E-03    0.649E-03
DAV:  17    -0.415743411906E+03   -0.46267E-05   -0.12993E-05 17408   0.109E-02    0.664E-03
DAV:  18    -0.415743414894E+03   -0.29879E-05   -0.11723E-05 15112   0.749E-03    0.481E-03
DAV:  19    -0.415743416070E+03   -0.11759E-05   -0.26588E-06 13960   0.525E-03    0.326E-03
DAV:  20    -0.415743416640E+03   -0.57003E-06   -0.22325E-06 13360   0.397E-03    0.233E-03
DAV:  21    -0.415743416854E+03   -0.21354E-06   -0.10651E-06 13552   0.399E-03    0.198E-03
DAV:  22    -0.415743417034E+03   -0.18066E-06   -0.64989E-07 11824   0.259E-03    0.974E-04
DAV:  23    -0.415743417070E+03   -0.35863E-07   -0.11199E-07 10256   0.186E-03
   6 F= -.41574342E+03 E0= -.41573200E+03  d E =-.258150E-01  mag=    14.0000
       N       E                     dE             d eps       ncg     rms          rms(c)
DAV:   1    -0.415119551994E+03    0.62387E+00   -0.38104E+01 14728   0.261E+01    0.216E+00
DAV:   2    -0.415721945134E+03   -0.60239E+00   -0.62675E+00 22184   0.855E+00    0.113E+00
DAV:   3    -0.415759248479E+03   -0.37303E-01   -0.40403E-01 24896   0.193E+00    0.761E-01
DAV:   4    -0.415759087618E+03    0.16086E-03   -0.43933E-02 25616   0.683E-01    0.630E-01
DAV:   5    -0.415756717370E+03    0.23702E-02   -0.11149E-02 23992   0.415E-01    0.462E-01
DAV:   6    -0.415755794392E+03    0.92298E-03   -0.48608E-03 21984   0.282E-01    0.221E-01
DAV:   7    -0.415755980153E+03   -0.18576E-03   -0.39768E-03 22864   0.191E-01    0.134E-01
DAV:   8    -0.415756196430E+03   -0.21628E-03   -0.17242E-03 25312   0.124E-01    0.709E-02
DAV:   9    -0.415756191989E+03    0.44405E-05   -0.31814E-04 24696   0.723E-02    0.550E-02
DAV:  10    -0.415756189920E+03    0.20689E-05   -0.18563E-04 25336   0.457E-02    0.327E-02
DAV:  11    -0.415756202171E+03   -0.12251E-04   -0.54670E-05 24584   0.277E-02    0.186E-02
DAV:  12    -0.415756211033E+03   -0.88614E-05   -0.25508E-05 23888   0.162E-02    0.137E-02
DAV:  13    -0.415756218688E+03   -0.76553E-05   -0.86845E-06 23176   0.112E-02    0.106E-02
DAV:  14    -0.415756224451E+03   -0.57628E-05   -0.59774E-06 20920   0.790E-03    0.920E-03
DAV:  15    -0.415756231485E+03   -0.70344E-05   -0.58480E-06 19328   0.832E-03    0.767E-03
DAV:  16    -0.415756239829E+03   -0.83434E-05   -0.96473E-06 19496   0.122E-02    0.749E-03
DAV:  17    -0.415756245499E+03   -0.56699E-05   -0.19572E-05 16224   0.893E-03    0.631E-03
DAV:  18    -0.415756248681E+03   -0.31823E-05   -0.61248E-06 15264   0.758E-03    0.493E-03
DAV:  19    -0.415756250713E+03   -0.20323E-05   -0.76742E-06 18880   0.859E-03    0.472E-03
DAV:  20    -0.415756251996E+03   -0.12829E-05   -0.54413E-06 13824   0.547E-03    0.321E-03
DAV:  21    -0.415756252476E+03   -0.48002E-06   -0.14040E-06 12400   0.349E-03    0.198E-03
DAV:  22    -0.415756252610E+03   -0.13431E-06   -0.39768E-07 11968   0.245E-03    0.109E-03
DAV:  23    -0.415756252668E+03   -0.57509E-07   -0.19925E-07 10376   0.247E-03
   7 F= -.41575625E+03 E0= -.41574525E+03  d E =-.128356E-01  mag=    14.0000
       N       E                     dE             d eps       ncg     rms          rms(c)
DAV:   1    -0.415330508770E+03    0.42574E+00   -0.18888E+01 14752   0.221E+01    0.190E+00
DAV:   2    -0.415750705586E+03   -0.42020E+00   -0.43981E+00 22080   0.677E+00    0.987E-01
DAV:   3    -0.415776498611E+03   -0.25793E-01   -0.27831E-01 24416   0.168E+00    0.650E-01
DAV:   4    -0.415776173792E+03    0.32482E-03   -0.31659E-02 25144   0.579E-01    0.537E-01
DAV:   5    -0.415774685269E+03    0.14885E-02   -0.10088E-02 24384   0.371E-01    0.380E-01
DAV:   6    -0.415774273740E+03    0.41153E-03   -0.32583E-03 22720   0.238E-01    0.191E-01
DAV:   7    -0.415774337087E+03   -0.63347E-04   -0.20768E-03 23352   0.141E-01    0.101E-01
DAV:   8    -0.415774464725E+03   -0.12764E-03   -0.90053E-04 25344   0.916E-02    0.542E-02
DAV:   9    -0.415774462258E+03    0.24676E-05   -0.18406E-04 24240   0.579E-02    0.410E-02
DAV:  10    -0.415774464866E+03   -0.26083E-05   -0.10144E-04 25688   0.333E-02    0.250E-02
DAV:  11    -0.415774470033E+03   -0.51670E-05   -0.25526E-05 24984   0.195E-02    0.141E-02
DAV:  12    -0.415774475792E+03   -0.57585E-05   -0.18237E-05 24496   0.136E-02    0.105E-02
DAV:  13    -0.415774478607E+03   -0.28152E-05   -0.50275E-06 21304   0.892E-03    0.741E-03
DAV:  14    -0.415774481235E+03   -0.26284E-05   -0.30579E-06 20152   0.548E-03    0.643E-03
DAV:  15    -0.415774484473E+03   -0.32380E-05   -0.19963E-06 15776   0.589E-03    0.547E-03
DAV:  16    -0.415774488864E+03   -0.43912E-05   -0.69508E-06 19360   0.898E-03    0.547E-03
DAV:  17    -0.415774491370E+03   -0.25059E-05   -0.70462E-06 13728   0.608E-03    0.436E-03
DAV:  18    -0.415774493221E+03   -0.18510E-05   -0.36617E-06 17024   0.676E-03    0.370E-03
DAV:  19    -0.415774494471E+03   -0.12498E-05   -0.46751E-06 15120   0.625E-03    0.336E-03
DAV:  20    -0.415774495196E+03   -0.72514E-06   -0.31005E-06 13448   0.451E-03    0.248E-03
DAV:  21    -0.415774495510E+03   -0.31432E-06   -0.10725E-06 12400   0.315E-03    0.163E-03
DAV:  22    -0.415774495634E+03   -0.12352E-06   -0.38116E-07 11808   0.230E-03    0.869E-04
DAV:  23    -0.415774495673E+03   -0.38803E-07   -0.14165E-07 10256   0.194E-03
   8 F= -.41577450E+03 E0= -.41576281E+03  d E =-.182430E-01  mag=    14.0000
       N       E                     dE             d eps       ncg     rms          rms(c)
DAV:   1    -0.415687015562E+03    0.87480E-01   -0.32261E+00 15124   0.978E+00    0.907E-01
DAV:   2    -0.415777628155E+03   -0.90613E-01   -0.93804E-01 22128   0.294E+00    0.450E-01
DAV:   3    -0.415782308878E+03   -0.46807E-02   -0.51308E-02 24144   0.669E-01    0.268E-01
DAV:   4    -0.415782410425E+03   -0.10155E-03   -0.63441E-03 25016   0.225E-01    0.236E-01
DAV:   5    -0.415782149250E+03    0.26118E-03   -0.15286E-03 22728   0.147E-01    0.171E-01
DAV:   6    -0.415782035752E+03    0.11350E-03   -0.79232E-04 20896   0.107E-01    0.773E-02
DAV:   7    -0.415782071439E+03   -0.35687E-04   -0.46708E-04 23400   0.649E-02    0.441E-02
DAV:   8    -0.415782088135E+03   -0.16695E-04   -0.16662E-04 25040   0.430E-02    0.206E-02
DAV:   9    -0.415782087300E+03    0.83438E-06   -0.29388E-05 23640   0.237E-02    0.153E-02
DAV:  10    -0.415782087315E+03   -0.14472E-07   -0.19032E-05 25424   0.144E-02    0.992E-03
DAV:  11    -0.415782087941E+03   -0.62655E-06   -0.40779E-06 22928   0.782E-03    0.526E-03
DAV:  12    -0.415782088191E+03   -0.24938E-06   -0.19800E-06 21600   0.464E-03    0.347E-03
DAV:  13    -0.415782088486E+03   -0.29501E-06   -0.62397E-07 15008   0.328E-03    0.224E-03
DAV:  14    -0.415782088715E+03   -0.22925E-06   -0.36561E-07 13080   0.262E-03    0.210E-03
DAV:  15    -0.415782088902E+03   -0.18694E-06   -0.19064E-07 11128   0.217E-03    0.163E-03
DAV:  16    -0.415782089097E+03   -0.19532E-06   -0.23527E-07 12040   0.200E-03    0.139E-03
DAV:  17    -0.415782089343E+03   -0.24623E-06   -0.34764E-07 11792   0.244E-03    0.127E-03
DAV:  18    -0.415782089523E+03   -0.17921E-06   -0.41469E-07 12232   0.233E-03    0.113E-03
DAV:  19    -0.415782089649E+03   -0.12608E-06   -0.31587E-07 10976   0.251E-03    0.101E-03
DAV:  20    -0.415782089729E+03   -0.80589E-07   -0.37609E-07 11640   0.205E-03
   9 F= -.41578209E+03 E0= -.41577074E+03  d E =-.759406E-02  mag=    14.0000
       N       E                     dE             d eps       ncg     rms          rms(c)
DAV:   1    -0.415772144166E+03    0.99455E-02   -0.85413E-01 14468   0.364E+00    0.309E-01
DAV:   2    -0.415784719654E+03   -0.12575E-01   -0.13063E-01 22184   0.123E+00    0.164E-01
DAV:   3    -0.415785483184E+03   -0.76353E-03   -0.83919E-03 24696   0.275E-01    0.114E-01
DAV:   4    -0.415785481451E+03    0.17331E-05   -0.97149E-04 25384   0.997E-02    0.938E-02
DAV:   5    -0.415785421035E+03    0.60415E-04   -0.27178E-04 24080   0.637E-02    0.689E-02
DAV:   6    -0.415785398081E+03    0.22954E-04   -0.13647E-04 21600   0.466E-02    0.314E-02
DAV:   7    -0.415785405607E+03   -0.75255E-05   -0.99038E-05 23224   0.286E-02    0.208E-02
DAV:   8    -0.415785409399E+03   -0.37922E-05   -0.32174E-05 25008   0.182E-02    0.101E-02
DAV:   9    -0.415785409655E+03   -0.25616E-06   -0.70794E-06 25152   0.102E-02    0.805E-03
DAV:  10    -0.415785409909E+03   -0.25371E-06   -0.26443E-06 22248   0.719E-03    0.526E-03
DAV:  11    -0.415785410343E+03   -0.43433E-06   -0.16853E-06 19632   0.410E-03    0.298E-03
DAV:  12    -0.415785410650E+03   -0.30651E-06   -0.48631E-07 13016   0.308E-03    0.243E-03
DAV:  13    -0.415785410906E+03   -0.25668E-06   -0.34202E-07 12304   0.254E-03    0.189E-03
DAV:  14    -0.415785411153E+03   -0.24673E-06   -0.24682E-07 10904   0.235E-03    0.168E-03
DAV:  15    -0.415785411415E+03   -0.26199E-06   -0.30588E-07 11672   0.234E-03    0.145E-03
DAV:  16    -0.415785411763E+03   -0.34847E-06   -0.73303E-07 11928   0.380E-03    0.158E-03
DAV:  17    -0.415785412000E+03   -0.23621E-06   -0.10532E-06 12576   0.282E-03    0.126E-03
DAV:  18    -0.415785412098E+03   -0.98684E-07   -0.24547E-07 11184   0.203E-03
  10 F= -.41578541E+03 E0= -.41577412E+03  d E =-.332237E-02  mag=    14.0000
