unknown system                          
           1
     7.779112    0.004108    0.003623
    -0.004572    7.778910   -0.003498
    -0.005983    0.006298   12.495625
   La   Ni   O 
    16     8    33
Direct configuration=     1
   0.24495970  0.26662982  0.85623518
   0.00636565  0.49895056  0.36278144
   0.98514440  0.49527556  0.64356174
   0.49884954  0.49560953  0.64071622
   0.48746686  0.50166298  0.36189296
   0.99024828  0.00130212  0.36278302
   0.01140971  0.00517355  0.64357009
   0.74698044  0.73848282  0.13879623
   0.50913328  0.99864428  0.36189397
   0.74926339  0.25752258  0.13747417
   0.75210125  0.23343625  0.85617949
   0.24958968  0.76176751  0.13879788
   0.24532097  0.75300756  0.86043276
   0.24728659  0.24280012  0.13747470
   0.49796093  0.00445288  0.64074085
   0.75104826  0.74715004  0.86041198
   0.25029479  0.25107223  0.49992966
   0.74640756  0.24920121  0.49992296
   0.74867683  0.74798312  0.50229113
   0.24791524  0.75230954  0.50230868
   0.49658410  0.50017959  0.99850579
   0.99784728  0.50246051  0.00014565
   0.49997935  0.00008337  0.99850952
   0.99869654  0.99779353  0.00017858
   0.46331594  0.00536302  0.17836515
   0.53595724  0.98429923  0.82673524
   0.02422704  0.54956684  0.83018955
   0.96070473  0.48971025  0.17806137
   0.53311855  0.49488511  0.17835699
   0.46065502  0.51614926  0.82666772
   0.25254056  0.79058529  0.67460180
   0.03604709  0.01048984  0.17807144
   0.24005241  0.28839071  0.32253012
   0.75002475  0.78428735  0.32200154
   0.74382301  0.70979183  0.67456645
   0.75659705  0.21197101  0.32252020
   0.70988846  0.27347826  0.66952410
   0.24654969  0.71590242  0.32201221
   0.97171270  0.95107028  0.83022736
   0.99837887  0.25013351  0.99419639
   0.49833697  0.25013847  0.48208824
   0.24964771  0.00603693  0.98323835
   0.24764408  0.50030764  0.01900224
   0.74891117  0.00006716  0.01919915
   0.74689265  0.49403162  0.98335427
   0.33832494  0.23057483  0.68290069
   0.99824188  0.75012261  0.02077270
   0.49829887  0.75014716  0.49400240
   0.49824066  0.25013825  0.00084575
   0.24838864  0.00107889  0.48138198
   0.24440469  0.50215372  0.51722594
   0.75227658  0.99810727  0.51713730
   0.74822408  0.49921931  0.48146420
   0.99835422  0.25017210  0.50287482
   0.99828971  0.75013200  0.49653042
   0.49830905  0.75012028  0.01033920
   0.03050638  0.24637640  0.73669579
Direct configuration=     2
   0.24553792  0.26708952  0.85705184
   0.00624620  0.49900304  0.36278134
   0.98469058  0.49573954  0.64356523
   0.49952429  0.49538243  0.64087026
   0.48749726  0.50154771  0.36193289
   0.98996247  0.00127290  0.36278702
   0.01041298  0.00379839  0.64326630
   0.74694236  0.73847263  0.13885934
   0.50914872  0.99877512  0.36194858
   0.74915466  0.25755316  0.13760403
   0.75329241  0.23313508  0.85572223
   0.24945630  0.76176725  0.13878765
   0.24510456  0.75291355  0.86031642
   0.24722746  0.24276188  0.13741207
   0.49922100  0.00319426  0.64059779
   0.75107798  0.74720967  0.86019250
   0.25078043  0.25126242  0.49961476
   0.74635760  0.24916647  0.49996187
   0.74861493  0.74802600  0.50233974
   0.24781285  0.75231396  0.50238064
   0.49640747  0.50024251  0.99853947
   0.99790890  0.50248118  0.00010874
   0.49975544  0.00002424  0.99854887
   0.99865432  0.99777043  0.00013160
   0.46320504  0.00546451  0.17839134
   0.53638643  0.98430839  0.82702812
   0.02399440  0.54956736  0.83033116
   0.96064075  0.48975851  0.17809516
   0.53308574  0.49480045  0.17837476
   0.46119152  0.51652505  0.82671314
   0.25236846  0.79047847  0.67464947
   0.03591245  0.01046445  0.17811120
   0.24015707  0.28836573  0.32259475
   0.74988594  0.78427939  0.32194298
   0.74391597  0.70983436  0.67466201
   0.75629875  0.21193013  0.32244762
   0.71061221  0.27393622  0.67011023
   0.24650990  0.71591443  0.32202679
   0.97078157  0.95106766  0.83048845
   0.99762361  0.25008472  0.99405170
   0.49812469  0.25018151  0.48216466
   0.24953544  0.00576775  0.98340222
   0.24757968  0.50049538  0.01915208
   0.74880344  0.00021876  0.01910009
   0.74684428  0.49375980  0.98325479
   0.33943883  0.23183724  0.68224472
   0.99813077  0.75012895  0.02061573
   0.49827560  0.74999592  0.49392288
   0.49888494  0.25008791  0.00057566
   0.24827411  0.00158113  0.48163658
   0.24442511  0.50156816  0.51736040
   0.75217883  0.99803852  0.51693747
   0.74811738  0.49927804  0.48137992
   0.99881407  0.25014485  0.50258133
   0.99812030  0.74997731  0.49625189
   0.49824653  0.75012884  0.01045606
   0.02926315  0.24707687  0.73683919
Direct configuration=     3
   0.24662239  0.26804813  0.85795112
   0.00608733  0.49903582  0.36279499
   0.98402165  0.49610074  0.64365634
   0.50065638  0.49448980  0.64119527
   0.48750711  0.50135962  0.36199919
   0.98949673  0.00130406  0.36270980
   0.00850980  0.00159887  0.64292750
   0.74684563  0.73846373  0.13881772
   0.50905055  0.99903994  0.36195543
   0.74886905  0.25760766  0.13762731
   0.75621583  0.23244978  0.85489555
   0.24918021  0.76179899  0.13880035
   0.24467995  0.75269039  0.86013041
   0.24711900  0.24261686  0.13747079
   0.50135049  0.00114553  0.64061956
   0.75093640  0.74708668  0.86014385
   0.25157003  0.25162505  0.49903076
   0.74645398  0.24929927  0.50006894
   0.74840310  0.74782385  0.50228976
   0.24770490  0.75214343  0.50250263
   0.49645657  0.50037427  0.99858781
   0.99770407  0.50256512  0.00003076
   0.49960389 -0.00009658  0.99861955
   0.99832545  0.99766721  0.00008482
   0.46293199  0.00574177  0.17848744
   0.53741309  0.98434905  0.82745840
   0.02350974  0.54994585  0.83069790
   0.96054432  0.48984731  0.17818084
   0.53298097  0.49459871  0.17843158
   0.46227374  0.51738790  0.82690662
   0.25193289  0.79032591  0.67469355
   0.03564378  0.01047416  0.17821166
   0.24039704  0.28828351  0.32261681
   0.74958649  0.78430990  0.32186069
   0.74421593  0.71034028  0.67470819
   0.75566014  0.21178366  0.32240266
   0.71183109  0.27496728  0.67105340
   0.24640988  0.71596375  0.32209664
   0.96876708  0.95100422  0.83088847
   0.99626110  0.24999033  0.99370846
   0.49819741  0.25017565  0.48214339
   0.24927411  0.00526258  0.98375474
   0.24745519  0.50076305  0.01946824
   0.74857480  0.00044007  0.01899053
   0.74674575  0.49327964  0.98308371
   0.34155154  0.23426245  0.68090912
   0.99792832  0.75015759  0.02034468
   0.49811594  0.74975406  0.49376273
   0.50011213  0.25001334 -0.00000074
   0.24803308  0.00241103  0.48230537
   0.24446119  0.50071198  0.51763699
   0.75204645  0.99804078  0.51651061
   0.74792107  0.49923665  0.48120282
   0.99960161  0.24995211  0.50197339
   0.99791670  0.74971922  0.49564769
   0.49806370  0.75015200  0.01072372
   0.02668726  0.24806611  0.73744524
Direct configuration=     4
   0.24757857  0.26880470  0.85776978
   0.00603468  0.49903264  0.36279648
   0.98386873  0.49577195  0.64373961
   0.50123300  0.49349648  0.64137817
   0.48749856  0.50132065  0.36201835
   0.98924839  0.00138365  0.36259633
   0.00723245  0.00049405  0.64290707
   0.74673348  0.73845283  0.13872061
   0.50880542  0.99922174  0.36190702
   0.74851038  0.25765928  0.13739084
   0.75896325  0.23175453  0.85456718
   0.24893207  0.76182260  0.13886800
   0.24441834  0.75254601  0.86012160
   0.24705911  0.24245717  0.13766634
   0.50224725  0.00022946  0.64096609
   0.75041572  0.74659544  0.86054855
   0.25199096  0.25175518  0.49865133
   0.74679105  0.24952430  0.50011561
   0.74818451  0.74745191  0.50202444
   0.24769114  0.75193035  0.50255445
   0.49676117  0.50037676  0.99862794
   0.99733687  0.50260965  0.00003305
   0.49973831 -0.00005938  0.99861999
   0.99789111  0.99758251  0.00012753
   0.46260885  0.00610076  0.17856634
   0.53833734  0.98431590  0.82753128
   0.02313272  0.55061046  0.83102384
   0.96048669  0.48990518  0.17824517
   0.53285548  0.49438092  0.17847067
   0.46301869  0.51832149  0.82721448
   0.25137870  0.79037028  0.67471143
   0.03541924  0.01057249  0.17826758
   0.24065759  0.28814410  0.32251381
   0.74928401  0.78437715  0.32178578
   0.74468985  0.71140774  0.67456123
   0.75510683  0.21158548  0.32243506
   0.71263066  0.27589037  0.67128543
   0.24630076  0.71603902  0.32218666
   0.96702509  0.95101885  0.83097988
   0.99557665  0.24993215  0.99337361
   0.49874815  0.25004010  0.48190654
   0.24904648  0.00499345  0.98399666
   0.24738574  0.50074392  0.01967780
   0.74838833  0.00039581  0.01909563
   0.74671285  0.49303878  0.98303361
   0.34293241  0.23584805  0.68014239
   0.99774959  0.75019712  0.02020058
   0.49786577  0.74967500  0.49366953
   0.50084358  0.24998182 -0.00050261
   0.24782685  0.00270658  0.48307925
   0.24444293  0.50047926  0.51785934
   0.75200685  0.99817046  0.51620812
   0.74784691  0.49899052  0.48106486
   0.99998825  0.24964315  0.50150485
   0.99790488  0.74959957  0.49515231
   0.49785160  0.75019217  0.01100853
   0.02520120  0.24806758  0.73824973
Direct configuration=     5
   0.24998791  0.26997896  0.85725914
   0.00597427  0.49910926  0.36269539
   0.98376849  0.49515188  0.64376120
   0.50235705  0.49285800  0.64127495
   0.48768069  0.50146176  0.36195391
   0.98887057  0.00148281  0.36258366
   0.00533907 -0.00166437  0.64288425
   0.74648328  0.73838789  0.13892627
   0.50833291  0.99947570  0.36205723
   0.74767924  0.25775514  0.13707357
   0.76377035  0.22997729  0.85463982
   0.24847810  0.76177008  0.13898359
   0.24393779  0.75265866  0.86047039
   0.24702522  0.24222042  0.13765080
   0.50297438 -0.00092853  0.64139471
   0.74900003  0.74525964  0.86107991
   0.25288681  0.25172606  0.49795960
   0.74746482  0.24932731  0.49986619
   0.74799573  0.74734712  0.50133222
   0.24754532  0.75184888  0.50260663
   0.49674412  0.50012005  0.99883846
   0.99741066  0.50249288  0.00034176
   0.49960065  0.00029107  0.99844544
   0.99764933  0.99758885  0.00029713
   0.46180205  0.00702580  0.17855752
   0.53996569  0.98435026  0.82733877
   0.02248570  0.55193372  0.83133550
   0.96036585  0.48993646  0.17828899
   0.53261323  0.49389048  0.17845211
   0.46384665  0.52036146  0.82776664
   0.25003456  0.79089326  0.67499226
   0.03502125  0.01092140  0.17820043
   0.24116632  0.28771003  0.32240213
   0.74859949  0.78441968  0.32152481
   0.74607218  0.71427984  0.67412663
   0.75437482  0.21112487  0.32221276
   0.71377096  0.27765913  0.67079213
   0.24608489  0.71624551  0.32231958
   0.96362862  0.95102832  0.83101248
   0.99541789  0.24984949  0.99263898
   0.49950568  0.24972839  0.48110792
   0.24881592  0.00490858  0.98410641
   0.24736145  0.50027820  0.01986079
   0.74813245 -0.00019874  0.01974718
   0.74681302  0.49273956  0.98328709
   0.34346303  0.23782404  0.67945837
   0.99736284  0.75023598  0.02022432
   0.49758336  0.74964091  0.49359298
   0.50168314  0.24993744 -0.00146936
   0.24750774  0.00260109  0.48486691
   0.24424053  0.50024944  0.51829093
   0.75196535  0.99818396  0.51582493
   0.74806503  0.49862935  0.48080482
   1.00053576  0.24908002  0.50102577
   0.99783843  0.74935807  0.49429467
   0.49743421  0.75034606  0.01162674
   0.02390116  0.24708126  0.74022731
Direct configuration=     6
   0.25238033  0.27058010  0.85642632
   0.00645027  0.49865747  0.36255320
   0.98424787  0.49281869  0.64452595
   0.50304443  0.49290105  0.64128018
   0.48780256  0.50152226  0.36164435
   0.98929267  0.00197258  0.36237874
   0.00484700 -0.00216056  0.64398736
   0.74630869  0.73845484  0.13846731
   0.50746174  0.99968468  0.36168817
   0.74717019  0.25741962  0.13681520
   0.76695662  0.22795384  0.85419965
   0.24824155  0.76203876  0.13907369
   0.24285566  0.75290249  0.86077630
   0.24695417  0.24166076  0.13757976
   0.50184090  0.00020841  0.64193204
   0.74805709  0.74392383  0.86130828
   0.25214650  0.25162080  0.49775567
   0.74757576  0.24944938  0.49928534
   0.74809425  0.74703927  0.50056106
   0.24746137  0.75085856  0.50273280
   0.49776962  0.50060544  0.99908547
   0.99684268  0.50259411  0.00060276
   0.50041338 -0.00002416  0.99827307
   0.99709343  0.99711569  0.00066630
   0.46084682  0.00806783  0.17868464
   0.54068854  0.98460382  0.82691323
   0.02203030  0.55316158  0.83105179
   0.96053271  0.48978951  0.17837594
   0.53209372  0.49331612  0.17849591
   0.46390495  0.52283425  0.82746623
   0.24888817  0.79165470  0.67549201
   0.03492153  0.01136511  0.17821968
   0.24142467  0.28717472  0.32243583
   0.74784711  0.78434654  0.32182383
   0.74755123  0.71750307  0.67314555
   0.75447872  0.21042439  0.32191276
   0.71416866  0.27949829  0.66961178
   0.24601636  0.71657804  0.32243349
   0.96053831  0.95022554  0.83143210
   0.99692824  0.24978649  0.99233134
   0.50030874  0.24962621  0.48011380
   0.24876713  0.00530902  0.98363488
   0.24751318  0.49987725  0.01997103
   0.74796033 -0.00088568  0.02091786
   0.74697008  0.49235189  0.98434437
   0.34282891  0.23794053  0.67886354
   0.99761650  0.75010166  0.02081421
   0.49748769  0.74957745  0.49374766
   0.50188716  0.24997541 -0.00216109
   0.24746836  0.00243594  0.48640883
   0.24425028  0.50065735  0.51848870
   0.75175592  0.99815199  0.51535316
   0.74852554  0.49878249  0.48050589
   1.00118988  0.24853198  0.50106351
   0.99784780  0.74915747  0.49356784
   0.49665201  0.75034098  0.01228428
   0.02321778  0.24589027  0.74187219
Direct configuration=     7
   0.25407904  0.27077783  0.85714181
   0.00657981  0.49870240  0.36262327
   0.98428089  0.49271564  0.64390453
   0.50321561  0.49435064  0.64042469
   0.48805427  0.50172931  0.36163547
   0.98947062  0.00176689  0.36283181
   0.00464929 -0.00352863  0.64341320
   0.74636719  0.73819342  0.13916059
   0.50725102  0.99940439  0.36200786
   0.74722476  0.25737005  0.13691234
   0.76748007  0.22687529  0.85444991
   0.24826350  0.76192915  0.13937837
   0.24255635  0.75308515  0.86109223
   0.24694527  0.24179082  0.13736004
   0.50160601  0.00002171  0.64091483
   0.74722852  0.74297730  0.86058203
   0.25330138  0.25173666  0.49757121
   0.74810381  0.24932081  0.49858860
   0.74834779  0.74770611  0.50021191
   0.24723754  0.75146605  0.50276666
   0.49720361  0.50015132  0.99941084
   0.99755160  0.50211991  0.00097474
   0.50016450  0.00026878  0.99806405
   0.99737577  0.99731920  0.00103702
   0.46025137  0.00861867  0.17842366
   0.54097298  0.98514604  0.82700665
   0.02140882  0.55350992  0.83089345
   0.96071911  0.48954330  0.17829429
   0.53176216  0.49296168  0.17829650
   0.46373636  0.52414523  0.82703958
   0.24827675  0.79232191  0.67608141
   0.03511860  0.01156816  0.17799093
   0.24124222  0.28664237  0.32245274
   0.74731252  0.78416395  0.32154104
   0.74848215  0.71879318  0.67302884
   0.75506111  0.21009475  0.32161067
   0.71426021  0.28042930  0.66925209
   0.24619960  0.71687567  0.32234916
   0.95904713  0.94982888  0.83204210
   0.99805747  0.24966832  0.99203803
   0.49940808  0.24989009  0.47968076
   0.24898570  0.00564119  0.98294569
   0.24781606  0.49985666  0.01964649
   0.74816908 -0.00134945  0.02169293
   0.74726340  0.49221121  0.98494746
   0.34102976  0.23827455  0.67878350
   0.99792932  0.74984488  0.02120800
   0.49736884  0.74933689  0.49404177
   0.50188147  0.25015524 -0.00264513
   0.24755661  0.00164876  0.48715967
   0.24435026  0.50026743  0.51877498
   0.75169525  0.99840384  0.51526796
   0.74887220  0.49860642  0.48029948
   1.00021609  0.24829056  0.50163435
   0.99815604  0.74907960  0.49330582
   0.49636205  0.75041268  0.01252791
   0.02290899  0.24481804  0.74314493
Direct configuration=     8
   0.25327822  0.27043092  0.85713235
   0.00660281  0.49863977  0.36254773
   0.98428779  0.49262383  0.64408336
   0.50283505  0.49445131  0.64051102
   0.48805642  0.50173624  0.36154517
   0.98956307  0.00175472  0.36275027
   0.00506918 -0.00292407  0.64367050
   0.74652386  0.73807424  0.13896258
   0.50746465  0.99930371  0.36186067
   0.74756309  0.25732427  0.13687064
   0.76639245  0.22723590  0.85441918
   0.24844477  0.76192535  0.13915589
   0.24263173  0.75302331  0.86113441
   0.24696304  0.24195046  0.13731897
   0.50137125  0.00049263  0.64097526
   0.74744353  0.74309126  0.86042630
   0.25254996  0.25148637  0.49784996
   0.74739215  0.24924089  0.49856641
   0.74840406  0.74780602  0.50039242
   0.24735891  0.75132225  0.50280933
   0.49722654  0.50033269  0.99940253
   0.99775412  0.50213121  0.00090205
   0.50007231  0.00023136  0.99805676
   0.99773495  0.99721245  0.00099421
   0.46037907  0.00845431  0.17850602
   0.54062755  0.98530897  0.82692058
   0.02128452  0.55320750  0.83080110
   0.96092858  0.48942860  0.17842748
   0.53167868  0.49298580  0.17837445
   0.46362235  0.52379678  0.82682847
   0.24859465  0.79237247  0.67585434
   0.03535292  0.01146366  0.17811962
   0.24092405  0.28665650  0.32256486
   0.74736281  0.78410865  0.32166429
   0.74825319  0.71808320  0.67294117
   0.75538275  0.21015729  0.32175934
   0.71376763  0.28026948  0.66927427
   0.24639745  0.71687522  0.32247472
   0.95969458  0.94977186  0.83205300
   0.99816353  0.24970757  0.99224235
   0.49979078  0.24998499  0.47979491
   0.24904907  0.00575510  0.98282490
   0.24780057  0.49998792  0.01947691
   0.74818120 -0.00121816  0.02178678
   0.74719547  0.49230955  0.98497896
   0.34073667  0.23801049  0.67884172
   0.99813494  0.74977463  0.02135125
   0.49747044  0.74931237  0.49410908
   0.50171785  0.25014201 -0.00243331
   0.24770539  0.00193749  0.48671331
   0.24432529  0.50050918  0.51860412
   0.75164871  0.99851672  0.51525573
   0.74882942  0.49885985  0.48022942
   1.00057738  0.24836431  0.50183442
   0.99813652  0.74915805  0.49346376
   0.49654132  0.75031346  0.01244873
   0.02317678  0.24468721  0.74279107
Direct configuration=     9
   0.25296439  0.27030487  0.85708047
   0.00665777  0.49857905  0.36258316
   0.98422166  0.49235789  0.64413153
   0.50262518  0.49456340  0.64047388
   0.48803275  0.50177504  0.36152850
   0.98968646  0.00175815  0.36272926
   0.00517596 -0.00279361  0.64380852
   0.74665204  0.73797685  0.13885630
   0.50752263  0.99921281  0.36175928
   0.74777641  0.25721296  0.13688023
   0.76607432  0.22724522  0.85433013
   0.24861994  0.76197149  0.13921369
   0.24256935  0.75292482  0.86108014
   0.24701544  0.24201868  0.13741618
   0.50117238  0.00084451  0.64097291
   0.74745486  0.74297391  0.86028212
   0.25255560  0.25154693  0.49795207
   0.74750799  0.24938021  0.49846440
   0.74844127  0.74784455  0.50044614
   0.24736559  0.75135218  0.50282943
   0.49733622  0.50036096  0.99941552
   0.99769167  0.50215159  0.00086057
   0.50018889  0.00018050  0.99806944
   0.99772416  0.99711107  0.00101520
   0.46028838  0.00847945  0.17851454
   0.54058229  0.98547087  0.82686136
   0.02103509  0.55310672  0.83076934
   0.96119473  0.48927052  0.17847186
   0.53150239  0.49287744  0.17836293
   0.46362627  0.52394160  0.82673703
   0.24870502  0.79255175  0.67582084
   0.03562692  0.01142009  0.17815970
   0.24065773  0.28657049  0.32261649
   0.74726379  0.78401853  0.32168447
   0.74827864  0.71788069  0.67281991
   0.75564364  0.21014598  0.32178413
   0.71355109  0.28044537  0.66928854
   0.24661381  0.71694565  0.32251235
   0.95967069  0.94961777  0.83217711
   0.99823491  0.24970405  0.99231487
   0.49946191  0.25004247  0.47978410
   0.24913329  0.00584835  0.98263802
   0.24788347  0.50007818  0.01928140
   0.74822128 -0.00120310  0.02202089
   0.74724988  0.49234975  0.98511944
   0.34055533  0.23801368  0.67883922
   0.99837617  0.74968543  0.02150287
   0.49756663  0.74930548  0.49419998
   0.50171210  0.25021168 -0.00241696
   0.24786033  0.00196961  0.48657267
   0.24425498  0.50048824  0.51852061
   0.75155411  0.99853343  0.51520758
   0.74884853  0.49897979  0.48009285
   1.00044377  0.24834084  0.50202781
   0.99812221  0.74921944  0.49349192
   0.49660148  0.75032603  0.01245382
   0.02306225  0.24445982  0.74280499
Direct configuration=    10
   0.25296439  0.27030487  0.85708047
   0.00665777  0.49857905  0.36258316
   0.98422166  0.49235789  0.64413153
   0.50262518  0.49456340  0.64047388
   0.48803275  0.50177504  0.36152850
   0.98968646  0.00175815  0.36272926
   0.00517596 -0.00279361  0.64380852
   0.74665204  0.73797685  0.13885630
   0.50752263  0.99921281  0.36175928
   0.74777641  0.25721296  0.13688023
   0.76607432  0.22724522  0.85433013
   0.24861994  0.76197149  0.13921369
   0.24256935  0.75292482  0.86108014
   0.24701544  0.24201868  0.13741618
   0.50117238  0.00084451  0.64097291
   0.74745486  0.74297391  0.86028212
   0.25255560  0.25154693  0.49795207
   0.74750799  0.24938021  0.49846440
   0.74844127  0.74784455  0.50044614
   0.24736559  0.75135218  0.50282943
   0.49733622  0.50036096  0.99941552
   0.99769167  0.50215159  0.00086057
   0.50018889  0.00018050  0.99806944
   0.99772416  0.99711107  0.00101520
   0.46028838  0.00847945  0.17851454
   0.54058229  0.98547087  0.82686136
   0.02103509  0.55310672  0.83076934
   0.96119473  0.48927052  0.17847186
   0.53150239  0.49287744  0.17836293
   0.46362627  0.52394160  0.82673703
   0.24870502  0.79255175  0.67582084
   0.03562692  0.01142009  0.17815970
   0.24065773  0.28657049  0.32261649
   0.74726379  0.78401853  0.32168447
   0.74827864  0.71788069  0.67281991
   0.75564364  0.21014598  0.32178413
   0.71355109  0.28044537  0.66928854
   0.24661381  0.71694565  0.32251235
   0.95967069  0.94961777  0.83217711
   0.99823491  0.24970405  0.99231487
   0.49946191  0.25004247  0.47978410
   0.24913329  0.00584835  0.98263802
   0.24788347  0.50007818  0.01928140
   0.74822128 -0.00120310  0.02202089
   0.74724988  0.49234975  0.98511944
   0.34055533  0.23801368  0.67883922
   0.99837617  0.74968543  0.02150287
   0.49756663  0.74930548  0.49419998
   0.50171210  0.25021168 -0.00241696
   0.24786033  0.00196961  0.48657267
   0.24425498  0.50048824  0.51852061
   0.75155411  0.99853343  0.51520758
   0.74884853  0.49897979  0.48009285
   1.00044377  0.24834084  0.50202781
   0.99812221  0.74921944  0.49349192
   0.49660148  0.75032603  0.01245382
   0.02306225  0.24445982  0.74280499
