   8   8   0   0
  0.2097135E+02  0.5515338E-09  0.5515338E-09  0.5515338E-09  0.5000000E-15
   1.0000000000000000E-004
  CAR 
 unknown system                          
     11.66740826     -8.27800082  301      5.46632282      1.00000000
     -8.278  0.0000E+00  0.0000E+00
     -8.212  0.0000E+00  0.0000E+00
     -8.145  0.0000E+00  0.0000E+00
     -8.079  0.0000E+00  0.0000E+00
     -8.012  0.0000E+00  0.0000E+00
     -7.946  0.0000E+00  0.0000E+00
     -7.879 -0.7987E-28 -0.5310E-29
     -7.813 -0.1396E-25 -0.9337E-27
     -7.746 -0.1962E-23 -0.1314E-24
     -7.680 -0.2204E-21 -0.1479E-22
     -7.613 -0.1980E-19 -0.1331E-20
     -7.547 -0.1422E-17 -0.9588E-19
     -7.480 -0.8159E-16 -0.5520E-17
     -7.414 -0.3618E-14 -0.2460E-15
     -7.347 -0.1320E-12 -0.9019E-14
     -7.281 -0.3830E-11 -0.2636E-12
     -7.214 -0.8847E-10 -0.6145E-11
     -7.148 -0.1625E-08 -0.1142E-09
     -7.081 -0.2368E-07 -0.1689E-08
     -7.015 -0.2733E-06 -0.1986E-07
     -6.948 -0.2493E-05 -0.1856E-06
     -6.882 -0.1790E-04 -0.1376E-05
     -6.815 -0.1009E-03 -0.8081E-05
     -6.749 -0.4437E-03 -0.3758E-04
     -6.682 -0.1516E-02 -0.1384E-03
     -6.616 -0.3991E-02 -0.4037E-03
     -6.549 -0.7964E-02 -0.9332E-03
     -6.483 -0.1138E-01 -0.1690E-02
     -6.416 -0.8246E-02 -0.2238E-02
     -6.350  0.1320E-01 -0.1360E-02
     -6.283  0.7136E-01  0.3384E-02
     -6.217  0.1855E+00  0.1572E-01
     -6.150  0.3628E+00  0.3984E-01
     -6.084  0.5880E+00  0.7893E-01
     -6.018  0.8200E+00  0.1334E+00
     -5.951  0.9914E+00  0.1994E+00
     -5.885  0.1035E+01  0.2682E+00
     -5.818  0.9364E+00  0.3304E+00
     -5.752  0.7625E+00  0.3811E+00
     -5.685  0.6409E+00  0.4237E+00
     -5.619  0.7216E+00  0.4717E+00
     -5.552  0.1094E+01  0.5445E+00
     -5.486  0.1683E+01  0.6564E+00
     -5.419  0.2240E+01  0.8053E+00
     -5.353  0.2476E+01  0.9699E+00
     -5.286  0.2232E+01  0.1118E+01
     -5.220  0.1590E+01  0.1224E+01
     -5.153  0.8867E+00  0.1283E+01
     -5.087  0.5420E+00  0.1319E+01
     -5.020  0.7565E+00  0.1369E+01
     -4.954  0.1369E+01  0.1460E+01
     -4.887  0.2002E+01  0.1593E+01
     -4.821  0.2360E+01  0.1750E+01
     -4.754  0.2454E+01  0.1913E+01
     -4.688  0.2535E+01  0.2082E+01
     -4.621  0.2741E+01  0.2264E+01
     -4.555  0.2863E+01  0.2455E+01
     -4.488  0.2583E+01  0.2626E+01
     -4.422  0.1987E+01  0.2758E+01
     -4.355  0.1698E+01  0.2871E+01
     -4.289  0.2309E+01  0.3025E+01
     -4.222  0.3626E+01  0.3266E+01
     -4.156  0.4711E+01  0.3579E+01
     -4.089  0.4752E+01  0.3895E+01
     -4.023  0.3740E+01  0.4144E+01
     -3.956  0.2283E+01  0.4296E+01
     -3.890  0.1087E+01  0.4368E+01
     -3.824  0.6817E+00  0.4413E+01
     -3.757  0.1272E+01  0.4498E+01
     -3.691  0.2567E+01  0.4668E+01
     -3.624  0.3888E+01  0.4927E+01
     -3.558  0.4685E+01  0.5238E+01
     -3.491  0.4963E+01  0.5568E+01
     -3.425  0.5091E+01  0.5907E+01
     -3.358  0.5183E+01  0.6251E+01
     -3.292  0.4845E+01  0.6573E+01
     -3.225  0.3720E+01  0.6821E+01
     -3.159  0.2101E+01  0.6960E+01
     -3.092  0.7725E+00  0.7012E+01
     -3.026  0.3145E+00  0.7033E+01
     -2.959  0.6663E+00  0.7077E+01
     -2.893  0.1251E+01  0.7160E+01
     -2.826  0.1465E+01  0.7258E+01
     -2.760  0.1160E+01  0.7335E+01
     -2.693  0.6890E+00  0.7381E+01
     -2.627  0.4511E+00  0.7410E+01
     -2.560  0.4872E+00  0.7443E+01
     -2.494  0.6103E+00  0.7483E+01
     -2.427  0.8196E+00  0.7538E+01
     -2.361  0.1354E+01  0.7628E+01
     -2.294  0.2252E+01  0.7778E+01
     -2.228  0.3045E+01  0.7980E+01
     -2.161  0.3145E+01  0.8189E+01
     -2.095  0.2493E+01  0.8355E+01
     -2.028  0.1609E+01  0.8462E+01
     -1.962  0.9909E+00  0.8528E+01
     -1.895  0.6687E+00  0.8572E+01
     -1.829  0.4192E+00  0.8600E+01
     -1.763  0.1976E+00  0.8613E+01
     -1.696  0.1926E+00  0.8626E+01
     -1.630  0.5170E+00  0.8660E+01
     -1.563  0.9713E+00  0.8725E+01
     -1.497  0.1255E+01  0.8809E+01
     -1.430  0.1494E+01  0.8908E+01
     -1.364  0.2323E+01  0.9062E+01
     -1.297  0.4074E+01  0.9333E+01
     -1.231  0.6013E+01  0.9733E+01
     -1.164  0.6858E+01  0.1019E+02
     -1.098  0.6129E+01  0.1060E+02
     -1.031  0.4611E+01  0.1090E+02
     -0.965  0.3457E+01  0.1113E+02
     -0.898  0.3193E+01  0.1135E+02
     -0.832  0.3623E+01  0.1159E+02
     -0.765  0.4284E+01  0.1187E+02
     -0.699  0.4730E+01  0.1219E+02
     -0.632  0.4554E+01  0.1249E+02
     -0.566  0.3561E+01  0.1272E+02
     -0.499  0.2051E+01  0.1286E+02
     -0.433  0.6721E+00  0.1291E+02
     -0.366 -0.1055E+00  0.1290E+02
     -0.300 -0.2401E+00  0.1288E+02
     -0.233  0.9225E-01  0.1289E+02
     -0.167  0.6785E+00  0.1293E+02
     -0.100  0.1258E+01  0.1302E+02
     -0.034  0.1655E+01  0.1313E+02
      0.033  0.1999E+01  0.1326E+02
      0.099  0.2520E+01  0.1343E+02
      0.166  0.3027E+01  0.1363E+02
      0.232  0.2963E+01  0.1383E+02
      0.299  0.2112E+01  0.1397E+02
      0.365  0.9655E+00  0.1403E+02
      0.431  0.2403E+00  0.1405E+02
      0.498  0.2651E+00  0.1406E+02
      0.564  0.8208E+00  0.1412E+02
      0.631  0.1368E+01  0.1421E+02
      0.697  0.1466E+01  0.1431E+02
      0.764  0.1147E+01  0.1438E+02
      0.830  0.8222E+00  0.1444E+02
      0.897  0.7738E+00  0.1449E+02
      0.963  0.8865E+00  0.1455E+02
      1.030  0.1017E+01  0.1462E+02
      1.096  0.1388E+01  0.1471E+02
      1.163  0.2260E+01  0.1486E+02
      1.229  0.3290E+01  0.1508E+02
      1.296  0.3664E+01  0.1532E+02
      1.362  0.3074E+01  0.1553E+02
      1.429  0.2192E+01  0.1567E+02
      1.495  0.1967E+01  0.1580E+02
      1.562  0.2738E+01  0.1598E+02
      1.628  0.4150E+01  0.1626E+02
      1.695  0.5595E+01  0.1663E+02
      1.761  0.6527E+01  0.1707E+02
      1.828  0.6625E+01  0.1751E+02
      1.894  0.5961E+01  0.1790E+02
      1.961  0.4959E+01  0.1823E+02
      2.027  0.4046E+01  0.1850E+02
      2.094  0.3396E+01  0.1873E+02
      2.160  0.3052E+01  0.1893E+02
      2.227  0.3007E+01  0.1913E+02
      2.293  0.3108E+01  0.1934E+02
      2.360  0.3302E+01  0.1956E+02
      2.426  0.3973E+01  0.1982E+02
      2.493  0.5483E+01  0.2019E+02
      2.559  0.7345E+01  0.2067E+02
      2.625  0.8474E+01  0.2124E+02
      2.692  0.8334E+01  0.2179E+02
      2.758  0.7384E+01  0.2228E+02
      2.825  0.6421E+01  0.2271E+02
      2.891  0.5907E+01  0.2310E+02
      2.958  0.5772E+01  0.2349E+02
      3.024  0.5478E+01  0.2385E+02
      3.091  0.4512E+01  0.2415E+02
      3.157  0.3212E+01  0.2436E+02
      3.224  0.2789E+01  0.2455E+02
      3.290  0.4087E+01  0.2482E+02
      3.357  0.6417E+01  0.2525E+02
      3.423  0.7986E+01  0.2578E+02
      3.490  0.7729E+01  0.2629E+02
      3.556  0.6465E+01  0.2672E+02
      3.623  0.5786E+01  0.2711E+02
      3.689  0.6052E+01  0.2751E+02
      3.756  0.6167E+01  0.2792E+02
      3.822  0.5313E+01  0.2827E+02
      3.889  0.4056E+01  0.2854E+02
      3.955  0.3461E+01  0.2877E+02
      4.022  0.3741E+01  0.2902E+02
      4.088  0.4225E+01  0.2930E+02
      4.155  0.4278E+01  0.2959E+02
      4.221  0.3908E+01  0.2985E+02
      4.288  0.3594E+01  0.3008E+02
      4.354  0.3697E+01  0.3033E+02
      4.421  0.4059E+01  0.3060E+02
      4.487  0.4106E+01  0.3087E+02
      4.554  0.3439E+01  0.3110E+02
      4.620  0.2332E+01  0.3126E+02
      4.687  0.1517E+01  0.3136E+02
      4.753  0.1394E+01  0.3145E+02
      4.819  0.1620E+01  0.3156E+02
      4.886  0.1571E+01  0.3166E+02
      4.952  0.1083E+01  0.3173E+02
      5.019  0.5455E+00  0.3177E+02
      5.085  0.3666E+00  0.3179E+02
      5.152  0.5423E+00  0.3183E+02
      5.218  0.7601E+00  0.3188E+02
      5.285  0.7696E+00  0.3193E+02
      5.351  0.5746E+00  0.3197E+02
      5.418  0.3252E+00  0.3199E+02
      5.484  0.1351E+00  0.3200E+02
      5.551  0.2763E-01  0.3200E+02
      5.617 -0.2019E-01  0.3200E+02
      5.684 -0.3756E-01  0.3200E+02
      5.750 -0.4088E-01  0.3200E+02
      5.817 -0.1917E-01  0.3200E+02
      5.883  0.6132E-01  0.3200E+02
      5.950  0.2198E+00  0.3201E+02
      6.016  0.4242E+00  0.3204E+02
      6.083  0.6051E+00  0.3208E+02
      6.149  0.7089E+00  0.3213E+02
      6.216  0.7298E+00  0.3218E+02
      6.282  0.7053E+00  0.3223E+02
      6.349  0.6999E+00  0.3227E+02
      6.415  0.7743E+00  0.3232E+02
      6.482  0.9589E+00  0.3239E+02
      6.548  0.1257E+01  0.3247E+02
      6.615  0.1641E+01  0.3258E+02
      6.681  0.2065E+01  0.3272E+02
      6.748  0.2525E+01  0.3288E+02
      6.814  0.3046E+01  0.3309E+02
      6.881  0.3509E+01  0.3332E+02
      6.947  0.3687E+01  0.3357E+02
      7.013  0.3574E+01  0.3380E+02
      7.080  0.3458E+01  0.3403E+02
      7.146  0.3510E+01  0.3427E+02
      7.213  0.3632E+01  0.3451E+02
      7.279  0.3854E+01  0.3476E+02
      7.346  0.4457E+01  0.3506E+02
      7.412  0.5494E+01  0.3543E+02
      7.479  0.6651E+01  0.3587E+02
      7.545  0.7722E+01  0.3638E+02
      7.612  0.8666E+01  0.3696E+02
      7.678  0.9035E+01  0.3756E+02
      7.745  0.8056E+01  0.3809E+02
      7.811  0.5737E+01  0.3848E+02
      7.878  0.3355E+01  0.3870E+02
      7.944  0.2319E+01  0.3885E+02
      8.011  0.2782E+01  0.3904E+02
      8.077  0.3674E+01  0.3928E+02
      8.144  0.3921E+01  0.3954E+02
      8.210  0.3362E+01  0.3977E+02
      8.277  0.2630E+01  0.3994E+02
      8.343  0.2428E+01  0.4010E+02
      8.410  0.3027E+01  0.4030E+02
      8.476  0.4371E+01  0.4059E+02
      8.543  0.6433E+01  0.4102E+02
      8.609  0.8966E+01  0.4162E+02
      8.676  0.1097E+02  0.4235E+02
      8.742  0.1123E+02  0.4309E+02
      8.809  0.9743E+01  0.4374E+02
      8.875  0.7834E+01  0.4426E+02
      8.942  0.6674E+01  0.4471E+02
      9.008  0.6148E+01  0.4512E+02
      9.075  0.5501E+01  0.4548E+02
      9.141  0.4443E+01  0.4578E+02
      9.207  0.3296E+01  0.4600E+02
      9.274  0.2459E+01  0.4616E+02
      9.340  0.2079E+01  0.4630E+02
      9.407  0.2146E+01  0.4644E+02
      9.473  0.2725E+01  0.4662E+02
      9.540  0.3829E+01  0.4688E+02
      9.606  0.4986E+01  0.4721E+02
      9.673  0.5275E+01  0.4756E+02
      9.739  0.4208E+01  0.4784E+02
      9.806  0.2341E+01  0.4799E+02
      9.872  0.7204E+00  0.4804E+02
      9.939 -0.9557E-01  0.4803E+02
     10.005 -0.2593E+00  0.4802E+02
     10.072 -0.1684E+00  0.4801E+02
     10.138 -0.6949E-01  0.4800E+02
     10.205 -0.2076E-01  0.4800E+02
     10.271 -0.4696E-02  0.4800E+02
     10.338 -0.8210E-03  0.4800E+02
     10.404 -0.1122E-03  0.4800E+02
     10.471 -0.1207E-04  0.4800E+02
     10.537 -0.1027E-05  0.4800E+02
     10.604 -0.6923E-07  0.4800E+02
     10.670 -0.3710E-08  0.4800E+02
     10.737 -0.1582E-09  0.4800E+02
     10.803 -0.5379E-11  0.4800E+02
     10.870 -0.1456E-12  0.4800E+02
     10.936 -0.3847E-14  0.4800E+02
     11.003  0.0000E+00  0.4800E+02
     11.069  0.0000E+00  0.4800E+02
     11.136  0.0000E+00  0.4800E+02
     11.202  0.0000E+00  0.4800E+02
     11.269  0.0000E+00  0.4800E+02
     11.335  0.0000E+00  0.4800E+02
     11.401  0.0000E+00  0.4800E+02
     11.468  0.0000E+00  0.4800E+02
     11.534  0.0000E+00  0.4800E+02
     11.601  0.0000E+00  0.4800E+02
     11.667  0.0000E+00  0.4800E+02
