   7   7   1   0
  0.1432189E+02  0.3975729E-09  0.3975729E-09  0.6937676E-09  0.5000000E-15
   1.0000000000000000E-004
  CAR 
 unknown system                          
     16.35181414    -61.15961300  301      9.16551959      1.00000000
    -61.160  0.0000E+00  0.0000E+00  0.0000E+00  0.0000E+00
    -60.901  0.0000E+00  0.0000E+00  0.0000E+00  0.0000E+00
    -60.643  0.0000E+00  0.0000E+00  0.0000E+00  0.0000E+00
    -60.384  0.0000E+00  0.0000E+00  0.0000E+00  0.0000E+00
    -60.126  0.0000E+00  0.0000E+00  0.0000E+00  0.0000E+00
    -59.868  0.0000E+00  0.0000E+00  0.0000E+00  0.0000E+00
    -59.609  0.0000E+00  0.0000E+00  0.0000E+00  0.0000E+00
    -59.351  0.0000E+00  0.0000E+00  0.0000E+00  0.0000E+00
    -59.093  0.0000E+00  0.0000E+00  0.0000E+00  0.0000E+00
    -58.834  0.0000E+00  0.0000E+00  0.0000E+00  0.0000E+00
    -58.576  0.0000E+00  0.0000E+00  0.0000E+00  0.0000E+00
    -58.318  0.0000E+00  0.0000E+00  0.0000E+00  0.0000E+00
    -58.059  0.0000E+00  0.0000E+00  0.0000E+00  0.0000E+00
    -57.801  0.0000E+00  0.0000E+00  0.0000E+00  0.0000E+00
    -57.542  0.3703E+03  0.0000E+00  0.1004E+01  0.0000E+00
    -57.284  0.7425E+01  0.0000E+00  0.3000E+01  0.0000E+00
    -57.026  0.0000E+00  0.0000E+00  0.3000E+01  0.0000E+00
    -56.767  0.0000E+00  0.0000E+00  0.3000E+01  0.0000E+00
    -56.509  0.0000E+00  0.0000E+00  0.3000E+01  0.0000E+00
    -56.251  0.0000E+00  0.0000E+00  0.3000E+01  0.0000E+00
    -55.992  0.0000E+00  0.0000E+00  0.3000E+01  0.0000E+00
    -55.734  0.0000E+00  0.0000E+00  0.3000E+01  0.0000E+00
    -55.475  0.0000E+00  0.0000E+00  0.3000E+01  0.0000E+00
    -55.217  0.0000E+00  0.1161E+02  0.3000E+01  0.3000E+01
    -54.959  0.0000E+00  0.0000E+00  0.3000E+01  0.3000E+01
    -54.700  0.0000E+00  0.0000E+00  0.3000E+01  0.3000E+01
    -54.442  0.0000E+00  0.0000E+00  0.3000E+01  0.3000E+01
    -54.184  0.0000E+00  0.0000E+00  0.3000E+01  0.3000E+01
    -53.925  0.0000E+00  0.0000E+00  0.3000E+01  0.3000E+01
    -53.667  0.0000E+00  0.0000E+00  0.3000E+01  0.3000E+01
    -53.408  0.0000E+00  0.0000E+00  0.3000E+01  0.3000E+01
    -53.150  0.0000E+00  0.0000E+00  0.3000E+01  0.3000E+01
    -52.892  0.0000E+00  0.0000E+00  0.3000E+01  0.3000E+01
    -52.633  0.0000E+00  0.0000E+00  0.3000E+01  0.3000E+01
    -52.375  0.0000E+00  0.0000E+00  0.3000E+01  0.3000E+01
    -52.117  0.0000E+00  0.0000E+00  0.3000E+01  0.3000E+01
    -51.858  0.0000E+00  0.0000E+00  0.3000E+01  0.3000E+01
    -51.600  0.0000E+00  0.0000E+00  0.3000E+01  0.3000E+01
    -51.341  0.0000E+00  0.0000E+00  0.3000E+01  0.3000E+01
    -51.083  0.0000E+00  0.0000E+00  0.3000E+01  0.3000E+01
    -50.825  0.0000E+00  0.0000E+00  0.3000E+01  0.3000E+01
    -50.566  0.0000E+00  0.0000E+00  0.3000E+01  0.3000E+01
    -50.308  0.0000E+00  0.0000E+00  0.3000E+01  0.3000E+01
    -50.050  0.0000E+00  0.0000E+00  0.3000E+01  0.3000E+01
    -49.791  0.0000E+00  0.0000E+00  0.3000E+01  0.3000E+01
    -49.533  0.0000E+00  0.0000E+00  0.3000E+01  0.3000E+01
    -49.275  0.0000E+00  0.0000E+00  0.3000E+01  0.3000E+01
    -49.016  0.0000E+00  0.0000E+00  0.3000E+01  0.3000E+01
    -48.758  0.0000E+00  0.0000E+00  0.3000E+01  0.3000E+01
    -48.499  0.0000E+00  0.0000E+00  0.3000E+01  0.3000E+01
    -48.241  0.0000E+00  0.0000E+00  0.3000E+01  0.3000E+01
    -47.983  0.0000E+00  0.0000E+00  0.3000E+01  0.3000E+01
    -47.724  0.0000E+00  0.0000E+00  0.3000E+01  0.3000E+01
    -47.466  0.0000E+00  0.0000E+00  0.3000E+01  0.3000E+01
    -47.208  0.0000E+00  0.0000E+00  0.3000E+01  0.3000E+01
    -46.949  0.0000E+00  0.0000E+00  0.3000E+01  0.3000E+01
    -46.691  0.0000E+00  0.0000E+00  0.3000E+01  0.3000E+01
    -46.432  0.0000E+00  0.0000E+00  0.3000E+01  0.3000E+01
    -46.174  0.0000E+00  0.0000E+00  0.3000E+01  0.3000E+01
    -45.916  0.0000E+00  0.0000E+00  0.3000E+01  0.3000E+01
    -45.657  0.0000E+00  0.0000E+00  0.3000E+01  0.3000E+01
    -45.399  0.0000E+00  0.0000E+00  0.3000E+01  0.3000E+01
    -45.141  0.0000E+00  0.0000E+00  0.3000E+01  0.3000E+01
    -44.882  0.0000E+00  0.0000E+00  0.3000E+01  0.3000E+01
    -44.624  0.0000E+00  0.0000E+00  0.3000E+01  0.3000E+01
    -44.365  0.0000E+00  0.0000E+00  0.3000E+01  0.3000E+01
    -44.107  0.0000E+00  0.0000E+00  0.3000E+01  0.3000E+01
    -43.849  0.0000E+00  0.0000E+00  0.3000E+01  0.3000E+01
    -43.590  0.0000E+00  0.0000E+00  0.3000E+01  0.3000E+01
    -43.332  0.0000E+00  0.0000E+00  0.3000E+01  0.3000E+01
    -43.074  0.0000E+00  0.0000E+00  0.3000E+01  0.3000E+01
    -42.815  0.0000E+00  0.0000E+00  0.3000E+01  0.3000E+01
    -42.557  0.0000E+00  0.0000E+00  0.3000E+01  0.3000E+01
    -42.298  0.0000E+00  0.0000E+00  0.3000E+01  0.3000E+01
    -42.040  0.0000E+00  0.0000E+00  0.3000E+01  0.3000E+01
    -41.782  0.0000E+00  0.0000E+00  0.3000E+01  0.3000E+01
    -41.523  0.0000E+00  0.0000E+00  0.3000E+01  0.3000E+01
    -41.265  0.0000E+00  0.0000E+00  0.3000E+01  0.3000E+01
    -41.007  0.0000E+00  0.0000E+00  0.3000E+01  0.3000E+01
    -40.748  0.0000E+00  0.0000E+00  0.3000E+01  0.3000E+01
    -40.490  0.0000E+00  0.0000E+00  0.3000E+01  0.3000E+01
    -40.232  0.0000E+00  0.0000E+00  0.3000E+01  0.3000E+01
    -39.973  0.0000E+00  0.0000E+00  0.3000E+01  0.3000E+01
    -39.715  0.0000E+00  0.0000E+00  0.3000E+01  0.3000E+01
    -39.456  0.0000E+00  0.0000E+00  0.3000E+01  0.3000E+01
    -39.198  0.0000E+00  0.0000E+00  0.3000E+01  0.3000E+01
    -38.940  0.0000E+00  0.0000E+00  0.3000E+01  0.3000E+01
    -38.681  0.0000E+00  0.0000E+00  0.3000E+01  0.3000E+01
    -38.423  0.0000E+00  0.0000E+00  0.3000E+01  0.3000E+01
    -38.165  0.0000E+00  0.0000E+00  0.3000E+01  0.3000E+01
    -37.906  0.0000E+00  0.0000E+00  0.3000E+01  0.3000E+01
    -37.648  0.0000E+00  0.0000E+00  0.3000E+01  0.3000E+01
    -37.389  0.0000E+00  0.0000E+00  0.3000E+01  0.3000E+01
    -37.131  0.0000E+00  0.0000E+00  0.3000E+01  0.3000E+01
    -36.873  0.0000E+00  0.0000E+00  0.3000E+01  0.3000E+01
    -36.614  0.0000E+00  0.0000E+00  0.3000E+01  0.3000E+01
    -36.356  0.0000E+00  0.0000E+00  0.3000E+01  0.3000E+01
    -36.098  0.0000E+00  0.0000E+00  0.3000E+01  0.3000E+01
    -35.839  0.0000E+00  0.0000E+00  0.3000E+01  0.3000E+01
    -35.581  0.0000E+00  0.0000E+00  0.3000E+01  0.3000E+01
    -35.322  0.0000E+00  0.0000E+00  0.3000E+01  0.3000E+01
    -35.064  0.0000E+00  0.0000E+00  0.3000E+01  0.3000E+01
    -34.806  0.0000E+00  0.0000E+00  0.3000E+01  0.3000E+01
    -34.547  0.0000E+00  0.0000E+00  0.3000E+01  0.3000E+01
    -34.289  0.0000E+00  0.0000E+00  0.3000E+01  0.3000E+01
    -34.031  0.0000E+00  0.0000E+00  0.3000E+01  0.3000E+01
    -33.772  0.0000E+00  0.0000E+00  0.3000E+01  0.3000E+01
    -33.514  0.0000E+00  0.0000E+00  0.3000E+01  0.3000E+01
    -33.255  0.0000E+00  0.0000E+00  0.3000E+01  0.3000E+01
    -32.997  0.0000E+00  0.0000E+00  0.3000E+01  0.3000E+01
    -32.739  0.0000E+00  0.0000E+00  0.3000E+01  0.3000E+01
    -32.480  0.0000E+00  0.0000E+00  0.3000E+01  0.3000E+01
    -32.222  0.0000E+00  0.0000E+00  0.3000E+01  0.3000E+01
    -31.964  0.0000E+00  0.0000E+00  0.3000E+01  0.3000E+01
    -31.705  0.0000E+00  0.0000E+00  0.3000E+01  0.3000E+01
    -31.447  0.0000E+00  0.0000E+00  0.3000E+01  0.3000E+01
    -31.189  0.0000E+00  0.0000E+00  0.3000E+01  0.3000E+01
    -30.930  0.0000E+00  0.0000E+00  0.3000E+01  0.3000E+01
    -30.672  0.0000E+00  0.0000E+00  0.3000E+01  0.3000E+01
    -30.413  0.0000E+00  0.0000E+00  0.3000E+01  0.3000E+01
    -30.155  0.0000E+00  0.0000E+00  0.3000E+01  0.3000E+01
    -29.897  0.0000E+00  0.0000E+00  0.3000E+01  0.3000E+01
    -29.638  0.0000E+00  0.0000E+00  0.3000E+01  0.3000E+01
    -29.380  0.0000E+00  0.0000E+00  0.3000E+01  0.3000E+01
    -29.122  0.0000E+00  0.0000E+00  0.3000E+01  0.3000E+01
    -28.863  0.0000E+00  0.0000E+00  0.3000E+01  0.3000E+01
    -28.605  0.0000E+00  0.0000E+00  0.3000E+01  0.3000E+01
    -28.346  0.0000E+00  0.0000E+00  0.3000E+01  0.3000E+01
    -28.088  0.0000E+00  0.0000E+00  0.3000E+01  0.3000E+01
    -27.830  0.0000E+00  0.0000E+00  0.3000E+01  0.3000E+01
    -27.571  0.0000E+00  0.0000E+00  0.3000E+01  0.3000E+01
    -27.313  0.0000E+00  0.0000E+00  0.3000E+01  0.3000E+01
    -27.055  0.0000E+00  0.0000E+00  0.3000E+01  0.3000E+01
    -26.796  0.0000E+00  0.0000E+00  0.3000E+01  0.3000E+01
    -26.538  0.0000E+00  0.0000E+00  0.3000E+01  0.3000E+01
    -26.279  0.0000E+00  0.0000E+00  0.3000E+01  0.3000E+01
    -26.021  0.0000E+00  0.0000E+00  0.3000E+01  0.3000E+01
    -25.763  0.0000E+00  0.0000E+00  0.3000E+01  0.3000E+01
    -25.504  0.0000E+00  0.0000E+00  0.3000E+01  0.3000E+01
    -25.246  0.0000E+00  0.0000E+00  0.3000E+01  0.3000E+01
    -24.988  0.0000E+00  0.0000E+00  0.3000E+01  0.3000E+01
    -24.729  0.0000E+00  0.0000E+00  0.3000E+01  0.3000E+01
    -24.471  0.0000E+00  0.0000E+00  0.3000E+01  0.3000E+01
    -24.212  0.9635E+01  0.1027E+02  0.4101E+01  0.4113E+01
    -23.954  0.2712E+01  0.2554E+01  0.5000E+01  0.5000E+01
    -23.696  0.0000E+00  0.0000E+00  0.5000E+01  0.5000E+01
    -23.437  0.0000E+00  0.0000E+00  0.5000E+01  0.5000E+01
    -23.179  0.0000E+00  0.0000E+00  0.5000E+01  0.5000E+01
    -22.921  0.0000E+00  0.0000E+00  0.5000E+01  0.5000E+01
    -22.662  0.0000E+00  0.0000E+00  0.5000E+01  0.5000E+01
    -22.404  0.0000E+00  0.0000E+00  0.5000E+01  0.5000E+01
    -22.146  0.0000E+00  0.0000E+00  0.5000E+01  0.5000E+01
    -21.887  0.0000E+00  0.0000E+00  0.5000E+01  0.5000E+01
    -21.629  0.0000E+00  0.0000E+00  0.5000E+01  0.5000E+01
    -21.370  0.0000E+00  0.0000E+00  0.5000E+01  0.5000E+01
    -21.112  0.0000E+00  0.0000E+00  0.5000E+01  0.5000E+01
    -20.854  0.0000E+00  0.0000E+00  0.5000E+01  0.5000E+01
    -20.595  0.0000E+00  0.0000E+00  0.5000E+01  0.5000E+01
    -20.337  0.0000E+00  0.0000E+00  0.5000E+01  0.5000E+01
    -20.079  0.0000E+00  0.0000E+00  0.5000E+01  0.5000E+01
    -19.820  0.0000E+00  0.0000E+00  0.5000E+01  0.5000E+01
    -19.562  0.0000E+00  0.0000E+00  0.5000E+01  0.5000E+01
    -19.303  0.0000E+00  0.0000E+00  0.5000E+01  0.5000E+01
    -19.045  0.0000E+00  0.0000E+00  0.5000E+01  0.5000E+01
    -18.787  0.0000E+00  0.0000E+00  0.5000E+01  0.5000E+01
    -18.528  0.0000E+00  0.0000E+00  0.5000E+01  0.5000E+01
    -18.270  0.0000E+00  0.0000E+00  0.5000E+01  0.5000E+01
    -18.012  0.0000E+00  0.0000E+00  0.5000E+01  0.5000E+01
    -17.753  0.0000E+00  0.0000E+00  0.5000E+01  0.5000E+01
    -17.495  0.0000E+00  0.0000E+00  0.5000E+01  0.5000E+01
    -17.236  0.0000E+00  0.0000E+00  0.5000E+01  0.5000E+01
    -16.978  0.0000E+00  0.0000E+00  0.5000E+01  0.5000E+01
    -16.720  0.0000E+00  0.0000E+00  0.5000E+01  0.5000E+01
    -16.461  0.0000E+00  0.0000E+00  0.5000E+01  0.5000E+01
    -16.203  0.0000E+00  0.0000E+00  0.5000E+01  0.5000E+01
    -15.945  0.0000E+00  0.0000E+00  0.5000E+01  0.5000E+01
    -15.686  0.0000E+00  0.0000E+00  0.5000E+01  0.5000E+01
    -15.428  0.0000E+00  0.0000E+00  0.5000E+01  0.5000E+01
    -15.169  0.0000E+00  0.0000E+00  0.5000E+01  0.5000E+01
    -14.911  0.0000E+00  0.0000E+00  0.5000E+01  0.5000E+01
    -14.653  0.0000E+00  0.0000E+00  0.5000E+01  0.5000E+01
    -14.394  0.0000E+00  0.0000E+00  0.5000E+01  0.5000E+01
    -14.136  0.0000E+00  0.0000E+00  0.5000E+01  0.5000E+01
    -13.878  0.0000E+00  0.0000E+00  0.5000E+01  0.5000E+01
    -13.619  0.0000E+00  0.0000E+00  0.5000E+01  0.5000E+01
    -13.361  0.0000E+00  0.0000E+00  0.5000E+01  0.5000E+01
    -13.103  0.0000E+00  0.0000E+00  0.5000E+01  0.5000E+01
    -12.844  0.0000E+00  0.0000E+00  0.5000E+01  0.5000E+01
    -12.586  0.0000E+00  0.0000E+00  0.5000E+01  0.5000E+01
    -12.327  0.0000E+00  0.0000E+00  0.5000E+01  0.5000E+01
    -12.069  0.0000E+00  0.0000E+00  0.5000E+01  0.5000E+01
    -11.811  0.0000E+00  0.0000E+00  0.5000E+01  0.5000E+01
    -11.552  0.1211E+01  0.0000E+00  0.5021E+01  0.5000E+01
    -11.294  0.2672E+01  0.1978E+01  0.5435E+01  0.5206E+01
    -11.036  0.1187E+01  0.2044E+01  0.5867E+01  0.5701E+01
    -10.777  0.6123E+01  0.2136E+01  0.6289E+01  0.6012E+01
    -10.519  0.1203E+01  0.2107E+01  0.6758E+01  0.6567E+01
    -10.260  0.4729E+01  0.3108E+01  0.7180E+01  0.6953E+01
    -10.002  0.4949E+01  0.3542E+01  0.8242E+01  0.7833E+01
     -9.744  0.1812E+01  0.3231E+01  0.8866E+01  0.8669E+01
     -9.485  0.1580E+00  0.5187E+00  0.9000E+01  0.8990E+01
     -9.227  0.0000E+00  0.0000E+00  0.9000E+01  0.9000E+01
     -8.969  0.0000E+00  0.0000E+00  0.9000E+01  0.9000E+01
     -8.710  0.0000E+00  0.0000E+00  0.9000E+01  0.9000E+01
     -8.452  0.0000E+00  0.0000E+00  0.9000E+01  0.9000E+01
     -8.193  0.1868E+01  0.1991E+01  0.9119E+01  0.9124E+01
     -7.935  0.8640E+01  0.8288E+01  0.1015E+02  0.1014E+02
     -7.677  0.8778E+01  0.8913E+01  0.1206E+02  0.1201E+02
     -7.418  0.3524E+01  0.4943E+01  0.1294E+02  0.1278E+02
     -7.160  0.1011E+01  0.8059E+00  0.1310E+02  0.1307E+02
     -6.902  0.9181E+01  0.9450E+01  0.1404E+02  0.1380E+02
     -6.643  0.2159E+01  0.2692E+01  0.1500E+02  0.1500E+02
     -6.385  0.0000E+00  0.0000E+00  0.1500E+02  0.1500E+02
     -6.126  0.0000E+00  0.0000E+00  0.1500E+02  0.1500E+02
     -5.868  0.0000E+00  0.0000E+00  0.1500E+02  0.1500E+02
     -5.610  0.0000E+00  0.0000E+00  0.1500E+02  0.1500E+02
     -5.351  0.0000E+00  0.0000E+00  0.1500E+02  0.1500E+02
     -5.093  0.0000E+00  0.0000E+00  0.1500E+02  0.1500E+02
     -4.835  0.0000E+00  0.0000E+00  0.1500E+02  0.1500E+02
     -4.576  0.0000E+00  0.0000E+00  0.1500E+02  0.1500E+02
     -4.318  0.0000E+00  0.0000E+00  0.1500E+02  0.1500E+02
     -4.060  0.0000E+00  0.0000E+00  0.1500E+02  0.1500E+02
     -3.801  0.0000E+00  0.0000E+00  0.1500E+02  0.1500E+02
     -3.543  0.0000E+00  0.0000E+00  0.1500E+02  0.1500E+02
     -3.284  0.0000E+00  0.0000E+00  0.1500E+02  0.1500E+02
     -3.026  0.0000E+00  0.0000E+00  0.1500E+02  0.1500E+02
     -2.768  0.0000E+00  0.0000E+00  0.1500E+02  0.1500E+02
     -2.509  0.0000E+00  0.0000E+00  0.1500E+02  0.1500E+02
     -2.251  0.0000E+00  0.0000E+00  0.1500E+02  0.1500E+02
     -1.993  0.0000E+00  0.0000E+00  0.1500E+02  0.1500E+02
     -1.734  0.0000E+00  0.0000E+00  0.1500E+02  0.1500E+02
     -1.476  0.0000E+00  0.0000E+00  0.1500E+02  0.1500E+02
     -1.217  0.0000E+00  0.0000E+00  0.1500E+02  0.1500E+02
     -0.959  0.0000E+00  0.0000E+00  0.1500E+02  0.1500E+02
     -0.701  0.0000E+00  0.0000E+00  0.1500E+02  0.1500E+02
     -0.442  0.0000E+00  0.0000E+00  0.1500E+02  0.1500E+02
     -0.184  0.2036E+01  0.0000E+00  0.1534E+02  0.1500E+02
      0.074  0.1070E+01  0.0000E+00  0.1561E+02  0.1500E+02
      0.333  0.8277E+00  0.0000E+00  0.1585E+02  0.1500E+02
      0.591  0.8460E+00  0.0000E+00  0.1606E+02  0.1500E+02
      0.850  0.8316E+00  0.0000E+00  0.1627E+02  0.1500E+02
      1.108  0.2230E+01  0.7945E+00  0.1667E+02  0.1502E+02
      1.366  0.9821E+00  0.4217E+00  0.1698E+02  0.1511E+02
      1.625  0.3179E+01  0.4689E+00  0.1736E+02  0.1522E+02
      1.883  0.4889E+01  0.5631E+00  0.1849E+02  0.1535E+02
      2.141  0.5527E+01  0.2919E+01  0.1960E+02  0.1577E+02
      2.400  0.2760E+01  0.3979E+01  0.2048E+02  0.1639E+02
      2.658  0.8874E+00  0.3252E+01  0.2067E+02  0.1744E+02
      2.917  0.8321E+00  0.3254E+01  0.2093E+02  0.1822E+02
      3.175  0.2777E+00  0.2400E+01  0.2106E+02  0.1881E+02
      3.433  0.8984E+00  0.4172E+01  0.2120E+02  0.1931E+02
      3.692  0.2260E+01  0.2130E+01  0.2163E+02  0.1978E+02
      3.950  0.2246E+01  0.2350E+01  0.2223E+02  0.2042E+02
      4.208  0.2285E+01  0.3388E+01  0.2270E+02  0.2099E+02
      4.467  0.9423E+01  0.7866E+01  0.2418E+02  0.2234E+02
      4.725  0.7368E+01  0.1023E+02  0.2565E+02  0.2380E+02
      4.983  0.7033E+01  0.5795E+01  0.2702E+02  0.2490E+02
      5.242  0.4784E+01  0.5914E+01  0.2821E+02  0.2625E+02
      5.500  0.5704E+01  0.5548E+01  0.2949E+02  0.2774E+02
      5.759  0.3427E+01  0.6749E+01  0.3048E+02  0.2917E+02
      6.017  0.2569E+01  0.1694E+01  0.3098E+02  0.2981E+02
      6.275  0.1245E+01  0.4261E-01  0.3138E+02  0.2986E+02
      6.534  0.7640E+00  0.4107E-01  0.3168E+02  0.2987E+02
      6.792  0.4171E+00  0.3952E-01  0.3180E+02  0.2988E+02
      7.050  0.2626E+00  0.3798E-01  0.3189E+02  0.2989E+02
      7.309  0.1942E+00  0.3643E-01  0.3195E+02  0.2990E+02
      7.567  0.7899E-01  0.3489E-01  0.3200E+02  0.2991E+02
      7.826  0.0000E+00  0.3334E-01  0.3200E+02  0.2991E+02
      8.084  0.0000E+00  0.3179E-01  0.3200E+02  0.2992E+02
      8.342  0.0000E+00  0.3025E-01  0.3200E+02  0.2993E+02
      8.601  0.0000E+00  0.2870E-01  0.3200E+02  0.2994E+02
      8.859  0.1305E-01  0.4133E-01  0.3200E+02  0.2995E+02
      9.117  0.1282E+00  0.1555E+00  0.3202E+02  0.2997E+02
      9.376  0.2545E+00  0.2772E+00  0.3207E+02  0.3003E+02
      9.634  0.3871E+00  0.4390E+00  0.3216E+02  0.3012E+02
      9.893  0.8544E+00  0.9928E+00  0.3228E+02  0.3027E+02
     10.151  0.3924E+01  0.4089E+01  0.3284E+02  0.3086E+02
     10.409  0.5857E+01  0.1341E+02  0.3394E+02  0.3223E+02
     10.668  0.4253E+02  0.4501E+02  0.3777E+02  0.3624E+02
     10.926  0.3391E+02  0.3396E+02  0.4434E+02  0.4301E+02
     11.184  0.6149E+01  0.4499E+01  0.4613E+02  0.4480E+02
     11.443  0.2220E+01  0.1636E+01  0.4648E+02  0.4524E+02
     11.701  0.2420E+01  0.2515E+01  0.4712E+02  0.4585E+02
     11.959  0.2229E+01  0.3463E+01  0.4775E+02  0.4662E+02
     12.218  0.3382E+00  0.2198E+01  0.4800E+02  0.4729E+02
     12.476  0.0000E+00  0.1418E+01  0.4800E+02  0.4774E+02
     12.735  0.0000E+00  0.3553E+00  0.4800E+02  0.4799E+02
     12.993  0.0000E+00  0.0000E+00  0.4800E+02  0.4800E+02
     13.251  0.0000E+00  0.0000E+00  0.4800E+02  0.4800E+02
     13.510  0.0000E+00  0.0000E+00  0.4800E+02  0.4800E+02
     13.768  0.0000E+00  0.0000E+00  0.4800E+02  0.4800E+02
     14.026  0.0000E+00  0.0000E+00  0.4800E+02  0.4800E+02
     14.285  0.0000E+00  0.0000E+00  0.4800E+02  0.4800E+02
     14.543  0.0000E+00  0.0000E+00  0.4800E+02  0.4800E+02
     14.802  0.0000E+00  0.0000E+00  0.4800E+02  0.4800E+02
     15.060  0.0000E+00  0.0000E+00  0.4800E+02  0.4800E+02
     15.318  0.0000E+00  0.0000E+00  0.4800E+02  0.4800E+02
     15.577  0.0000E+00  0.0000E+00  0.4800E+02  0.4800E+02
     15.835  0.0000E+00  0.0000E+00  0.4800E+02  0.4800E+02
     16.093  0.0000E+00  0.0000E+00  0.4800E+02  0.4800E+02
     16.352  0.0000E+00  0.0000E+00  0.4800E+02  0.4800E+02
     16.35181414    -61.15961300  301      9.16551959      1.00000000
    -61.160  0.0000E+00  0.0000E+00  0.0000E+00  0.0000E+00  0.0000E+00  0.0000E+00  0.0000E+00  0.0000E+00  0.0000E+00  0.0000E+00  0.0000E+00  0.0000E+00  0.0000E+00  0.0000E+00  0.0000E+00  0.0000E+00  0.0000E+00  0.0000E+00  0.0000E+00  0.0000E+00  0.0000E+00  0.0000E+00  0.0000E+00  0.0000E+00  0.0000E+00  0.0000E+00  0.0000E+00  0.0000E+00  0.0000E+00  0.0000E+00  0.0000E+00  0.0000E+00
    -60.901  0.0000E+00  0.0000E+00  0.0000E+00  0.0000E+00  0.0000E+00  0.0000E+00  0.0000E+00  0.0000E+00  0.0000E+00  0.0000E+00  0.0000E+00  0.0000E+00  0.0000E+00  0.0000E+00  0.0000E+00  0.0000E+00  0.0000E+00  0.0000E+00  0.0000E+00  0.0000E+00  0.0000E+00  0.0000E+00  0.0000E+00  0.0000E+00  0.0000E+00  0.0000E+00  0.0000E+00  0.0000E+00  0.0000E+00  0.0000E+00  0.0000E+00  0.0000E+00
    -60.643  0.0000E+00  0.0000E+00  0.0000E+00  0.0000E+00  0.0000E+00  0.0000E+00  0.0000E+00  0.0000E+00  0.0000E+00  0.0000E+00  0.0000E+00  0.0000E+00  0.0000E+00  0.0000E+00  0.0000E+00  0.0000E+00  0.0000E+00  0.0000E+00  0.0000E+00  0.0000E+00  0.0000E+00  0.0000E+00  0.0000E+00  0.0000E+00  0.0000E+00  0.0000E+00  0.0000E+00  0.0000E+00  0.0000E+00  0.0000E+00  0.0000E+00  0.0000E+00
    -60.384  0.0000E+00  0.0000E+00  0.0000E+00  0.0000E+00  0.0000E+00  0.0000E+00  0.0000E+00  0.0000E+00  0.0000E+00  0.0000E+00  0.0000E+00  0.0000E+00  0.0000E+00  0.0000E+00  0.0000E+00  0.0000E+00  0.0000E+00  0.0000E+00  0.0000E+00  0.0000E+00  0.0000E+00  0.0000E+00  0.0000E+00  0.0000E+00  0.0000E+00  0.0000E+00  0.0000E+00  0.0000E+00  0.0000E+00  0.0000E+00  0.0000E+00  0.0000E+00
    -60.126  0.0000E+00  0.0000E+00  0.0000E+00  0.0000E+00  0.0000E+00  0.0000E+00  0.0000E+00  0.0000E+00  0.0000E+00  0.0000E+00  0.0000E+00  0.0000E+00  0.0000E+00  0.0000E+00  0.0000E+00  0.0000E+00  0.0000E+00  0.0000E+00  0.0000E+00  0.0000E+00  0.0000E+00  0.0000E+00  0.0000E+00  0.0000E+00  0.0000E+00  0.0000E+00  0.0000E+00  0.0000E+00  0.0000E+00  0.0000E+00  0.0000E+00  0.0000E+00
    -59.868  0.0000E+00  0.0000E+00  0.0000E+00  0.0000E+00  0.0000E+00  0.0000E+00  0.0000E+00  0.0000E+00  0.0000E+00  0.0000E+00  0.0000E+00  0.0000E+00  0.0000E+00  0.0000E+00  0.0000E+00  0.0000E+00  0.0000E+00  0.0000E+00  0.0000E+00  0.0000E+00  0.0000E+00  0.0000E+00  0.0000E+00  0.0000E+00  0.0000E+00  0.0000E+00  0.0000E+00  0.0000E+00  0.0000E+00  0.0000E+00  0.0000E+00  0.0000E+00
    -59.609  0.0000E+00  0.0000E+00  0.0000E+00  0.0000E+00  0.0000E+00  0.0000E+00  0.0000E+00  0.0000E+00  0.0000E+00  0.0000E+00  0.0000E+00  0.0000E+00  0.0000E+00  0.0000E+00  0.0000E+00  0.0000E+00  0.0000E+00  0.0000E+00  0.0000E+00  0.0000E+00  0.0000E+00  0.0000E+00  0.0000E+00  0.0000E+00  0.0000E+00  0.0000E+00  0.0000E+00  0.0000E+00  0.0000E+00  0.0000E+00  0.0000E+00  0.0000E+00
    -59.351  0.0000E+00  0.0000E+00  0.0000E+00  0.0000E+00  0.0000E+00  0.0000E+00  0.0000E+00  0.0000E+00  0.0000E+00  0.0000E+00  0.0000E+00  0.0000E+00  0.0000E+00  0.0000E+00  0.0000E+00  0.0000E+00  0.0000E+00  0.0000E+00  0.0000E+00  0.0000E+00  0.0000E+00  0.0000E+00  0.0000E+00  0.0000E+00  0.0000E+00  0.0000E+00  0.0000E+00  0.0000E+00  0.0000E+00  0.0000E+00  0.0000E+00  0.0000E+00
    -59.093  0.0000E+00  0.0000E+00  0.0000E+00  0.0000E+00  0.0000E+00  0.0000E+00  0.0000E+00  0.0000E+00  0.0000E+00  0.0000E+00  0.0000E+00  0.0000E+00  0.0000E+00  0.0000E+00  0.0000E+00  0.0000E+00  0.0000E+00  0.0000E+00  0.0000E+00  0.0000E+00  0.0000E+00  0.0000E+00  0.0000E+00  0.0000E+00  0.0000E+00  0.0000E+00  0.0000E+00  0.0000E+00  0.0000E+00  0.0000E+00  0.0000E+00  0.0000E+00
    -58.834  0.0000E+00  0.0000E+00  0.0000E+00  0.0000E+00  0.0000E+00  0.0000E+00  0.0000E+00  0.0000E+00  0.0000E+00  0.0000E+00  0.0000E+00  0.0000E+00  0.0000E+00  0.0000E+00  0.0000E+00  0.0000E+00  0.0000E+00  0.0000E+00  0.0000E+00  0.0000E+00  0.0000E+00  0.0000E+00  0.0000E+00  0.0000E+00  0.0000E+00  0.0000E+00  0.0000E+00  0.0000E+00  0.0000E+00  0.0000E+00  0.0000E+00  0.0000E+00
    -58.576  0.0000E+00  0.0000E+00  0.0000E+00  0.0000E+00  0.0000E+00  0.0000E+00  0.0000E+00  0.0000E+00  0.0000E+00  0.0000E+00  0.0000E+00  0.0000E+00  0.0000E+00  0.0000E+00  0.0000E+00  0.0000E+00  0.0000E+00  0.0000E+00  0.0000E+00  0.0000E+00  0.0000E+00  0.0000E+00  0.0000E+00  0.0000E+00  0.0000E+00  0.0000E+00  0.0000E+00  0.0000E+00  0.0000E+00  0.0000E+00  0.0000E+00  0.0000E+00
    -58.318  0.0000E+00  0.0000E+00  0.0000E+00  0.0000E+00  0.0000E+00  0.0000E+00  0.0000E+00  0.0000E+00  0.0000E+00  0.0000E+00  0.0000E+00  0.0000E+00  0.0000E+00  0.0000E+00  0.0000E+00  0.0000E+00  0.0000E+00  0.0000E+00  0.0000E+00  0.0000E+00  0.0000E+00  0.0000E+00  0.0000E+00  0.0000E+00  0.0000E+00  0.0000E+00  0.0000E+00  0.0000E+00  0.0000E+00  0.0000E+00  0.0000E+00  0.0000E+00
    -58.059  0.0000E+00  0.0000E+00  0.0000E+00  0.0000E+00  0.0000E+00  0.0000E+00  0.0000E+00  0.0000E+00  0.0000E+00  0.0000E+00  0.0000E+00  0.0000E+00  0.0000E+00  0.0000E+00  0.0000E+00  0.0000E+00  0.0000E+00  0.0000E+00  0.0000E+00  0.0000E+00  0.0000E+00  0.0000E+00  0.0000E+00  0.0000E+00  0.0000E+00  0.0000E+00  0.0000E+00  0.0000E+00  0.0000E+00  0.0000E+00  0.0000E+00  0.0000E+00
    -57.801  0.0000E+00  0.0000E+00  0.0000E+00  0.0000E+00  0.0000E+00  0.0000E+00  0.0000E+00  0.0000E+00  0.0000E+00  0.0000E+00  0.0000E+00  0.0000E+00  0.0000E+00  0.0000E+00  0.0000E+00  0.0000E+00  0.0000E+00  0.0000E+00  0.0000E+00  0.0000E+00  0.0000E+00  0.0000E+00  0.0000E+00  0.0000E+00  0.0000E+00  0.0000E+00  0.0000E+00  0.0000E+00  0.0000E+00  0.0000E+00  0.0000E+00  0.0000E+00
    -57.542  0.3059E-05  0.0000E+00  0.1065E-04  0.0000E+00  0.1316E-05  0.0000E+00  0.1065E-04  0.0000E+00  0.5857E-05  0.0000E+00  0.2513E-04  0.0000E+00  0.3747E-07  0.0000E+00  0.2513E-04  0.0000E+00  0.1326E-06  0.0000E+00  0.2692E-05  0.0000E+00  0.3412E-05  0.0000E+00  0.1214E-05  0.0000E+00  0.7517E-06  0.0000E+00  0.1214E-05  0.0000E+00  0.4961E-06  0.0000E+00  0.2692E-05  0.0000E+00
    -57.284  0.2880E-06  0.0000E+00  0.1209E-06  0.0000E+00  0.1229E-06  0.0000E+00  0.1209E-06  0.0000E+00  0.3052E-06  0.0000E+00  0.2842E-06  0.0000E+00  0.9499E-09  0.0000E+00  0.2842E-06  0.0000E+00  0.1599E-07  0.0000E+00  0.3252E-07  0.0000E+00  0.1803E-06  0.0000E+00  0.1542E-07  0.0000E+00  0.6296E-07  0.0000E+00  0.1542E-07  0.0000E+00  0.9047E-08  0.0000E+00  0.3252E-07  0.0000E+00
    -57.026  0.0000E+00  0.0000E+00  0.0000E+00  0.0000E+00  0.0000E+00  0.0000E+00  0.0000E+00  0.0000E+00  0.0000E+00  0.0000E+00  0.0000E+00  0.0000E+00  0.0000E+00  0.0000E+00  0.0000E+00  0.0000E+00  0.0000E+00  0.0000E+00  0.0000E+00  0.0000E+00  0.0000E+00  0.0000E+00  0.0000E+00  0.0000E+00  0.0000E+00  0.0000E+00  0.0000E+00  0.0000E+00  0.0000E+00  0.0000E+00  0.0000E+00  0.0000E+00
    -56.767  0.0000E+00  0.0000E+00  0.0000E+00  0.0000E+00  0.0000E+00  0.0000E+00  0.0000E+00  0.0000E+00  0.0000E+00  0.0000E+00  0.0000E+00  0.0000E+00  0.0000E+00  0.0000E+00  0.0000E+00  0.0000E+00  0.0000E+00  0.0000E+00  0.0000E+00  0.0000E+00  0.0000E+00  0.0000E+00  0.0000E+00  0.0000E+00  0.0000E+00  0.0000E+00  0.0000E+00  0.0000E+00  0.0000E+00  0.0000E+00  0.0000E+00  0.0000E+00
    -56.509  0.0000E+00  0.0000E+00  0.0000E+00  0.0000E+00  0.0000E+00  0.0000E+00  0.0000E+00  0.0000E+00  0.0000E+00  0.0000E+00  0.0000E+00  0.0000E+00  0.0000E+00  0.0000E+00  0.0000E+00  0.0000E+00  0.0000E+00  0.0000E+00  0.0000E+00  0.0000E+00  0.0000E+00  0.0000E+00  0.0000E+00  0.0000E+00  0.0000E+00  0.0000E+00  0.0000E+00  0.0000E+00  0.0000E+00  0.0000E+00  0.0000E+00  0.0000E+00
    -56.251  0.0000E+00  0.0000E+00  0.0000E+00  0.0000E+00  0.0000E+00  0.0000E+00  0.0000E+00  0.0000E+00  0.0000E+00  0.0000E+00  0.0000E+00  0.0000E+00  0.0000E+00  0.0000E+00  0.0000E+00  0.0000E+00  0.0000E+00  0.0000E+00  0.0000E+00  0.0000E+00  0.0000E+00  0.0000E+00  0.0000E+00  0.0000E+00  0.0000E+00  0.0000E+00  0.0000E+00  0.0000E+00  0.0000E+00  0.0000E+00  0.0000E+00  0.0000E+00
    -55.992  0.0000E+00  0.0000E+00  0.0000E+00  0.0000E+00  0.0000E+00  0.0000E+00  0.0000E+00  0.0000E+00  0.0000E+00  0.0000E+00  0.0000E+00  0.0000E+00  0.0000E+00  0.0000E+00  0.0000E+00  0.0000E+00  0.0000E+00  0.0000E+00  0.0000E+00  0.0000E+00  0.0000E+00  0.0000E+00  0.0000E+00  0.0000E+00  0.0000E+00  0.0000E+00  0.0000E+00  0.0000E+00  0.0000E+00  0.0000E+00  0.0000E+00  0.0000E+00
    -55.734  0.0000E+00  0.0000E+00  0.0000E+00  0.0000E+00  0.0000E+00  0.0000E+00  0.0000E+00  0.0000E+00  0.0000E+00  0.0000E+00  0.0000E+00  0.0000E+00  0.0000E+00  0.0000E+00  0.0000E+00  0.0000E+00  0.0000E+00  0.0000E+00  0.0000E+00  0.0000E+00  0.0000E+00  0.0000E+00  0.0000E+00  0.0000E+00  0.0000E+00  0.0000E+00  0.0000E+00  0.0000E+00  0.0000E+00  0.0000E+00  0.0000E+00  0.0000E+00
    -55.475  0.0000E+00  0.0000E+00  0.0000E+00  0.0000E+00  0.0000E+00  0.0000E+00  0.0000E+00  0.0000E+00  0.0000E+00  0.0000E+00  0.0000E+00  0.0000E+00  0.0000E+00  0.0000E+00  0.0000E+00  0.0000E+00  0.0000E+00  0.0000E+00  0.0000E+00  0.0000E+00  0.0000E+00  0.0000E+00  0.0000E+00  0.0000E+00  0.0000E+00  0.0000E+00  0.0000E+00  0.0000E+00  0.0000E+00  0.0000E+00  0.0000E+00  0.0000E+00
    -55.217  0.0000E+00  0.5253E-06  0.0000E+00  0.2441E-06  0.0000E+00  0.1989E-06  0.0000E+00  0.2441E-06  0.0000E+00  0.5550E-06  0.0000E+00  0.4557E-06  0.0000E+00  0.2166E-07  0.0000E+00  0.4557E-06  0.0000E+00  0.2104E-07  0.0000E+00  0.6738E-07  0.0000E+00  0.2991E-06  0.0000E+00  0.2026E-07  0.0000E+00  0.1042E-06  0.0000E+00  0.2026E-07  0.0000E+00  0.1096E-07  0.0000E+00  0.6738E-07
    -54.959  0.0000E+00  0.0000E+00  0.0000E+00  0.0000E+00  0.0000E+00  0.0000E+00  0.0000E+00  0.0000E+00  0.0000E+00  0.0000E+00  0.0000E+00  0.0000E+00  0.0000E+00  0.0000E+00  0.0000E+00  0.0000E+00  0.0000E+00  0.0000E+00  0.0000E+00  0.0000E+00  0.0000E+00  0.0000E+00  0.0000E+00  0.0000E+00  0.0000E+00  0.0000E+00  0.0000E+00  0.0000E+00  0.0000E+00  0.0000E+00  0.0000E+00  0.0000E+00
    -54.700  0.0000E+00  0.0000E+00  0.0000E+00  0.0000E+00  0.0000E+00  0.0000E+00  0.0000E+00  0.0000E+00  0.0000E+00  0.0000E+00  0.0000E+00  0.0000E+00  0.0000E+00  0.0000E+00  0.0000E+00  0.0000E+00  0.0000E+00  0.0000E+00  0.0000E+00  0.0000E+00  0.0000E+00  0.0000E+00  0.0000E+00  0.0000E+00  0.0000E+00  0.0000E+00  0.0000E+00  0.0000E+00  0.0000E+00  0.0000E+00  0.0000E+00  0.0000E+00
    -54.442  0.0000E+00  0.0000E+00  0.0000E+00  0.0000E+00  0.0000E+00  0.0000E+00  0.0000E+00  0.0000E+00  0.0000E+00  0.0000E+00  0.0000E+00  0.0000E+00  0.0000E+00  0.0000E+00  0.0000E+00  0.0000E+00  0.0000E+00  0.0000E+00  0.0000E+00  0.0000E+00  0.0000E+00  0.0000E+00  0.0000E+00  0.0000E+00  0.0000E+00  0.0000E+00  0.0000E+00  0.0000E+00  0.0000E+00  0.0000E+00  0.0000E+00  0.0000E+00
    -54.184  0.0000E+00  0.0000E+00  0.0000E+00  0.0000E+00  0.0000E+00  0.0000E+00  0.0000E+00  0.0000E+00  0.0000E+00  0.0000E+00  0.0000E+00  0.0000E+00  0.0000E+00  0.0000E+00  0.0000E+00  0.0000E+00  0.0000E+00  0.0000E+00  0.0000E+00  0.0000E+00  0.0000E+00  0.0000E+00  0.0000E+00  0.0000E+00  0.0000E+00  0.0000E+00  0.0000E+00  0.0000E+00  0.0000E+00  0.0000E+00  0.0000E+00  0.0000E+00
    -53.925  0.0000E+00  0.0000E+00  0.0000E+00  0.0000E+00  0.0000E+00  0.0000E+00  0.0000E+00  0.0000E+00  0.0000E+00  0.0000E+00  0.0000E+00  0.0000E+00  0.0000E+00  0.0000E+00  0.0000E+00  0.0000E+00  0.0000E+00  0.0000E+00  0.0000E+00  0.0000E+00  0.0000E+00  0.0000E+00  0.0000E+00  0.0000E+00  0.0000E+00  0.0000E+00  0.0000E+00  0.0000E+00  0.0000E+00  0.0000E+00  0.0000E+00  0.0000E+00