    8    8    1    1
  0.2097135E+02  0.5515338E-09  0.5515338E-09  0.5515338E-09  0.5000000E-15
   1.0000000000000000E-004
  CAR 
 unknown system                          
     32     10     24

  0.1262379E-14  0.1262379E-14  0.1262379E-14  0.8000000E-02
    1       -6.278001   1.000000
    2       -2.300434   1.000000
    3       -2.300434   1.000000
    4       -2.300434   1.000000
    5       -2.300434   1.000000
    6       -2.300434   1.000000
    7       -2.300434   1.000000
    8        2.638223   1.000000
    9        2.638223   1.000000
   10        2.638223   1.000000
   11        2.638223   1.000000
   12        2.638223   1.000000
   13        2.638223   1.000000
   14        5.366740   0.868949
   15        5.366740   0.868949
   16        5.366740   0.868949
   17        6.165481  -0.000004
   18        6.165481  -0.000004
   19        6.165481  -0.000004
   20        6.165481  -0.000004
   21        6.165481  -0.000004
   22        6.165481  -0.000004
   23        7.911993  -0.000000
   24        7.912051  -0.000000

  0.2000000E+00  0.1262379E-14  0.1262379E-14  0.4800000E-01
    1       -6.110013   1.000000
    2       -3.674119   1.000000
    3       -2.253424   1.000000
    4       -2.253424   1.000000
    5       -2.253424   1.000000
    6       -2.253424   1.000000
    7       -0.726941   1.000000
    8        2.259792   1.000000
    9        2.259792   1.000000
   10        2.259792   1.000000
   11        2.259792   1.000000
   12        2.790075   1.000000
   13        2.790075   1.000000
   14        4.385940   1.000000
   15        4.822127   1.000026
   16        4.822127   1.000026
   17        6.026475  -0.000272
   18        6.758991  -0.000000
   19        6.977992  -0.000000
   20        6.977992  -0.000000
   21        6.977992  -0.000000
   22        6.977992  -0.000000
   23        7.549012  -0.000000
   24        8.663242  -0.000000

  0.4000000E+00  0.1262379E-14  0.1262379E-14  0.4800000E-01
    1       -5.609916   1.000000
    2       -4.790138   1.000000
    3       -2.171337   1.000000
    4       -2.171337   1.000000
    5       -2.171337   1.000000
    6       -2.171337   1.000000
    7        0.971145   1.000000
    8        1.782329   1.000000
    9        1.782329   1.000000
   10        1.782329   1.000000
   11        1.782329   1.000000
   12        2.713550   1.000000
   13        3.237892   1.000000
   14        3.237892   1.000000
   15        3.950483   1.000000
   16        3.950483   1.000000
   17        6.286453  -0.000000
   18        6.857206  -0.000000
   19        7.823771  -0.000000
   20        8.782046  -0.000000
   21        8.782046  -0.000000
   22        8.782046  -0.000000
   23        8.782046  -0.000000
   24        9.161701  -0.000000

  0.2000000E+00  0.2000000E+00  0.1262379E-14  0.9600000E-01
    1       -5.944260   1.000000
    2       -3.563180   1.000000
    3       -3.563180   1.000000
    4       -2.533721   1.000000
    5       -1.933257   1.000000
    6       -0.811611   1.000000
    7       -0.811611   1.000000
    8        1.506618   1.000000
    9        2.298597   1.000000
   10        2.298597   1.000000
   11        2.613390   1.000000
   12        2.613390   1.000000
   13        2.902627   1.000000
   14        3.339031   1.000000
   15        4.268772   1.000000
   16        5.192565   1.032850
   17        6.468659  -0.000000
   18        6.889411  -0.000000
   19        6.889411  -0.000000
   20        7.485460  -0.000000
   21        7.485460  -0.000000
   22        8.179254  -0.000000
   23        8.259717  -0.000000
   24        8.426483  -0.000000

  0.4000000E+00  0.2000000E+00  0.1262379E-14  0.1920000E+00
    1       -5.451689   1.000000
    2       -4.647749   1.000000
    3       -3.262694   1.000000
    4       -2.875357   1.000000
    5       -1.523026   1.000000
    6       -1.096568   1.000000
    7        0.637182   1.000000
    8        1.248030   1.000000
    9        1.581544   1.000000
   10        2.014035   1.000000
   11        2.524861   1.000000
   12        2.691561   1.000000
   13        2.782432   1.000000
   14        3.376010   1.000000
   15        3.388410   1.000000
   16        4.428754   1.000000
   17        7.161634  -0.000000
   18        7.550195  -0.000000
   19        7.704736  -0.000000
   20        8.433665  -0.000000
   21        8.731061  -0.000000
   22        8.905910  -0.000000
   23        9.155001  -0.000000
   24        9.659969  -0.000000

  0.4000000E+00  0.4000000E+00  0.1262379E-14  0.9600000E-01
    1       -4.984773   1.000000
    2       -4.235914   1.000000
    3       -4.235914   1.000000
    4       -3.608604   1.000000
    5       -0.840073   1.000000
    6       -0.081425   1.000000
    7       -0.081425   1.000000
    8        0.949092   1.000000
    9        1.309479   1.000000
   10        1.857594   1.000000
   11        1.857594   1.000000
   12        2.510241   1.000000
   13        3.628339   1.000000
   14        3.657913   1.000000
   15        3.657913   1.000000
   16        4.551485   1.000000
   17        7.292908  -0.000000
   18        8.158422  -0.000000
   19        8.491773  -0.000000
   20        8.491773  -0.000000
   21        8.975291  -0.000000
   22        8.975291  -0.000000
   23        9.294652  -0.000000
   24        9.585346  -0.000000

  0.2000000E+00  0.2000000E+00  0.2000000E+00  0.6400000E-01
    1       -5.781334   1.000000
    2       -3.488766   1.000000
    3       -3.488766   1.000000
    4       -3.488766   1.000000
    5       -0.958092   1.000000
    6       -0.958092   1.000000
    7       -0.958092   1.000000
    8        1.857331   1.000000
    9        1.857331   1.000000
   10        1.857331   1.000000
   11        2.411233   1.000000
   12        3.044905   1.000000
   13        3.044905   1.000000
   14        3.044905   1.000000
   15        4.812232   1.000019
   16        4.812232   1.000019
   17        6.656629  -0.000000
   18        6.656629  -0.000000
   19        6.656629  -0.000000
   20        7.430332  -0.000000
   21        8.685123  -0.000000
   22        8.693600  -0.000000
   23        8.734292  -0.000000
   24        8.734292  -0.000000

  0.4000000E+00  0.2000000E+00  0.2000000E+00  0.1920000E+00
    1       -5.298708   1.000000
    2       -4.517609   1.000000
    3       -3.348052   1.000000
    4       -3.348052   1.000000
    5       -1.230595   1.000000
    6       -1.230595   1.000000
    7        0.150732   1.000000
    8        1.236480   1.000000
    9        1.700211   1.000000
   10        1.700211   1.000000
   11        2.843633   1.000000
   12        3.015214   1.000000
   13        3.015214   1.000000
   14        3.459245   1.000000
   15        4.096462   1.000000
   16        4.126195   1.000000
   17        7.164411  -0.000000
   18        7.670196  -0.000000
   19        7.715644  -0.000000
   20        7.715644  -0.000000
   21        8.647589  -0.000000
   22        9.404698  -0.000000
   23        9.591787  -0.000000
   24        9.667408  -0.000000

  0.4000000E+00  0.4000000E+00  0.2000000E+00  0.1920000E+00
    1       -4.851696   1.000000
    2       -4.156793   1.000000
    3       -4.156793   1.000000
    4       -3.684255   1.000000
    5       -1.166360   1.000000
    6       -0.633768   1.000000
    7       -0.633768   1.000000
    8        0.200271   1.000000
    9        2.069860   1.000000
   10        2.573500   1.000000
   11        2.573500   1.000000
   12        3.397598   1.000000
   13        3.724857   1.000000
   14        3.744181   1.000000
   15        3.744181   1.000000
   16        4.487934   1.000000
   17        7.420544  -0.000000
   18        7.631960  -0.000000
   19        8.043016  -0.000000
   20        8.043016  -0.000000
   21        8.635617  -0.000000
   22        8.635617  -0.000000
   23        8.964102  -0.000000
   24        9.042388  -0.000000

  0.4000000E+00  0.4000000E+00  0.4000000E+00  0.6400000E-01
    1       -4.483235   1.000000
    2       -4.006837   1.000000
    3       -4.006837   1.000000
    4       -4.006837   1.000000
    5       -1.256662   1.000000
    6       -1.256662   1.000000
    7       -1.256662   1.000000
    8       -0.727914   1.000000
    9        3.451037   1.000000
   10        3.451037   1.000000
   11        3.451037   1.000000
   12        3.979035   1.000000
   13        3.979035   1.000000
   14        3.979035   1.000000
   15        4.280638   1.000000
   16        4.280638   1.000000
   17        6.826290  -0.000000
   18        7.393359  -0.000000
   19        7.393359  -0.000000
   20        7.393359  -0.000000
   21        8.672133  -0.000000
   22        8.672133  -0.000000
   23        8.677530  -0.000000
   24        8.790015  -0.000000
