       N       E                     dE             d eps       ncg     rms          rms(c)
DAV:   1     0.687433976885E+02    0.68743E+02   -0.12008E+04   480   0.108E+03
DAV:   2    -0.389113657872E+02   -0.10765E+03   -0.10032E+03   648   0.150E+02
DAV:   3    -0.438932849778E+02   -0.49819E+01   -0.49169E+01   616   0.312E+01
DAV:   4    -0.439820000601E+02   -0.88715E-01   -0.88605E-01   616   0.524E+00
DAV:   5    -0.439839315373E+02   -0.19315E-02   -0.19309E-02   632   0.702E-01    0.579E+00
RMM:   6    -0.435590696485E+02    0.42486E+00   -0.19916E-01   481   0.175E+00    0.348E+00
RMM:   7    -0.433564283217E+02    0.20264E+00   -0.50382E-01   514   0.293E+00    0.285E-01
RMM:   8    -0.433649106077E+02   -0.84823E-02   -0.47448E-02   511   0.105E+00    0.813E-02
RMM:   9    -0.433658454050E+02   -0.93480E-03   -0.12088E-02   554   0.487E-01    0.759E-02
RMM:  10    -0.433662159367E+02   -0.37053E-03   -0.29122E-03   524   0.274E-01    0.429E-02
RMM:  11    -0.433662322125E+02   -0.16276E-04   -0.88060E-04   563   0.152E-01    0.411E-03
RMM:  12    -0.433662546147E+02   -0.22402E-04   -0.20850E-04   593   0.789E-02    0.396E-03
RMM:  13    -0.433662564025E+02   -0.17878E-05   -0.50284E-05   534   0.373E-02    0.390E-03
RMM:  14    -0.433662576703E+02   -0.12678E-05   -0.82675E-06   489   0.164E-02    0.232E-03
RMM:  15    -0.433662577713E+02   -0.10097E-06   -0.22232E-06   373   0.821E-03
   1 F= -.43366258E+02 E0= -.43366849E+02  d E =0.177486E-02
