 vasp.6.2.1 16May21 (build Aug 15 2022 14:47:30) complex                         
 executed on             LinuxGNU date 2025.12.30  16:12:29
 running on    4 total cores
 distrk:  each k-point on    4 cores,    1 groups
 distr:  one band on NCORE=   1 cores,    4 groups


--------------------------------------------------------------------------------------------------------


 INCAR:
   ALGO = Fast
   EDIFF = 1e-6
   ENCUT = 520.0
   ISMEAR = 1
   LASPH = True
   LCHARG = False
   LREAL = False
   LWAVE = False
   NELM = 100
   NSW = 0
   PREC = Accurate

 POTCAR:   PAW_PBE Si 05Jan2001                   
 POTCAR:   PAW_PBE Si 05Jan2001                   
   VRHFIN =Si: s2p2                                                                                 
   LEXCH  = PE                                                                                      
   EATOM  =   103.0669 eV,    7.5752 Ry                                                             
                                                                                                    
   TITEL  = PAW_PBE Si 05Jan2001                                                                    
   LULTRA =        F    use ultrasoft PP ?                                                          
   IUNSCR =        1    unscreen: 0-lin 1-nonlin 2-no                                               
   RPACOR =    1.500    partial core radius                                                         
   POMASS =   28.085; ZVAL   =    4.000    mass and valenz                                          
   RCORE  =    1.900    outmost cutoff radius                                                       
   RWIGS  =    2.480; RWIGS  =    1.312    wigner-seitz radius (au A)                               
   ENMAX  =  245.345; ENMIN  =  184.009 eV                                                          
   ICORE  =        2    local potential                                                             
   LCOR   =        T    correct aug charges                                                         
   LPAW   =        T    paw PP                                                                      
   EAUG   =  322.069                                                                                
   DEXC   =    -.007                                                                                
   RMAX   =    2.944    core radius for proj-oper                                                   
   RAUG   =    1.300    factor for augmentation sphere                                              
   RDEP   =    1.993    radius for radial grids                                                     
   QCUT   =   -4.246; QGAM   =    8.493    optimization parameters                                  
                                                                                                    
   Description                                                                                      
     l     E      TYP  RCUT    TYP  RCUT                                                            
     0   .000     23  1.900                                                                         
     0   .000     23  1.900                                                                         
     1   .000     23  1.900                                                                         
     1   .000     23  1.900                                                                         
     2   .000      7  1.900                                                                         
  local pseudopotential read in
  partial core-charges read in
  atomic valenz-charges read in
  non local Contribution for L=           0  read in
    real space projection operators read in
  non local Contribution for L=           0  read in
    real space projection operators read in
  non local Contribution for L=           1  read in
    real space projection operators read in
  non local Contribution for L=           1  read in
    real space projection operators read in
    PAW grid and wavefunctions read in

   number of l-projection  operators is LMAX  =           4
   number of lm-projection operators is LMMAX =           8

 PAW_PBE Si 05Jan2001                   :
 energy of atom  1       EATOM= -103.0669
 kinetic energy error for atom=    0.0005 (will be added to EATOM!!)


 POSCAR: # Generated by Masgent for EOS calculati
  positions in direct lattice
  No initial velocities read in
 exchange correlation table for  LEXCH =        8
   RHO(1)=    0.500       N(1)  =     2000
   RHO(2)=  100.500       N(2)  =     4000

 VTST: version 4.2, (08/11/21)

 CHAIN: initializing optimizer
 
 OPT: Using VASP Dynamics algorithm
 CHAIN: Read ICHAIN            0

 POSCAR: # Generated by Masgent for EOS calculati
  positions in direct lattice
  No initial velocities read in



--------------------------------------------------------------------------------------------------------


 ion  position               nearest neighbor table
   1  0.750  0.750  0.250-   2 2.39   8 2.39   6 2.39   4 2.39
   2  0.000  0.500  0.500-   1 2.39   7 2.39   5 2.39   3 2.39
   3  0.750  0.250  0.750-   4 2.39   6 2.39   2 2.39   8 2.39
   4  0.000  0.000  0.000-   3 2.39   5 2.39   1 2.39   7 2.39
   5  0.250  0.750  0.750-   4 2.39   6 2.39   2 2.39   8 2.39
   6  0.500  0.500  0.000-   3 2.39   5 2.39   1 2.39   7 2.39
   7  0.250  0.250  0.250-   2 2.39   8 2.39   6 2.39   4 2.39
   8  0.500  0.000  0.500-   1 2.39   7 2.39   5 2.39   3 2.39

  LATTYP: Found a simple cubic cell.
 ALAT       =     5.5153382507
  
  Lattice vectors:
  
 A1 = (   5.5153382507,   0.0000000000,   0.0000000000)
 A2 = (   0.0000000000,   5.5153382507,   0.0000000000)
 A3 = (   0.0000000000,   0.0000000000,   5.5153382507)


Analysis of symmetry for initial positions (statically):
=====================================================================
 Subroutine PRICEL returns following result:
 
  LATTYP: Found a face centered cubic cell.
 ALAT       =     5.5153382507
  
  Lattice vectors:
  
 A1 = (   2.7576691254,  -2.7576691254,   0.0000000000)
 A2 = (   2.7576691254,   0.0000000000,   2.7576691254)
 A3 = (   0.0000000000,  -2.7576691254,   2.7576691254)
 
   4 primitive cells build up your supercell.
 

 Routine SETGRP: Setting up the symmetry group for a 
 simple cubic supercell.


 Subroutine GETGRP returns: Found 48 space group operations
 (whereof 24 operations were pure point group operations)
 out of a pool of 48 trial point group operations.


The static configuration has the point symmetry T_d .
 The point group associated with its full space group is O_h .


Analysis of symmetry for dynamics (positions and initial velocities):
=====================================================================
 Subroutine PRICEL returns following result:
 
  LATTYP: Found a face centered cubic cell.
 ALAT       =     5.5153382507
  
  Lattice vectors:
  
 A1 = (   2.7576691254,  -2.7576691254,   0.0000000000)
 A2 = (   2.7576691254,   0.0000000000,   2.7576691254)
 A3 = (   0.0000000000,  -2.7576691254,   2.7576691254)
 
   4 primitive cells build up your supercell.
 

 Routine SETGRP: Setting up the symmetry group for a 
 simple cubic supercell.


 Subroutine GETGRP returns: Found 48 space group operations
 (whereof 24 operations were pure point group operations)
 out of a pool of 48 trial point group operations.


The dynamic configuration has the point symmetry T_d .
 The point group associated with its full space group is O_h .


 Subroutine INISYM returns: Found 48 space group operations
 (whereof 24 operations are pure point group operations),
 and found     4 'primitive' translations


----------------------------------------------------------------------------------------

                                     Primitive cell                                     

  volume of cell :      41.9427

  direct lattice vectors                    reciprocal lattice vectors
     2.757669125 -2.757669125  0.000000000     0.181312542 -0.181312542 -0.181312542
     2.757669125  0.000000000  2.757669125     0.181312542  0.181312542  0.181312542
     0.000000000 -2.757669125  2.757669125    -0.181312542 -0.181312542  0.181312542

  length of vectors
     3.899933078  3.899933078  3.899933078     0.314042535  0.314042535  0.314042535

  position of ions in fractional coordinates (direct lattice)
     0.750000000  0.750000000  0.750000000
     0.000000000  0.000000000  0.000000000

  ion indices of the primitive-cell ions
   primitive index   ion index
                 1           1
                 2           2

----------------------------------------------------------------------------------------



 KPOINTS: # Generated by Masgent for EOS calculati

Automatic generation of k-mesh.
 Grid dimensions read from file:
 generate k-points for:    5    5    5

 Generating k-lattice:

  Cartesian coordinates                     Fractional coordinates (reciprocal lattice)
     0.036262508 -0.000000000  0.000000000     0.200000000  0.000000000  0.000000000
     0.000000000  0.036262508  0.000000000     0.000000000  0.200000000  0.000000000
    -0.000000000 -0.000000000  0.036262508     0.000000000  0.000000000  0.200000000

  Length of vectors
     0.036262508  0.036262508  0.036262508

  Shift w.r.t. Gamma in fractional coordinates (k-lattice)
     0.000000000  0.000000000  0.000000000

 
 Subroutine IBZKPT returns following result:
 ===========================================
 
 Found     10 irreducible k-points:
 
 Following reciprocal coordinates:
            Coordinates               Weight
  0.000000  0.000000  0.000000      1.000000
  0.200000  0.000000  0.000000      6.000000
  0.400000  0.000000  0.000000      6.000000
  0.200000  0.200000  0.000000     12.000000
  0.400000  0.200000  0.000000     24.000000
  0.400000  0.400000  0.000000     12.000000
  0.200000  0.200000  0.200000      8.000000
  0.400000  0.200000  0.200000     24.000000
  0.400000  0.400000  0.200000     24.000000
  0.400000  0.400000  0.400000      8.000000
 
 Following cartesian coordinates:
            Coordinates               Weight
  0.000000  0.000000  0.000000      1.000000
  0.036263  0.000000  0.000000      6.000000
  0.072525  0.000000  0.000000      6.000000
  0.036263  0.036263  0.000000     12.000000
  0.072525  0.036263  0.000000     24.000000
  0.072525  0.072525  0.000000     12.000000
  0.036263  0.036263  0.036263      8.000000
  0.072525  0.036263  0.036263     24.000000
  0.072525  0.072525  0.036263     24.000000
  0.072525  0.072525  0.072525      8.000000
 


--------------------------------------------------------------------------------------------------------




 Dimension of arrays:
   k-points           NKPTS =     10   k-points in BZ     NKDIM =     10   number of bands    NBANDS=     24
   number of dos      NEDOS =    301   number of ions     NIONS =      8
   non local maximal  LDIM  =      4   non local SUM 2l+1 LMDIM =      8
   total plane-waves  NPLWV =  74088
   max r-space proj   IRMAX =      1   max aug-charges    IRDMAX=  14963
   dimension x,y,z NGX =    42 NGY =   42 NGZ =   42
   dimension x,y,z NGXF=    84 NGYF=   84 NGZF=   84
   support grid    NGXF=    84 NGYF=   84 NGZF=   84
   ions per type =               8
   NGX,Y,Z   is equivalent  to a cutoff of  12.66, 12.66, 12.66 a.u.
   NGXF,Y,Z  is equivalent  to a cutoff of  25.32, 25.32, 25.32 a.u.

 SYSTEM =  unknown system                          
 POSCAR =  # Generated by Masgent for EOS calculati

 Startparameter for this run:
   NWRITE =      2    write-flag & timer
   PREC   = accura    normal or accurate (medium, high low for compatibility)
   ISTART =      0    job   : 0-new  1-cont  2-samecut
   ICHARG =      2    charge: 1-file 2-atom 10-const
   ISPIN  =      1    spin polarized calculation?
   LNONCOLLINEAR =      F non collinear calculations
   LSORBIT =      F    spin-orbit coupling
   INIWAV =      1    electr: 0-lowe 1-rand  2-diag
   LASPH  =      T    aspherical Exc in radial PAW
 Electronic Relaxation 1
   ENCUT  =  520.0 eV  38.22 Ry    6.18 a.u.  10.25 10.25 10.25*2*pi/ulx,y,z
   ENINI  =  520.0     initial cutoff
   ENAUG  =  322.1 eV  augmentation charge cutoff
   NELM   =    100;   NELMIN=  2; NELMDL=  0     # of ELM steps 
   EDIFF  = 0.1E-05   stopping-criterion for ELM
   LREAL  =      F    real-space projection
   NLSPLINE    = F    spline interpolate recip. space projectors
   LCOMPAT=      F    compatible to vasp.4.4
   GGA_COMPAT  = T    GGA compatible to vasp.4.4-vasp.4.6
   LMAXPAW     = -100 max onsite density
   LMAXMIX     =    2 max onsite mixed and CHGCAR
   VOSKOWN=      0    Vosko Wilk Nusair interpolation
   ROPT   =    0.00000
 Ionic relaxation
   EDIFFG = 0.1E-04   stopping-criterion for IOM
   NSW    =      0    number of steps for IOM
   NBLOCK =      1;   KBLOCK =      1    inner block; outer block 
   IBRION =     -1    ionic relax: 0-MD 1-quasi-New 2-CG
   NFREE  =      0    steps in history (QN), initial steepest desc. (CG)
   ISIF   =      2    stress and relaxation
   IWAVPR =     10    prediction:  0-non 1-charg 2-wave 3-comb
   ISYM   =      2    0-nonsym 1-usesym 2-fastsym
   LCORR  =      T    Harris-Foulkes like correction to forces

   POTIM  = 0.5000    time-step for ionic-motion
   TEIN   =    0.0    initial temperature
   TEBEG  =    0.0;   TEEND  =   0.0 temperature during run
   SMASS  =  -3.00    Nose mass-parameter (am)
   estimated Nose-frequenzy (Omega)   =  0.10E-29 period in steps = 0.13E+47 mass=  -0.695E-27a.u.
   SCALEE = 1.0000    scale energy and forces
   NPACO  =    256;   APACO  = 16.0  distance and # of slots for P.C.
   PSTRESS=    0.0 pullay stress

  Mass of Ions in am
   POMASS =  28.09
  Ionic Valenz
   ZVAL   =   4.00
  Atomic Wigner-Seitz radii
   RWIGS  =  -1.00
  virtual crystal weights 
   VCA    =   1.00
   NELECT =      32.0000    total number of electrons
   NUPDOWN=      -1.0000    fix difference up-down

 DOS related values:
   EMIN   =  10.00;   EMAX   =-10.00  energy-range for DOS
   EFERMI =   0.00
   ISMEAR =     1;   SIGMA  =   0.20  broadening in eV -4-tet -1-fermi 0-gaus

 Electronic relaxation 2 (details)
   IALGO  =     68    algorithm
   LDIAG  =      T    sub-space diagonalisation (order eigenvalues)
   LSUBROT=      F    optimize rotation matrix (better conditioning)
   TURBO    =      0    0=normal 1=particle mesh
   IRESTART =      0    0=no restart 2=restart with 2 vectors
   NREBOOT  =      0    no. of reboots
   NMIN     =      0    reboot dimension
   EREF     =   0.00    reference energy to select bands
   IMIX   =      4    mixing-type and parameters
     AMIX     =   0.40;   BMIX     =  1.00
     AMIX_MAG =   1.60;   BMIX_MAG =  1.00
     AMIN     =   0.10
     WC   =   100.;   INIMIX=   1;  MIXPRE=   1;  MAXMIX= -45

 Intra band minimization:
   WEIMIN = 0.0000     energy-eigenvalue tresh-hold
   EBREAK =  0.10E-07  absolut break condition
   DEPER  =   0.30     relativ break condition  

   TIME   =   0.40     timestep for ELM

  volume/ion in A,a.u.               =      20.97       141.52
  Fermi-wavevector in a.u.,A,eV,Ry     =   0.942365  1.780812 12.082689  0.888053
  Thomas-Fermi vector in A             =   2.069968

 Write flags
   LWAVE        =      F    write WAVECAR
   LDOWNSAMPLE  =      F    k-point downsampling of WAVECAR
   LCHARG       =      F    write CHGCAR
   LVTOT        =      F    write LOCPOT, total local potential
   LVHAR        =      F    write LOCPOT, Hartree potential only
   LELF         =      F    write electronic localiz. function (ELF)
   LORBIT       =      0    0 simple, 1 ext, 2 COOP (PROOUT), +10 PAW based schemes


 Dipole corrections
   LMONO  =      F    monopole corrections only (constant potential shift)
   LDIPOL =      F    correct potential (dipole corrections)
   IDIPOL =      0    1-x, 2-y, 3-z, 4-all directions 
   EPSILON=  1.0000000 bulk dielectric constant

 Exchange correlation treatment:
   GGA     =    --    GGA type
   LEXCH   =     8    internal setting for exchange type
   VOSKOWN=      0    Vosko Wilk Nusair interpolation
   LHFCALC =     F    Hartree Fock is set to
   LHFONE  =     F    Hartree Fock one center treatment
   AEXX    =    0.0000 exact exchange contribution

 Linear response parameters
   LEPSILON=     F    determine dielectric tensor
   LRPA    =     F    only Hartree local field effects (RPA)
   LNABLA  =     F    use nabla operator in PAW spheres
   LVEL    =     F    velocity operator in full k-point grid
   LINTERFAST=   F  fast interpolation
   KINTER  =     0    interpolate to denser k-point grid
   CSHIFT  =0.1000    complex shift for real part using Kramers Kronig
   OMEGAMAX=  -1.0    maximum frequency
   DEG_THRESHOLD= 0.2000000E-02 threshold for treating states as degnerate
   RTIME   =   -0.100 relaxation time in fs
  (WPLASMAI=    0.000 imaginary part of plasma frequency in eV, 0.658/RTIME)
   DFIELD  = 0.0000000 0.0000000 0.0000000 field for delta impulse in time

 Orbital magnetization related:
   ORBITALMAG=     F  switch on orbital magnetization
   LCHIMAG   =     F  perturbation theory with respect to B field
   DQ        =  0.001000  dq finite difference perturbation B field
   LLRAUG    =     F  two centre corrections for induced B field



--------------------------------------------------------------------------------------------------------


 Static calculation
 charge density and potential will be updated during run
 non-spin polarized calculation
 RMM-DIIS sequential band-by-band and
  variant of blocked Davidson during initial phase
 perform sub-space diagonalisation
    before iterative eigenvector-optimisation
 modified Broyden-mixing scheme, WC =      100.0
 initial mixing is a Kerker type mixing with AMIX =  0.4000 and BMIX =      1.0000
 Hartree-type preconditioning will be used
 using additional bands            8
 reciprocal scheme for non local part
 use partial core corrections
 calculate Harris-corrections to forces   (improved forces if not selfconsistent)
 use gradient corrections 
 use of overlap-Matrix (Vanderbilt PP)
 Methfessel and Paxton  Order N= 1 SIGMA  =   0.20


--------------------------------------------------------------------------------------------------------


  energy-cutoff  :      520.00
  volume of cell :      167.77
      direct lattice vectors                 reciprocal lattice vectors
     5.515338251  0.000000000  0.000000000     0.181312542 -0.000000000  0.000000000
     0.000000000  5.515338251  0.000000000     0.000000000  0.181312542  0.000000000
     0.000000000  0.000000000  5.515338251    -0.000000000 -0.000000000  0.181312542

  length of vectors
     5.515338251  5.515338251  5.515338251     0.181312542  0.181312542  0.181312542



 k-points in units of 2pi/SCALE and weight: # Generated by Masgent for EOS calculati
   0.00000000  0.00000000  0.00000000       0.008
   0.03626251  0.00000000  0.00000000       0.048
   0.07252502  0.00000000  0.00000000       0.048
   0.03626251  0.03626251  0.00000000       0.096
   0.07252502  0.03626251  0.00000000       0.192
   0.07252502  0.07252502  0.00000000       0.096
   0.03626251  0.03626251  0.03626251       0.064
   0.07252502  0.03626251  0.03626251       0.192
   0.07252502  0.07252502  0.03626251       0.192
   0.07252502  0.07252502  0.07252502       0.064

 k-points in reciprocal lattice and weights: # Generated by Masgent for EOS calculati
   0.00000000  0.00000000  0.00000000       0.008
   0.20000000  0.00000000  0.00000000       0.048
   0.40000000  0.00000000  0.00000000       0.048
   0.20000000  0.20000000  0.00000000       0.096
   0.40000000  0.20000000  0.00000000       0.192
   0.40000000  0.40000000  0.00000000       0.096
   0.20000000  0.20000000  0.20000000       0.064
   0.40000000  0.20000000  0.20000000       0.192
   0.40000000  0.40000000  0.20000000       0.192
   0.40000000  0.40000000  0.40000000       0.064

 position of ions in fractional coordinates (direct lattice) 
   0.75000000  0.75000000  0.25000000
   0.00000000  0.50000000  0.50000000
   0.75000000  0.25000000  0.75000000
   0.00000000  0.00000000  0.00000000
   0.25000000  0.75000000  0.75000000
   0.50000000  0.50000000  0.00000000
   0.25000000  0.25000000  0.25000000
   0.50000000  0.00000000  0.50000000

 position of ions in cartesian coordinates  (Angst):
   4.13650369  4.13650369  1.37883456
   0.00000000  2.75766913  2.75766913
   4.13650369  1.37883456  4.13650369
   0.00000000  0.00000000  0.00000000
   1.37883456  4.13650369  4.13650369
   2.75766913  2.75766913  0.00000000
   1.37883456  1.37883456  1.37883456
   2.75766913  0.00000000  2.75766913



--------------------------------------------------------------------------------------------------------


 k-point   1 :   0.0000 0.0000 0.0000  plane waves:    4553
 k-point   2 :   0.2000 0.0000 0.0000  plane waves:    4545
 k-point   3 :   0.4000 0.0000 0.0000  plane waves:    4520
 k-point   4 :   0.2000 0.2000 0.0000  plane waves:    4529
 k-point   5 :   0.4000 0.2000 0.0000  plane waves:    4501
 k-point   6 :   0.4000 0.4000 0.0000  plane waves:    4514
 k-point   7 :   0.2000 0.2000 0.2000  plane waves:    4512
 k-point   8 :   0.4000 0.2000 0.2000  plane waves:    4516
 k-point   9 :   0.4000 0.4000 0.2000  plane waves:    4530
 k-point  10 :   0.4000 0.4000 0.4000  plane waves:    4524

 maximum and minimum number of plane-waves per node :      4553     4501

 maximum number of plane-waves:      4553
 maximum index in each direction: 
   IXMAX=   10   IYMAX=   10   IZMAX=   10
   IXMIN=  -10   IYMIN=  -10   IZMIN=  -10


 serial   3D FFT for wavefunctions
 parallel 3D FFT for charge:
    minimum data exchange during FFTs selected (reduces bandwidth)


 total amount of memory used by VASP MPI-rank0    53576. kBytes
=======================================================================

   base      :      30000. kBytes
   nonl-proj :       3499. kBytes
   fftplans  :       5401. kBytes
   grid      :      10217. kBytes
   one-center:         24. kBytes
   wavefun   :       4435. kBytes

     INWAV:  cpu time    0.0000: real time    0.0001
 Broyden mixing: mesh for mixing (old mesh)
   NGX = 21   NGY = 21   NGZ = 21
  (NGX  = 84   NGY  = 84   NGZ  = 84)
  gives a total of   9261 points

 initial charge density was supplied:
 charge density of overlapping atoms calculated
 number of electron      32.0000000 magnetization 
 keeping initial charge density in first step


--------------------------------------------------------------------------------------------------------


 Maximum index for augmentation-charges         3587 (set IRDMAX)


--------------------------------------------------------------------------------------------------------


 First call to EWALD:  gamma=   0.321
 Maximum number of real-space cells 3x 3x 3
 Maximum number of reciprocal cells 3x 3x 3

    FEWALD:  cpu time    0.0005: real time    0.0005


--------------------------------------- Iteration      1(   1)  ---------------------------------------


    POTLOK:  cpu time    0.0471: real time    0.0480
    SETDIJ:  cpu time    0.0528: real time    0.0528
     EDDAV:  cpu time    0.4238: real time    0.4239
       DOS:  cpu time    0.0003: real time    0.0004
    --------------------------------------------
      LOOP:  cpu time    0.5241: real time    0.5251

 eigenvalue-minimisations  :   480
 total energy-change (2. order) : 0.6874340E+02  (-0.1200804E+04)
 number of electron      32.0000000 magnetization 
 augmentation part       32.0000000 magnetization 

 Free energy of the ion-electron system (eV)
  ---------------------------------------------------
  alpha Z        PSCENC =        12.84154698
  Ewald energy   TEWEN  =      -900.10797417
  -Hartree energ DENC   =       -46.85750925
  -exchange      EXHF   =         0.00000000
  -V(xc)+E(xc)   XCENC  =       -75.13291751
  PAW double counting   =       263.82083246     -123.07410713
  entropy T*S    EENTRO =        -0.02053978
  eigenvalues    EBANDS =       112.74325514
  atomic energy  EATOM  =       824.53081094
  Solvation  Ediel_sol  =         0.00000000
  ---------------------------------------------------
  free energy    TOTEN  =        68.74339769 eV

  energy without entropy =       68.76393746  energy(sigma->0) =       68.75024428


--------------------------------------------------------------------------------------------------------




--------------------------------------- Iteration      1(   2)  ---------------------------------------


     EDDAV:  cpu time    0.5222: real time    0.5223
       DOS:  cpu time    0.0002: real time    0.0003
    --------------------------------------------
      LOOP:  cpu time    0.5224: real time    0.5226

 eigenvalue-minimisations  :   648
 total energy-change (2. order) :-0.1076548E+03  (-0.1003213E+03)
 number of electron      32.0000000 magnetization 
 augmentation part       32.0000000 magnetization 

 Free energy of the ion-electron system (eV)
  ---------------------------------------------------
  alpha Z        PSCENC =        12.84154698
  Ewald energy   TEWEN  =      -900.10797417
  -Hartree energ DENC   =       -46.85750925
  -exchange      EXHF   =         0.00000000
  -V(xc)+E(xc)   XCENC  =       -75.13291751
  PAW double counting   =       263.82083246     -123.07410713
  entropy T*S    EENTRO =         0.00236392
  eigenvalues    EBANDS =         5.06558797
  atomic energy  EATOM  =       824.53081094
  Solvation  Ediel_sol  =         0.00000000
  ---------------------------------------------------
  free energy    TOTEN  =       -38.91136579 eV

  energy without entropy =      -38.91372971  energy(sigma->0) =      -38.91215376


--------------------------------------------------------------------------------------------------------




--------------------------------------- Iteration      1(   3)  ---------------------------------------


     EDDAV:  cpu time    0.5006: real time    0.5008
       DOS:  cpu time    0.0002: real time    0.0003
    --------------------------------------------
      LOOP:  cpu time    0.5009: real time    0.5010

 eigenvalue-minimisations  :   616
 total energy-change (2. order) :-0.4981919E+01  (-0.4916949E+01)
 number of electron      32.0000000 magnetization 
 augmentation part       32.0000000 magnetization 

 Free energy of the ion-electron system (eV)
  ---------------------------------------------------
  alpha Z        PSCENC =        12.84154698
  Ewald energy   TEWEN  =      -900.10797417
  -Hartree energ DENC   =       -46.85750925
  -exchange      EXHF   =         0.00000000
  -V(xc)+E(xc)   XCENC  =       -75.13291751
  PAW double counting   =       263.82083246     -123.07410713
  entropy T*S    EENTRO =         0.00179104
  eigenvalues    EBANDS =         0.08424166
  atomic energy  EATOM  =       824.53081094
  Solvation  Ediel_sol  =         0.00000000
  ---------------------------------------------------
  free energy    TOTEN  =       -43.89328498 eV

  energy without entropy =      -43.89507601  energy(sigma->0) =      -43.89388199


--------------------------------------------------------------------------------------------------------




--------------------------------------- Iteration      1(   4)  ---------------------------------------


     EDDAV:  cpu time    0.4969: real time    0.4971
       DOS:  cpu time    0.0002: real time    0.0003
    --------------------------------------------
      LOOP:  cpu time    0.4971: real time    0.4974

 eigenvalue-minimisations  :   616
 total energy-change (2. order) :-0.8871508E-01  (-0.8860472E-01)
 number of electron      32.0000000 magnetization 
 augmentation part       32.0000000 magnetization 

 Free energy of the ion-electron system (eV)
  ---------------------------------------------------
  alpha Z        PSCENC =        12.84154698
  Ewald energy   TEWEN  =      -900.10797417
  -Hartree energ DENC   =       -46.85750925
  -exchange      EXHF   =         0.00000000
  -V(xc)+E(xc)   XCENC  =       -75.13291751
  PAW double counting   =       263.82083246     -123.07410713
  entropy T*S    EENTRO =         0.00179564
  eigenvalues    EBANDS =        -0.00447803
  atomic energy  EATOM  =       824.53081094
  Solvation  Ediel_sol  =         0.00000000
  ---------------------------------------------------
  free energy    TOTEN  =       -43.98200006 eV

  energy without entropy =      -43.98379570  energy(sigma->0) =      -43.98259861


--------------------------------------------------------------------------------------------------------




--------------------------------------- Iteration      1(   5)  ---------------------------------------


     EDDAV:  cpu time    0.5116: real time    0.5117
       DOS:  cpu time    0.0003: real time    0.0003
    CHARGE:  cpu time    0.0619: real time    0.0619
    MIXING:  cpu time    0.0018: real time    0.0018
    --------------------------------------------
      LOOP:  cpu time    0.5755: real time    0.5757

 eigenvalue-minimisations  :   632
 total energy-change (2. order) :-0.1931477E-02  (-0.1930870E-02)
 number of electron      31.9999996 magnetization 
 augmentation part       -1.8736654 magnetization 

 Broyden mixing:
  rms(total) = 0.57921E+00    rms(broyden)= 0.57921E+00
  rms(prec ) = 0.10680E+01
  weight for this iteration     100.00

 Free energy of the ion-electron system (eV)
  ---------------------------------------------------
  alpha Z        PSCENC =        12.84154698
  Ewald energy   TEWEN  =      -900.10797417
  -Hartree energ DENC   =       -46.85750925
  -exchange      EXHF   =         0.00000000
  -V(xc)+E(xc)   XCENC  =       -75.13291751
  PAW double counting   =       263.82083246     -123.07410713
  entropy T*S    EENTRO =         0.00179855
  eigenvalues    EBANDS =        -0.00641241
  atomic energy  EATOM  =       824.53081094
  Solvation  Ediel_sol  =         0.00000000
  ---------------------------------------------------
  free energy    TOTEN  =       -43.98393154 eV

  energy without entropy =      -43.98573009  energy(sigma->0) =      -43.98453105


--------------------------------------------------------------------------------------------------------




--------------------------------------- Iteration      1(   6)  ---------------------------------------


    POTLOK:  cpu time    0.0462: real time    0.0465
    SETDIJ:  cpu time    0.0529: real time    0.0529
    EDDIAG:  cpu time    0.0938: real time    0.0938
  RMM-DIIS:  cpu time    0.3410: real time    0.3410
    ORTHCH:  cpu time    0.0043: real time    0.0043
       DOS:  cpu time    0.0003: real time    0.0004
    CHARGE:  cpu time    0.0576: real time    0.0576
    MIXING:  cpu time    0.0010: real time    0.0010
    --------------------------------------------
      LOOP:  cpu time    0.5970: real time    0.5974

 eigenvalue-minimisations  :   481
 total energy-change (2. order) : 0.4248619E+00  (-0.1991587E-01)
 number of electron      31.9999996 magnetization 
 augmentation part       -1.8538227 magnetization 

 Broyden mixing:
  rms(total) = 0.34848E+00    rms(broyden)= 0.34848E+00
  rms(prec ) = 0.64006E+00
  weight for this iteration     100.00

 eigenvalues of (default mixing * dielectric matrix)
  average eigenvalue GAMMA=   2.4955
  2.4955

 Free energy of the ion-electron system (eV)
  ---------------------------------------------------
  alpha Z        PSCENC =        12.84154698
  Ewald energy   TEWEN  =      -900.10797417
  -Hartree energ DENC   =       -52.54524755
  -exchange      EXHF   =         0.00000000
  -V(xc)+E(xc)   XCENC  =       -74.24259100
  PAW double counting   =       277.32439189     -136.94993608
  entropy T*S    EENTRO =         0.00178534
  eigenvalues    EBANDS =         5.58814399
  atomic energy  EATOM  =       824.53081094
  Solvation  Ediel_sol  =         0.00000000
  ---------------------------------------------------
  free energy    TOTEN  =       -43.55906965 eV

  energy without entropy =      -43.56085499  energy(sigma->0) =      -43.55966476


--------------------------------------------------------------------------------------------------------




--------------------------------------- Iteration      1(   7)  ---------------------------------------


    POTLOK:  cpu time    0.0439: real time    0.0440
    SETDIJ:  cpu time    0.0523: real time    0.0523
    EDDIAG:  cpu time    0.0939: real time    0.0939
  RMM-DIIS:  cpu time    0.3581: real time    0.3582
    ORTHCH:  cpu time    0.0043: real time    0.0043
       DOS:  cpu time    0.0003: real time    0.0005
    CHARGE:  cpu time    0.0569: real time    0.0569
    MIXING:  cpu time    0.0010: real time    0.0010
    --------------------------------------------
      LOOP:  cpu time    0.6108: real time    0.6111

 eigenvalue-minimisations  :   514
 total energy-change (2. order) : 0.2026413E+00  (-0.5038161E-01)
 number of electron      31.9999996 magnetization 
 augmentation part       -1.8261194 magnetization 

 Broyden mixing:
  rms(total) = 0.28523E-01    rms(broyden)= 0.28523E-01
  rms(prec ) = 0.49087E-01
  weight for this iteration     100.00

 eigenvalues of (default mixing * dielectric matrix)
  average eigenvalue GAMMA=   2.7787
  2.7787  2.7787

 Free energy of the ion-electron system (eV)
  ---------------------------------------------------
  alpha Z        PSCENC =        12.84154698
  Ewald energy   TEWEN  =      -900.10797417
  -Hartree energ DENC   =       -62.14428304
  -exchange      EXHF   =         0.00000000
  -V(xc)+E(xc)   XCENC  =       -72.71453434
  PAW double counting   =       295.52867459     -155.64488416
  entropy T*S    EENTRO =         0.00179804
  eigenvalues    EBANDS =        14.35241683
  atomic energy  EATOM  =       824.53081094
  Solvation  Ediel_sol  =         0.00000000
  ---------------------------------------------------
  free energy    TOTEN  =       -43.35642832 eV

  energy without entropy =      -43.35822637  energy(sigma->0) =      -43.35702767


--------------------------------------------------------------------------------------------------------




--------------------------------------- Iteration      1(   8)  ---------------------------------------


    POTLOK:  cpu time    0.0437: real time    0.0439
    SETDIJ:  cpu time    0.0519: real time    0.0519
    EDDIAG:  cpu time    0.0912: real time    0.0912
  RMM-DIIS:  cpu time    0.3565: real time    0.3565
    ORTHCH:  cpu time    0.0043: real time    0.0043
       DOS:  cpu time    0.0002: real time    0.0004
    CHARGE:  cpu time    0.0563: real time    0.0563
    MIXING:  cpu time    0.0010: real time    0.0010
    --------------------------------------------
      LOOP:  cpu time    0.6053: real time    0.6056

 eigenvalue-minimisations  :   511
 total energy-change (2. order) :-0.8482286E-02  (-0.4744769E-02)
 number of electron      31.9999996 magnetization 
 augmentation part       -1.8312960 magnetization 

 Broyden mixing:
  rms(total) = 0.81332E-02    rms(broyden)= 0.81332E-02
  rms(prec ) = 0.19476E-01
  weight for this iteration     100.00

 eigenvalues of (default mixing * dielectric matrix)
  average eigenvalue GAMMA=   2.1036
  2.7354  1.7877  1.7877

 Free energy of the ion-electron system (eV)
  ---------------------------------------------------
  alpha Z        PSCENC =        12.84154698
  Ewald energy   TEWEN  =      -900.10797417
  -Hartree energ DENC   =       -61.62710031
  -exchange      EXHF   =         0.00000000
  -V(xc)+E(xc)   XCENC  =       -72.74302156
  PAW double counting   =       290.58838100     -150.55311772
  entropy T*S    EENTRO =         0.00177609
  eigenvalues    EBANDS =        13.70378815
  atomic energy  EATOM  =       824.53081094
  Solvation  Ediel_sol  =         0.00000000
  ---------------------------------------------------
  free energy    TOTEN  =       -43.36491061 eV

  energy without entropy =      -43.36668669  energy(sigma->0) =      -43.36550264


--------------------------------------------------------------------------------------------------------




--------------------------------------- Iteration      1(   9)  ---------------------------------------


    POTLOK:  cpu time    0.0437: real time    0.0438
    SETDIJ:  cpu time    0.0519: real time    0.0519
    EDDIAG:  cpu time    0.0915: real time    0.0915
  RMM-DIIS:  cpu time    0.3881: real time    0.3882
    ORTHCH:  cpu time    0.0054: real time    0.0054
       DOS:  cpu time    0.0002: real time    0.0003
    CHARGE:  cpu time    0.0586: real time    0.0586
    MIXING:  cpu time    0.0011: real time    0.0011
    --------------------------------------------
      LOOP:  cpu time    0.6406: real time    0.6409

 eigenvalue-minimisations  :   554
 total energy-change (2. order) :-0.9347974E-03  (-0.1208768E-02)
 number of electron      31.9999996 magnetization 
 augmentation part       -1.8299020 magnetization 

 Broyden mixing:
  rms(total) = 0.75918E-02    rms(broyden)= 0.75918E-02
  rms(prec ) = 0.12306E-01
  weight for this iteration     100.00

 eigenvalues of (default mixing * dielectric matrix)
  average eigenvalue GAMMA=   2.1525
  2.9776  2.9776  0.9578  1.6968

 Free energy of the ion-electron system (eV)
  ---------------------------------------------------
  alpha Z        PSCENC =        12.84154698
  Ewald energy   TEWEN  =      -900.10797417
  -Hartree energ DENC   =       -62.02227477
  -exchange      EXHF   =         0.00000000
  -V(xc)+E(xc)   XCENC  =       -72.68831993
  PAW double counting   =       291.71347305     -151.71133284
  entropy T*S    EENTRO =         0.00177830
  eigenvalues    EBANDS =        14.07644702
  atomic energy  EATOM  =       824.53081094
  Solvation  Ediel_sol  =         0.00000000
  ---------------------------------------------------
  free energy    TOTEN  =       -43.36584541 eV

  energy without entropy =      -43.36762370  energy(sigma->0) =      -43.36643817


--------------------------------------------------------------------------------------------------------




--------------------------------------- Iteration      1(  10)  ---------------------------------------


    POTLOK:  cpu time    0.0449: real time    0.0451
    SETDIJ:  cpu time    0.0521: real time    0.0521
    EDDIAG:  cpu time    0.0926: real time    0.0926
  RMM-DIIS:  cpu time    0.3676: real time    0.3676
    ORTHCH:  cpu time    0.0044: real time    0.0044
       DOS:  cpu time    0.0002: real time    0.0004
    CHARGE:  cpu time    0.0566: real time    0.0566
    MIXING:  cpu time    0.0010: real time    0.0010
    --------------------------------------------
      LOOP:  cpu time    0.6194: real time    0.6198

 eigenvalue-minimisations  :   524
 total energy-change (2. order) :-0.3705317E-03  (-0.2912157E-03)
 number of electron      31.9999996 magnetization 
 augmentation part       -1.8314416 magnetization 

 Broyden mixing:
  rms(total) = 0.42941E-02    rms(broyden)= 0.42940E-02
  rms(prec ) = 0.87690E-02
  weight for this iteration     100.00

 eigenvalues of (default mixing * dielectric matrix)
  average eigenvalue GAMMA=   2.0626
  3.3703  2.7203  2.2810  1.0906  0.8506

 Free energy of the ion-electron system (eV)
  ---------------------------------------------------
  alpha Z        PSCENC =        12.84154698
  Ewald energy   TEWEN  =      -900.10797417
  -Hartree energ DENC   =       -61.78781164
  -exchange      EXHF   =         0.00000000
  -V(xc)+E(xc)   XCENC  =       -72.71896465
  PAW double counting   =       290.89613309     -150.87107795
  entropy T*S    EENTRO =         0.00177389
  eigenvalues    EBANDS =        13.84934758
  atomic energy  EATOM  =       824.53081094
  Solvation  Ediel_sol  =         0.00000000
  ---------------------------------------------------
  free energy    TOTEN  =       -43.36621594 eV

  energy without entropy =      -43.36798982  energy(sigma->0) =      -43.36680723


--------------------------------------------------------------------------------------------------------




--------------------------------------- Iteration      1(  11)  ---------------------------------------


    POTLOK:  cpu time    0.0437: real time    0.0438
    SETDIJ:  cpu time    0.0522: real time    0.0522
    EDDIAG:  cpu time    0.0937: real time    0.0937
  RMM-DIIS:  cpu time    0.3965: real time    0.3965
    ORTHCH:  cpu time    0.0043: real time    0.0043
       DOS:  cpu time    0.0003: real time    0.0005
    CHARGE:  cpu time    0.0564: real time    0.0564
    MIXING:  cpu time    0.0011: real time    0.0011
    --------------------------------------------
      LOOP:  cpu time    0.6481: real time    0.6484

 eigenvalue-minimisations  :   563
 total energy-change (2. order) :-0.1627580E-04  (-0.8806022E-04)
 number of electron      31.9999996 magnetization 
 augmentation part       -1.8310682 magnetization 

 Broyden mixing:
  rms(total) = 0.41053E-03    rms(broyden)= 0.41052E-03
  rms(prec ) = 0.57576E-03
  weight for this iteration     100.00

 eigenvalues of (default mixing * dielectric matrix)
  average eigenvalue GAMMA=   2.2043
  4.1368  2.8548  2.4482  1.9770  0.9046  0.9046

 Free energy of the ion-electron system (eV)
  ---------------------------------------------------
  alpha Z        PSCENC =        12.84154698
  Ewald energy   TEWEN  =      -900.10797417
  -Hartree energ DENC   =       -61.93340522
  -exchange      EXHF   =         0.00000000
  -V(xc)+E(xc)   XCENC  =       -72.69992617
  PAW double counting   =       291.41325013     -151.40387368
  entropy T*S    EENTRO =         0.00177498
  eigenvalues    EBANDS =        13.99156399
  atomic energy  EATOM  =       824.53081094
  Solvation  Ediel_sol  =         0.00000000
  ---------------------------------------------------
  free energy    TOTEN  =       -43.36623221 eV

  energy without entropy =      -43.36800719  energy(sigma->0) =      -43.36682387


--------------------------------------------------------------------------------------------------------




--------------------------------------- Iteration      1(  12)  ---------------------------------------


    POTLOK:  cpu time    0.0436: real time    0.0438
    SETDIJ:  cpu time    0.0522: real time    0.0522
    EDDIAG:  cpu time    0.0938: real time    0.0938
  RMM-DIIS:  cpu time    0.4067: real time    0.4067
    ORTHCH:  cpu time    0.0043: real time    0.0043
       DOS:  cpu time    0.0003: real time    0.0004
    CHARGE:  cpu time    0.0568: real time    0.0568
    MIXING:  cpu time    0.0011: real time    0.0011
    --------------------------------------------
      LOOP:  cpu time    0.6588: real time    0.6591

 eigenvalue-minimisations  :   593
 total energy-change (2. order) :-0.2240219E-04  (-0.2084958E-04)
 number of electron      31.9999996 magnetization 
 augmentation part       -1.8312806 magnetization 

 Broyden mixing:
  rms(total) = 0.39614E-03    rms(broyden)= 0.39614E-03
  rms(prec ) = 0.58993E-03
  weight for this iteration     100.00

 eigenvalues of (default mixing * dielectric matrix)
  average eigenvalue GAMMA=   2.1358
  4.6428  2.6639  0.8527  1.0393  2.1407  1.8055  1.8055

 Free energy of the ion-electron system (eV)
  ---------------------------------------------------
  alpha Z        PSCENC =        12.84154698
  Ewald energy   TEWEN  =      -900.10797417
  -Hartree energ DENC   =       -61.93824818
  -exchange      EXHF   =         0.00000000
  -V(xc)+E(xc)   XCENC  =       -72.69992028
  PAW double counting   =       291.43111536     -151.42275179
  entropy T*S    EENTRO =         0.00177497
  eigenvalues    EBANDS =        13.99739154
  atomic energy  EATOM  =       824.53081094
  Solvation  Ediel_sol  =         0.00000000
  ---------------------------------------------------
  free energy    TOTEN  =       -43.36625461 eV

  energy without entropy =      -43.36802959  energy(sigma->0) =      -43.36684627


--------------------------------------------------------------------------------------------------------




--------------------------------------- Iteration      1(  13)  ---------------------------------------


    POTLOK:  cpu time    0.0436: real time    0.0438
    SETDIJ:  cpu time    0.0519: real time    0.0519
    EDDIAG:  cpu time    0.0921: real time    0.0921
  RMM-DIIS:  cpu time    0.3744: real time    0.3744
    ORTHCH:  cpu time    0.0043: real time    0.0043
       DOS:  cpu time    0.0002: real time    0.0004
    CHARGE:  cpu time    0.0569: real time    0.0569
    MIXING:  cpu time    0.0011: real time    0.0011
    --------------------------------------------
      LOOP:  cpu time    0.6246: real time    0.6249

 eigenvalue-minimisations  :   534
 total energy-change (2. order) :-0.1787809E-05  (-0.5028359E-05)
 number of electron      31.9999996 magnetization 
 augmentation part       -1.8313281 magnetization 

 Broyden mixing:
  rms(total) = 0.39046E-03    rms(broyden)= 0.39046E-03
  rms(prec ) = 0.68796E-03
  weight for this iteration     100.00

 eigenvalues of (default mixing * dielectric matrix)
  average eigenvalue GAMMA=   1.9293
  3.4170  3.0902  2.6330  2.3860  0.8625  0.9382  1.0536  1.0536

 Free energy of the ion-electron system (eV)
  ---------------------------------------------------
  alpha Z        PSCENC =        12.84154698
  Ewald energy   TEWEN  =      -900.10797417
  -Hartree energ DENC   =       -61.93667703
  -exchange      EXHF   =         0.00000000
  -V(xc)+E(xc)   XCENC  =       -72.70083822
  PAW double counting   =       291.37967709     -151.37049767
  entropy T*S    EENTRO =         0.00177468
  eigenvalues    EBANDS =        13.99592099
  atomic energy  EATOM  =       824.53081094
  Solvation  Ediel_sol  =         0.00000000
  ---------------------------------------------------
  free energy    TOTEN  =       -43.36625640 eV

  energy without entropy =      -43.36803108  energy(sigma->0) =      -43.36684796


--------------------------------------------------------------------------------------------------------




--------------------------------------- Iteration      1(  14)  ---------------------------------------


    POTLOK:  cpu time    0.0435: real time    0.0437
    SETDIJ:  cpu time    0.0521: real time    0.0521
    EDDIAG:  cpu time    0.0917: real time    0.0917
  RMM-DIIS:  cpu time    0.3383: real time    0.3383
    ORTHCH:  cpu time    0.0044: real time    0.0044
       DOS:  cpu time    0.0003: real time    0.0005
    CHARGE:  cpu time    0.0569: real time    0.0569
    MIXING:  cpu time    0.0011: real time    0.0011
    --------------------------------------------
      LOOP:  cpu time    0.5884: real time    0.5887

 eigenvalue-minimisations  :   489
 total energy-change (2. order) :-0.1267828E-05  (-0.8267469E-06)
 number of electron      31.9999996 magnetization 
 augmentation part       -1.8313767 magnetization 

 Broyden mixing:
  rms(total) = 0.23210E-03    rms(broyden)= 0.23210E-03
  rms(prec ) = 0.39022E-03
  weight for this iteration     100.00

 eigenvalues of (default mixing * dielectric matrix)
  average eigenvalue GAMMA=   1.7287
  3.5235  2.9293  2.6075  2.3906  0.9077  0.9019  1.0253  1.0253  0.2476

 Free energy of the ion-electron system (eV)
  ---------------------------------------------------
  alpha Z        PSCENC =        12.84154698
  Ewald energy   TEWEN  =      -900.10797417
  -Hartree energ DENC   =       -61.93190003
  -exchange      EXHF   =         0.00000000
  -V(xc)+E(xc)   XCENC  =       -72.70119918
  PAW double counting   =       291.36986318     -151.36008255
  entropy T*S    EENTRO =         0.00177486
  eigenvalues    EBANDS =        13.99090230
  atomic energy  EATOM  =       824.53081094
  Solvation  Ediel_sol  =         0.00000000
  ---------------------------------------------------
  free energy    TOTEN  =       -43.36625767 eV

  energy without entropy =      -43.36803253  energy(sigma->0) =      -43.36684929


--------------------------------------------------------------------------------------------------------




--------------------------------------- Iteration      1(  15)  ---------------------------------------


    POTLOK:  cpu time    0.0438: real time    0.0439
    SETDIJ:  cpu time    0.0519: real time    0.0519
    EDDIAG:  cpu time    0.0964: real time    0.0964
  RMM-DIIS:  cpu time    0.2755: real time    0.2756
    ORTHCH:  cpu time    0.0042: real time    0.0042
       DOS:  cpu time    0.0002: real time    0.0003
    --------------------------------------------
      LOOP:  cpu time    0.4720: real time    0.4723

 eigenvalue-minimisations  :   373
 total energy-change (2. order) :-0.1009690E-06  (-0.2223211E-06)
 number of electron      31.9999996 magnetization 
 augmentation part       -1.8313767 magnetization 

 Free energy of the ion-electron system (eV)
  ---------------------------------------------------
  alpha Z        PSCENC =        12.84154698
  Ewald energy   TEWEN  =      -900.10797417
  -Hartree energ DENC   =       -61.93075345
  -exchange      EXHF   =         0.00000000
  -V(xc)+E(xc)   XCENC  =       -72.70139964
  PAW double counting   =       291.36651902     -151.35669959
  entropy T*S    EENTRO =         0.00177486
  eigenvalues    EBANDS =        13.98991727
  atomic energy  EATOM  =       824.53081094
  Solvation  Ediel_sol  =         0.00000000
  ---------------------------------------------------
  free energy    TOTEN  =       -43.36625777 eV

  energy without entropy =      -43.36803263  energy(sigma->0) =      -43.36684939


--------------------------------------------------------------------------------------------------------




 average (electrostatic) potential at core
  the test charge radii are     0.9892
  (the norm of the test charge is              1.0000)
       1 -83.7620       2 -83.7620       3 -83.7620       4 -83.7620       5 -83.7620
       6 -83.7620       7 -83.7620       8 -83.7620



 E-fermi :   5.4663     XC(G=0):  -9.2281     alpha+bet :-11.4368

 Fermi energy:         5.4663228191

 k-point     1 :       0.0000    0.0000    0.0000
  band No.  band energies     occupation 
      1      -6.2780      2.00000
      2      -2.3004      2.00000
      3      -2.3004      2.00000
      4      -2.3004      2.00000
      5      -2.3004      2.00000
      6      -2.3004      2.00000
      7      -2.3004      2.00000
      8       2.6382      2.00000
      9       2.6382      2.00000
     10       2.6382      2.00000
     11       2.6382      2.00000
     12       2.6382      2.00000
     13       2.6382      2.00000
     14       5.3667      1.73790
     15       5.3667      1.73790
     16       5.3667      1.73790
     17       6.1655     -0.00001
     18       6.1655     -0.00001
     19       6.1655     -0.00001
     20       6.1655     -0.00001
     21       6.1655     -0.00001
     22       6.1655     -0.00001
     23       7.9120     -0.00000
     24       7.9121     -0.00000

 k-point     2 :       0.2000    0.0000    0.0000
  band No.  band energies     occupation 
      1      -6.1100      2.00000
      2      -3.6741      2.00000
      3      -2.2534      2.00000
      4      -2.2534      2.00000
      5      -2.2534      2.00000
      6      -2.2534      2.00000
      7      -0.7269      2.00000
      8       2.2598      2.00000
      9       2.2598      2.00000
     10       2.2598      2.00000
     11       2.2598      2.00000
     12       2.7901      2.00000
     13       2.7901      2.00000
     14       4.3859      2.00000
     15       4.8221      2.00005
     16       4.8221      2.00005
     17       6.0265     -0.00054
     18       6.7590     -0.00000
     19       6.9780     -0.00000
     20       6.9780     -0.00000
     21       6.9780     -0.00000
     22       6.9780     -0.00000
     23       7.5490     -0.00000
     24       8.6632     -0.00000

 k-point     3 :       0.4000    0.0000    0.0000
  band No.  band energies     occupation 
      1      -5.6099      2.00000
      2      -4.7901      2.00000
      3      -2.1713      2.00000
      4      -2.1713      2.00000
      5      -2.1713      2.00000
      6      -2.1713      2.00000
      7       0.9711      2.00000
      8       1.7823      2.00000
      9       1.7823      2.00000
     10       1.7823      2.00000
     11       1.7823      2.00000
     12       2.7136      2.00000
     13       3.2379      2.00000
     14       3.2379      2.00000
     15       3.9505      2.00000
     16       3.9505      2.00000
     17       6.2865     -0.00000
     18       6.8572     -0.00000
     19       7.8238     -0.00000
     20       8.7820     -0.00000
     21       8.7820     -0.00000
     22       8.7820     -0.00000
     23       8.7820     -0.00000
     24       9.1617     -0.00000

 k-point     4 :       0.2000    0.2000    0.0000
  band No.  band energies     occupation 
      1      -5.9443      2.00000
      2      -3.5632      2.00000
      3      -3.5632      2.00000
      4      -2.5337      2.00000
      5      -1.9333      2.00000
      6      -0.8116      2.00000
      7      -0.8116      2.00000
      8       1.5066      2.00000
      9       2.2986      2.00000
     10       2.2986      2.00000
     11       2.6134      2.00000
     12       2.6134      2.00000
     13       2.9026      2.00000
     14       3.3390      2.00000
     15       4.2688      2.00000
     16       5.1926      2.06570
     17       6.4687     -0.00000
     18       6.8894     -0.00000
     19       6.8894     -0.00000
     20       7.4855     -0.00000
     21       7.4855     -0.00000
     22       8.1793     -0.00000
     23       8.2597     -0.00000
     24       8.4265     -0.00000

 k-point     5 :       0.4000    0.2000    0.0000
  band No.  band energies     occupation 
      1      -5.4517      2.00000
      2      -4.6477      2.00000
      3      -3.2627      2.00000
      4      -2.8754      2.00000
      5      -1.5230      2.00000
      6      -1.0966      2.00000
      7       0.6372      2.00000
      8       1.2480      2.00000
      9       1.5815      2.00000
     10       2.0140      2.00000
     11       2.5249      2.00000
     12       2.6916      2.00000
     13       2.7824      2.00000
     14       3.3760      2.00000
     15       3.3884      2.00000
     16       4.4288      2.00000
     17       7.1616     -0.00000
     18       7.5502     -0.00000
     19       7.7047     -0.00000
     20       8.4337     -0.00000
     21       8.7311     -0.00000
     22       8.9059     -0.00000
     23       9.1550     -0.00000
     24       9.6600     -0.00000

 k-point     6 :       0.4000    0.4000    0.0000
  band No.  band energies     occupation 
      1      -4.9848      2.00000
      2      -4.2359      2.00000
      3      -4.2359      2.00000
      4      -3.6086      2.00000
      5      -0.8401      2.00000
      6      -0.0814      2.00000
      7      -0.0814      2.00000
      8       0.9491      2.00000
      9       1.3095      2.00000
     10       1.8576      2.00000
     11       1.8576      2.00000
     12       2.5102      2.00000
     13       3.6283      2.00000
     14       3.6579      2.00000
     15       3.6579      2.00000
     16       4.5515      2.00000
     17       7.2929     -0.00000
     18       8.1584     -0.00000
     19       8.4918     -0.00000
     20       8.4918     -0.00000
     21       8.9753     -0.00000
     22       8.9753     -0.00000
     23       9.2947     -0.00000
     24       9.5853     -0.00000

 k-point     7 :       0.2000    0.2000    0.2000
  band No.  band energies     occupation 
      1      -5.7813      2.00000
      2      -3.4888      2.00000
      3      -3.4888      2.00000
      4      -3.4888      2.00000
      5      -0.9581      2.00000
      6      -0.9581      2.00000
      7      -0.9581      2.00000
      8       1.8573      2.00000
      9       1.8573      2.00000
     10       1.8573      2.00000
     11       2.4112      2.00000
     12       3.0449      2.00000
     13       3.0449      2.00000
     14       3.0449      2.00000
     15       4.8122      2.00004
     16       4.8122      2.00004
     17       6.6566     -0.00000
     18       6.6566     -0.00000
     19       6.6566     -0.00000
     20       7.4303     -0.00000
     21       8.6851     -0.00000
     22       8.6936     -0.00000
     23       8.7343     -0.00000
     24       8.7343     -0.00000

 k-point     8 :       0.4000    0.2000    0.2000
  band No.  band energies     occupation 
      1      -5.2987      2.00000
      2      -4.5176      2.00000
      3      -3.3481      2.00000
      4      -3.3481      2.00000
      5      -1.2306      2.00000
      6      -1.2306      2.00000
      7       0.1507      2.00000
      8       1.2365      2.00000
      9       1.7002      2.00000
     10       1.7002      2.00000
     11       2.8436      2.00000
     12       3.0152      2.00000
     13       3.0152      2.00000
     14       3.4592      2.00000
     15       4.0965      2.00000
     16       4.1262      2.00000
     17       7.1644     -0.00000
     18       7.6702     -0.00000
     19       7.7156     -0.00000
     20       7.7156     -0.00000
     21       8.6476     -0.00000
     22       9.4047     -0.00000
     23       9.5918     -0.00000
     24       9.6674     -0.00000

 k-point     9 :       0.4000    0.4000    0.2000
  band No.  band energies     occupation 
      1      -4.8517      2.00000
      2      -4.1568      2.00000
      3      -4.1568      2.00000
      4      -3.6843      2.00000
      5      -1.1664      2.00000
      6      -0.6338      2.00000
      7      -0.6338      2.00000
      8       0.2003      2.00000
      9       2.0699      2.00000
     10       2.5735      2.00000
     11       2.5735      2.00000
     12       3.3976      2.00000
     13       3.7249      2.00000
     14       3.7442      2.00000
     15       3.7442      2.00000
     16       4.4879      2.00000
     17       7.4205     -0.00000
     18       7.6320     -0.00000
     19       8.0430     -0.00000
     20       8.0430     -0.00000
     21       8.6356     -0.00000
     22       8.6356     -0.00000
     23       8.9641     -0.00000
     24       9.0424     -0.00000

 k-point    10 :       0.4000    0.4000    0.4000
  band No.  band energies     occupation 
      1      -4.4832      2.00000
      2      -4.0068      2.00000
      3      -4.0068      2.00000
      4      -4.0068      2.00000
      5      -1.2567      2.00000
      6      -1.2567      2.00000
      7      -1.2567      2.00000
      8      -0.7279      2.00000
      9       3.4510      2.00000
     10       3.4510      2.00000
     11       3.4510      2.00000
     12       3.9790      2.00000
     13       3.9790      2.00000
     14       3.9790      2.00000
     15       4.2806      2.00000
     16       4.2806      2.00000
     17       6.8263     -0.00000
     18       7.3934     -0.00000
     19       7.3934     -0.00000
     20       7.3934     -0.00000
     21       8.6721     -0.00000
     22       8.6721     -0.00000
     23       8.6775     -0.00000
     24       8.7900     -0.00000


--------------------------------------------------------------------------------------------------------


 soft charge-density along one line, spin component           1
         0         1         2         3         4         5         6         7         8         9
 total charge-density along one line

 pseudopotential strength for first ion, spin component:           1
 18.466  -0.000   0.000  -0.000  -0.000  -0.000   0.000   0.000
 -0.000   0.006  -0.000   0.000   0.000   0.000  -0.000  -0.000
  0.000  -0.000   4.183   0.000  -0.000  -0.004  -0.000   0.000
 -0.000   0.000   0.000   4.183   0.000  -0.000  -0.004  -0.000
 -0.000   0.000  -0.000   0.000   4.183   0.000  -0.000  -0.004
 -0.000   0.000  -0.004  -0.000   0.000   0.005   0.000  -0.000
  0.000  -0.000  -0.000  -0.004  -0.000   0.000   0.005   0.000
  0.000  -0.000   0.000  -0.000  -0.004  -0.000   0.000   0.005
 total augmentation occupancy for first ion, spin component:           1
  1.500  -0.723  -0.000  -0.000  -0.000   0.000  -0.000  -0.000
 -0.723   0.701  -0.000   0.000  -0.000  -0.000  -0.000  -0.000
 -0.000  -0.000   1.000   0.000   0.000  -0.527  -0.000  -0.000
 -0.000   0.000   0.000   1.000   0.000  -0.000  -0.527  -0.000
 -0.000  -0.000   0.000   0.000   1.000  -0.000  -0.000  -0.527
 -0.000  -0.000  -0.527  -0.000  -0.000   0.330   0.000   0.000
 -0.000  -0.000  -0.000  -0.527  -0.000   0.000   0.330   0.000
 -0.000   0.000  -0.000  -0.000  -0.527   0.000   0.000   0.330


------------------------ aborting loop because EDIFF is reached ----------------------------------------


    CHARGE:  cpu time    0.0590: real time    0.0590
    FORLOC:  cpu time    0.0024: real time    0.0024
    FORNL :  cpu time    0.1001: real time    0.1001
    STRESS:  cpu time    0.1868: real time    0.1868
    FORCOR:  cpu time    0.0451: real time    0.0451
    FORHAR:  cpu time    0.0114: real time    0.0114
    MIXING:  cpu time    0.0014: real time    0.0014
    OFIELD:  cpu time    0.0000: real time    0.0000

  FORCE on cell =-STRESS in cart. coord.  units (eV):
  Direction    XX          YY          ZZ          XY          YZ          ZX
  --------------------------------------------------------------------------------------
  Alpha Z    12.84155    12.84155    12.84155
  Ewald    -300.03650  -300.03650  -300.03650     0.00000     0.00000     0.00000
  Hartree    20.64146    20.64146    20.64146    -0.00000    -0.00000    -0.00000
  E(xc)    -100.40979  -100.40979  -100.40979     0.00000    -0.00000    -0.00000
  Local    -119.48674  -119.48674  -119.48674     0.00000     0.00000    -0.00000
  n-local   307.93214   311.07110   305.13402    -3.11384    -1.91376    -1.54804
  augment   -46.57995   -46.57995   -46.57995     0.00000    -0.00000     0.00000
  Kinetic   216.30512   226.78016   225.11248    -4.17880    -4.19072    -2.67809
  Fock        0.00000     0.00000     0.00000     0.00000     0.00000     0.00000
  -------------------------------------------------------------------------------------
  Total      -2.25164    -2.25164    -2.25164    -0.00000    -0.00000    -0.00000
  in kB     -21.50266   -21.50266   -21.50266    -0.00000    -0.00000    -0.00000
  external pressure =      -21.50 kB  Pullay stress =        0.00 kB


 VOLUME and BASIS-vectors are now :
 -----------------------------------------------------------------------------
  energy-cutoff  :      520.00
  volume of cell :      167.77
      direct lattice vectors                 reciprocal lattice vectors
     5.515338251  0.000000000  0.000000000     0.181312542 -0.000000000  0.000000000
     0.000000000  5.515338251  0.000000000     0.000000000  0.181312542  0.000000000
     0.000000000  0.000000000  5.515338251    -0.000000000 -0.000000000  0.181312542

  length of vectors
     5.515338251  5.515338251  5.515338251     0.181312542  0.181312542  0.181312542


 FORCES acting on ions
    electron-ion (+dipol)            ewald-force                    non-local-force                 convergence-correction
 -----------------------------------------------------------------------------------------------
   -.438E-13 0.122E-12 -.547E-12   -.142E-13 -.355E-14 -.355E-14   0.145E-17 -.360E-16 -.260E-17   0.908E-15 0.200E-16 -.395E-14
   0.290E-13 -.135E-13 0.615E-14   -.987E-14 -.375E-14 0.356E-14   -.162E-16 0.395E-16 -.173E-17   0.667E-15 -.122E-14 -.251E-14
   -.406E-13 -.485E-12 -.135E-14   -.711E-14 0.000E+00 -.355E-14   0.926E-17 0.169E-16 0.199E-16   0.108E-14 -.127E-14 -.212E-14
   0.116E-13 0.304E-14 0.205E-13   -.469E-14 -.111E-16 0.321E-14   -.753E-17 -.243E-16 -.191E-16   0.924E-15 -.124E-14 -.283E-14
   -.341E-13 0.546E-13 -.150E-12   -.355E-14 0.000E+00 -.355E-14   -.211E-16 -.221E-16 -.165E-16   -.112E-14 0.900E-16 -.208E-14
   0.161E-13 -.232E-12 0.287E-12   0.713E-14 -.478E-15 0.321E-14   0.635E-17 0.108E-16 0.867E-17   0.569E-15 -.916E-15 -.311E-14
   -.296E-13 0.912E-13 -.137E-12   0.711E-14 0.355E-14 -.355E-14   0.405E-16 -.477E-17 0.113E-16   -.142E-14 -.189E-14 -.373E-14
   0.200E-13 0.208E-15 0.830E-13   0.178E-13 0.359E-14 0.357E-14   -.283E-16 -.434E-17 -.173E-17   0.795E-16 -.136E-14 -.270E-14
 -----------------------------------------------------------------------------------------------
   -.715E-13 -.459E-12 -.439E-12   -.738E-14 -.645E-15 -.662E-15   -.156E-16 -.243E-16 -.173E-17   0.168E-14 -.778E-14 -.230E-13


 POSITION                                       TOTAL-FORCE (eV/Angst)
 -----------------------------------------------------------------------------------
      4.13650      4.13650      1.37883        -0.000000      0.000000     -0.000000
      0.00000      2.75767      2.75767         0.000000     -0.000000      0.000000
      4.13650      1.37883      4.13650        -0.000000     -0.000000     -0.000000
      0.00000      0.00000      0.00000         0.000000     -0.000000      0.000000
      1.37883      4.13650      4.13650        -0.000000     -0.000000     -0.000000
      2.75767      2.75767      0.00000         0.000000      0.000000      0.000000
      1.37883      1.37883      1.37883        -0.000000      0.000000     -0.000000
      2.75767      0.00000      2.75767         0.000000     -0.000000      0.000000
 -----------------------------------------------------------------------------------
    total drift:                               -0.000000     -0.000000     -0.000000


--------------------------------------------------------------------------------------------------------



  FREE ENERGIE OF THE ION-ELECTRON SYSTEM (eV)
  ---------------------------------------------------
  free  energy   TOTEN  =       -43.36625777 eV

  energy  without entropy=      -43.36803263  energy(sigma->0) =      -43.36684939



--------------------------------------------------------------------------------------------------------


    POTLOK:  cpu time    0.0976: real time    0.0976


--------------------------------------------------------------------------------------------------------


 stress matrix after NEB project (eV)
     -2.25164     -0.00000     -0.00000
     -0.00000     -2.25164      0.00000
     -0.00000     -0.00000     -2.25164
  FORCES: max atom, RMS     0.000000    0.000000
  FORCE total and by dimension    0.000000    0.000000
  Stress total and by dimension    3.899948    2.251636
     LOOP+:  cpu time    9.2434: real time    9.2511
    4ORBIT:  cpu time    0.0000: real time    0.0000

 total amount of memory used by VASP MPI-rank0    53576. kBytes
=======================================================================

   base      :      30000. kBytes
   nonl-proj :       3499. kBytes
   fftplans  :       5401. kBytes
   grid      :      10217. kBytes
   one-center:         24. kBytes
   wavefun   :       4435. kBytes

  
  
 General timing and accounting informations for this job:
 ========================================================
  
                  Total CPU time used (sec):        9.927
                            User time (sec):        9.414
                          System time (sec):        0.513
                         Elapsed time (sec):        9.983
  
                   Maximum memory used (kb):       63072.
                   Average memory used (kb):          N/A
  
                          Minor page faults:        86424
                          Major page faults:          413
                 Voluntary context switches:          863
