       N       E                     dE             d eps       ncg     rms          rms(c)
DAV:   1     0.909653749281E+03    0.90965E+03   -0.46605E+04 27720   0.273E+03
DAV:   2     0.392710897910E+02   -0.87038E+03   -0.85047E+03 24560   0.761E+02
DAV:   3    -0.183693696941E+02   -0.57640E+02   -0.55787E+02 26288   0.217E+02
DAV:   4    -0.197662856159E+02   -0.13969E+01   -0.13876E+01 26264   0.334E+01
DAV:   5    -0.198143356316E+02   -0.48050E-01   -0.48096E-01 30064   0.558E+00    0.161E+01
RMM:   6    -0.178307357515E+02    0.19836E+01   -0.36350E+01 24574   0.608E+01    0.104E+01
RMM:   7    -0.163832116709E+02    0.14475E+01   -0.66242E+00 24124   0.282E+01    0.120E+00
RMM:   8    -0.163471828953E+02    0.36029E-01   -0.67735E-02 25341   0.307E+00    0.336E-01
RMM:   9    -0.163463872579E+02    0.79564E-03   -0.14185E-02 25893   0.973E-01    0.939E-02
RMM:  10    -0.163466475012E+02   -0.26024E-03   -0.29983E-03 26208   0.649E-01    0.658E-02
RMM:  11    -0.163466677925E+02   -0.20291E-04   -0.10126E-03 27815   0.257E-01    0.204E-02
RMM:  12    -0.163466873705E+02   -0.19578E-04   -0.24966E-04 30578   0.146E-01    0.766E-03
RMM:  13    -0.163466953396E+02   -0.79691E-05   -0.66301E-05 32700   0.526E-02    0.291E-03
RMM:  14    -0.163466969598E+02   -0.16202E-05   -0.10253E-05 33815   0.233E-02    0.844E-04
RMM:  15    -0.163466971269E+02   -0.16706E-06   -0.14735E-06 34976   0.800E-03    0.114E-04
RMM:  16    -0.163466971769E+02   -0.50008E-07   -0.15819E-07 26334   0.299E-03    0.339E-04
RMM:  17    -0.163466971289E+02    0.47974E-07   -0.22160E-08 14655   0.144E-03    0.181E-05
RMM:  18    -0.163466971335E+02   -0.45366E-08   -0.60242E-09 13305   0.731E-04
   1 F= -.16346697E+02 E0= -.16347725E+02  d E =0.308428E-02
