 running on    4 total cores
 distrk:  each k-point on    4 cores,    1 groups
 distr:  one band on    1 cores,    4 groups
 vasp.6.2.1 16May21 (build Aug 15 2022 14:47:30) complex                         
 POSCAR found type information on POSCAR Cu
 POSCAR found :  1 types and       4 ions
 scaLAPACK will be used
 LDA part: xc-table for Pade appr. of Perdew
 POSCAR found type information on POSCAR Cu
 POSCAR found :  1 types and       4 ions
 POSCAR, INCAR and KPOINTS ok, starting setup
 FFT: planning ...
 WAVECAR not read
 entering main loop
       N       E                     dE             d eps       ncg     rms          rms(c)
DAV:   1     0.911198013841E+03    0.91120E+03   -0.46707E+04 18056   0.273E+03
DAV:   2     0.395929192148E+02   -0.87161E+03   -0.85158E+03 16032   0.759E+02
DAV:   3    -0.183236947457E+02   -0.57917E+02   -0.55835E+02 17288   0.216E+02
DAV:   4    -0.197749507766E+02   -0.14513E+01   -0.14428E+01 16936   0.335E+01
DAV:   5    -0.198199851007E+02   -0.45034E-01   -0.45033E-01 19616   0.558E+00    0.161E+01
RMM:   6    -0.178796297440E+02    0.19404E+01   -0.36621E+01 16018   0.609E+01    0.105E+01
RMM:   7    -0.164024602727E+02    0.14772E+01   -0.67348E+00 15708   0.284E+01    0.119E+00
RMM:   8    -0.163673902084E+02    0.35070E-01   -0.69811E-02 16520   0.314E+00    0.350E-01
RMM:   9    -0.163664403996E+02    0.94981E-03   -0.14613E-02 16779   0.992E-01    0.931E-02
RMM:  10    -0.163667079844E+02   -0.26758E-03   -0.30184E-03 17084   0.649E-01    0.641E-02
RMM:  11    -0.163667325896E+02   -0.24605E-04   -0.10192E-03 18092   0.257E-01    0.212E-02
RMM:  12    -0.163667517910E+02   -0.19201E-04   -0.25093E-04 19659   0.149E-01    0.837E-03
RMM:  13    -0.163667598666E+02   -0.80757E-05   -0.68479E-05 21041   0.540E-02    0.270E-03
RMM:  14    -0.163667614770E+02   -0.16104E-05   -0.10555E-05 22120   0.234E-02    0.816E-04
RMM:  15    -0.163667616374E+02   -0.16036E-06   -0.14495E-06 22420   0.802E-03    0.116E-04
RMM:  16    -0.163667616697E+02   -0.32327E-07   -0.16380E-07 17092   0.301E-03    0.284E-04
RMM:  17    -0.163667616240E+02    0.45722E-07   -0.21502E-08  9478   0.138E-03    0.216E-05
RMM:  18    -0.163667616293E+02   -0.52751E-08   -0.57185E-09  8642   0.719E-04
   1 F= -.16366762E+02 E0= -.16367881E+02  d E =0.335751E-02
