   1   1   1   0
  0.1658294E+02  0.2862368E-09  0.2862368E-09  0.2862368E-09  0.5000000E-15
   1.0000000000000000E-004
  CAR 
 unknown system                          
    116.45525027     -8.84860547  301      7.98108730      1.00000000
     -8.849  0.0000E+00  0.0000E+00  0.0000E+00  0.0000E+00
     -8.431  0.0000E+00  0.0000E+00  0.0000E+00  0.0000E+00
     -8.013  0.0000E+00  0.0000E+00  0.0000E+00  0.0000E+00
     -7.596  0.0000E+00  0.0000E+00  0.0000E+00  0.0000E+00
     -7.178  0.0000E+00  0.0000E+00  0.0000E+00  0.0000E+00
     -6.760  0.0000E+00  0.0000E+00  0.0000E+00  0.0000E+00
     -6.343  0.0000E+00  0.0000E+00  0.0000E+00  0.0000E+00
     -5.925  0.0000E+00  0.0000E+00  0.0000E+00  0.0000E+00
     -5.507  0.0000E+00  0.0000E+00  0.0000E+00  0.0000E+00
     -5.089  0.0000E+00  0.0000E+00  0.0000E+00  0.0000E+00
     -4.672  0.0000E+00  0.0000E+00  0.0000E+00  0.0000E+00
     -4.254  0.0000E+00  0.0000E+00  0.0000E+00  0.0000E+00
     -3.836  0.0000E+00  0.0000E+00  0.0000E+00  0.0000E+00
     -3.419  0.0000E+00  0.0000E+00  0.0000E+00  0.0000E+00
     -3.001  0.2196E-01  0.2210E-01  0.1792E-02  0.1817E-02
     -2.583  0.6135E-01  0.6140E-01  0.1567E-01  0.1572E-01
     -2.166  0.5754E-01  0.5758E-01  0.3677E-01  0.3683E-01
     -1.748  0.6997E-01  0.7000E-01  0.6319E-01  0.6327E-01
     -1.330  0.7874E-01  0.7877E-01  0.9410E-01  0.9419E-01
     -0.913  0.8775E-01  0.8777E-01  0.1290E+00  0.1291E+00
     -0.495  0.9637E-01  0.9639E-01  0.1674E+00  0.1676E+00
     -0.077  0.1038E+00  0.1038E+00  0.2092E+00  0.2093E+00
      0.340  0.1111E+00  0.1112E+00  0.2542E+00  0.2543E+00
      0.758  0.1182E+00  0.1182E+00  0.3020E+00  0.3022E+00
      1.176  0.1248E+00  0.1248E+00  0.3528E+00  0.3530E+00
      1.593  0.1314E+00  0.1314E+00  0.4063E+00  0.4065E+00
      2.011  0.1376E+00  0.1376E+00  0.4625E+00  0.4627E+00
      2.429  0.1439E+00  0.1439E+00  0.5213E+00  0.5215E+00
      2.846  0.1517E+00  0.1517E+00  0.5829E+00  0.5831E+00
      3.264  0.1643E+00  0.1642E+00  0.6504E+00  0.6506E+00
      3.682  0.1528E+00  0.1527E+00  0.7175E+00  0.7177E+00
      4.099  0.1682E+00  0.1684E+00  0.7826E+00  0.7828E+00
      4.517  0.1805E+00  0.1807E+00  0.8535E+00  0.8537E+00
      4.935  0.1962E+00  0.1961E+00  0.9313E+00  0.9315E+00
      5.352  0.1906E+00  0.1906E+00  0.1012E+01  0.1012E+01
      5.770  0.1864E+00  0.1864E+00  0.1089E+01  0.1090E+01
      6.188  0.1704E+00  0.1702E+00  0.1162E+01  0.1162E+01
      6.606  0.1830E+00  0.1831E+00  0.1234E+01  0.1234E+01
      7.023  0.2138E+00  0.2138E+00  0.1314E+01  0.1315E+01
      7.441  0.1973E+00  0.1971E+00  0.1402E+01  0.1402E+01
      7.859  0.1911E+00  0.1914E+00  0.1477E+01  0.1478E+01
      8.276  0.2211E+00  0.2212E+00  0.1561E+01  0.1561E+01
      8.694  0.2173E+00  0.2174E+00  0.1652E+01  0.1652E+01
      9.112  0.2069E+00  0.2069E+00  0.1740E+01  0.1740E+01
      9.529  0.2194E+00  0.2194E+00  0.1829E+01  0.1829E+01
      9.947  0.2269E+00  0.2270E+00  0.1922E+01  0.1922E+01
     10.365  0.2245E+00  0.2245E+00  0.2016E+01  0.2017E+01
     10.782  0.2346E+00  0.2346E+00  0.2112E+01  0.2112E+01
     11.200  0.2390E+00  0.2390E+00  0.2210E+01  0.2211E+01
     11.618  0.2427E+00  0.2427E+00  0.2311E+01  0.2311E+01
     12.035  0.2497E+00  0.2498E+00  0.2414E+01  0.2415E+01
     12.453  0.2540E+00  0.2541E+00  0.2519E+01  0.2519E+01
     12.871  0.2636E+00  0.2637E+00  0.2627E+01  0.2627E+01
     13.288  0.2866E+00  0.2866E+00  0.2741E+01  0.2742E+01
     13.706  0.2983E+00  0.2982E+00  0.2866E+01  0.2867E+01
     14.124  0.2836E+00  0.2836E+00  0.2987E+01  0.2988E+01
     14.541  0.2728E+00  0.2727E+00  0.3104E+01  0.3104E+01
     14.959  0.2632E+00  0.2632E+00  0.3216E+01  0.3216E+01
     15.377  0.2674E+00  0.2674E+00  0.3326E+01  0.3327E+01
     15.794  0.2636E+00  0.2635E+00  0.3437E+01  0.3438E+01
     16.212  0.2651E+00  0.2652E+00  0.3547E+01  0.3548E+01
     16.630  0.2654E+00  0.2654E+00  0.3658E+01  0.3659E+01
     17.048  0.2644E+00  0.2645E+00  0.3769E+01  0.3769E+01
     17.465  0.2767E+00  0.2768E+00  0.3882E+01  0.3882E+01
     17.883  0.2783E+00  0.2783E+00  0.3997E+01  0.3998E+01
     18.301  0.2835E+00  0.2836E+00  0.4115E+01  0.4115E+01
     18.718  0.2927E+00  0.2929E+00  0.4235E+01  0.4236E+01
     19.136  0.3243E+00  0.3244E+00  0.4365E+01  0.4366E+01
     19.554  0.3421E+00  0.3425E+00  0.4503E+01  0.4504E+01
     19.971  0.3780E+00  0.3778E+00  0.4655E+01  0.4656E+01
     20.389  0.3422E+00  0.3424E+00  0.4800E+01  0.4801E+01
     20.807  0.3136E+00  0.3122E+00  0.4936E+01  0.4936E+01
     21.224  0.3041E+00  0.3039E+00  0.5064E+01  0.5064E+01
     21.642  0.2720E+00  0.2721E+00  0.5184E+01  0.5185E+01
     22.060  0.2910E+00  0.2917E+00  0.5300E+01  0.5300E+01
     22.477  0.3407E+00  0.3414E+00  0.5432E+01  0.5433E+01
     22.895  0.3543E+00  0.3542E+00  0.5586E+01  0.5587E+01
     23.313  0.3579E+00  0.3609E+00  0.5743E+01  0.5744E+01
     23.730  0.2981E+00  0.2984E+00  0.5871E+01  0.5872E+01
     24.148  0.3248E+00  0.3224E+00  0.6017E+01  0.6018E+01
     24.566  0.3497E+00  0.3511E+00  0.6142E+01  0.6143E+01
     24.983  0.3902E+00  0.3897E+00  0.6310E+01  0.6311E+01
     25.401  0.3518E+00  0.3519E+00  0.6461E+01  0.6462E+01
     25.819  0.3942E+00  0.3899E+00  0.6622E+01  0.6623E+01
     26.236  0.3798E+00  0.3795E+00  0.6783E+01  0.6784E+01
     26.654  0.3545E+00  0.3545E+00  0.6936E+01  0.6937E+01
     27.072  0.3509E+00  0.3506E+00  0.7085E+01  0.7086E+01
     27.490  0.3645E+00  0.3623E+00  0.7231E+01  0.7232E+01
     27.907  0.3269E+00  0.3270E+00  0.7368E+01  0.7369E+01
     28.325  0.4016E+00  0.4015E+00  0.7518E+01  0.7519E+01
     28.743  0.4590E+00  0.4614E+00  0.7693E+01  0.7694E+01
     29.160  0.3746E+00  0.3747E+00  0.7865E+01  0.7866E+01
     29.578  0.4036E+00  0.4045E+00  0.8023E+01  0.8025E+01
     29.996  0.4334E+00  0.4327E+00  0.8200E+01  0.8201E+01
     30.413  0.3851E+00  0.3851E+00  0.8366E+01  0.8367E+01
     30.831  0.3760E+00  0.3761E+00  0.8524E+01  0.8525E+01
     31.249  0.4337E+00  0.4338E+00  0.8693E+01  0.8694E+01
     31.666  0.4204E+00  0.4202E+00  0.8872E+01  0.8873E+01
     32.084  0.4227E+00  0.4227E+00  0.9047E+01  0.9049E+01
     32.502  0.4604E+00  0.4588E+00  0.9228E+01  0.9230E+01
     32.919  0.3948E+00  0.3943E+00  0.9399E+01  0.9401E+01
     33.337  0.3543E+00  0.3550E+00  0.9555E+01  0.9556E+01
     33.755  0.2993E+00  0.2993E+00  0.9688E+01  0.9689E+01
     34.172  0.2773E+00  0.2772E+00  0.9809E+01  0.9810E+01
     34.590  0.2402E+00  0.2397E+00  0.9914E+01  0.9915E+01
     35.008  0.1750E+00  0.1750E+00  0.9997E+01  0.9998E+01
     35.425  0.1742E+00  0.1741E+00  0.1007E+02  0.1007E+02
     35.843  0.1815E+00  0.1815E+00  0.1014E+02  0.1014E+02
     36.261  0.2136E+00  0.2137E+00  0.1022E+02  0.1022E+02
     36.678  0.2556E+00  0.2556E+00  0.1032E+02  0.1032E+02
     37.096  0.2690E+00  0.2690E+00  0.1043E+02  0.1043E+02
     37.514  0.2809E+00  0.2809E+00  0.1055E+02  0.1055E+02
     37.932  0.2948E+00  0.2948E+00  0.1067E+02  0.1067E+02
     38.349  0.3634E+00  0.3622E+00  0.1080E+02  0.1080E+02
     38.767  0.3297E+00  0.3295E+00  0.1094E+02  0.1094E+02
     39.185  0.3347E+00  0.3348E+00  0.1108E+02  0.1108E+02
     39.602  0.4489E+00  0.4474E+00  0.1124E+02  0.1124E+02
     40.020  0.6228E+00  0.6287E+00  0.1146E+02  0.1146E+02
     40.438  0.4876E+00  0.4815E+00  0.1167E+02  0.1167E+02
     40.855  0.4702E+00  0.4701E+00  0.1187E+02  0.1187E+02
     41.273  0.5168E+00  0.5170E+00  0.1207E+02  0.1208E+02
     41.691  0.4654E+00  0.4652E+00  0.1228E+02  0.1228E+02
     42.108  0.4754E+00  0.4761E+00  0.1246E+02  0.1246E+02
     42.526  0.5570E+00  0.5574E+00  0.1266E+02  0.1266E+02
     42.944  0.5522E+00  0.5522E+00  0.1290E+02  0.1290E+02
     43.361  0.5049E+00  0.5054E+00  0.1310E+02  0.1311E+02
     43.779  0.4958E+00  0.4959E+00  0.1332E+02  0.1332E+02
     44.197  0.4099E+00  0.4093E+00  0.1350E+02  0.1351E+02
     44.614  0.3972E+00  0.3976E+00  0.1367E+02  0.1367E+02
     45.032  0.4098E+00  0.4100E+00  0.1384E+02  0.1384E+02
     45.450  0.4563E+00  0.4563E+00  0.1402E+02  0.1402E+02
     45.867  0.4940E+00  0.4940E+00  0.1421E+02  0.1421E+02
     46.285  0.5615E+00  0.5612E+00  0.1443E+02  0.1443E+02
     46.703  0.4852E+00  0.4847E+00  0.1465E+02  0.1465E+02
     47.120  0.4614E+00  0.4636E+00  0.1484E+02  0.1484E+02
     47.538  0.4356E+00  0.4356E+00  0.1502E+02  0.1502E+02
     47.956  0.4375E+00  0.4382E+00  0.1520E+02  0.1520E+02
     48.373  0.5295E+00  0.5298E+00  0.1540E+02  0.1540E+02
     48.791  0.4927E+00  0.4926E+00  0.1561E+02  0.1561E+02
     49.209  0.4947E+00  0.4942E+00  0.1581E+02  0.1581E+02
     49.627  0.4265E+00  0.4261E+00  0.1600E+02  0.1601E+02
     50.044  0.4401E+00  0.4406E+00  0.1618E+02  0.1618E+02
     50.462  0.3803E+00  0.3798E+00  0.1635E+02  0.1635E+02
     50.880  0.4536E+00  0.4539E+00  0.1652E+02  0.1652E+02
     51.297  0.5449E+00  0.5450E+00  0.1673E+02  0.1673E+02
     51.715  0.5919E+00  0.5918E+00  0.1696E+02  0.1696E+02
     52.133  0.4470E+00  0.4468E+00  0.1717E+02  0.1717E+02
     52.550  0.5036E+00  0.5044E+00  0.1736E+02  0.1736E+02
     52.968  0.6445E+00  0.6445E+00  0.1759E+02  0.1759E+02
     53.386  0.7523E+00  0.7522E+00  0.1787E+02  0.1787E+02
     53.803  0.8697E+00  0.8704E+00  0.1819E+02  0.1819E+02
     54.221  0.9183E+00  0.9196E+00  0.1854E+02  0.1854E+02
     54.639  0.1108E+01  0.1108E+01  0.1894E+02  0.1894E+02
     55.056  0.1155E+01  0.1162E+01  0.1939E+02  0.1939E+02
     55.474  0.1200E+01  0.1201E+01  0.1985E+02  0.1985E+02
     55.892  0.1352E+01  0.1350E+01  0.2034E+02  0.2034E+02
     56.309  0.1409E+01  0.1407E+01  0.2092E+02  0.2092E+02
     56.727  0.1267E+01  0.1267E+01  0.2136E+02  0.2136E+02
     57.145  0.1121E+01  0.1119E+01  0.2187E+02  0.2188E+02
     57.562  0.9766E+00  0.9755E+00  0.2223E+02  0.2223E+02
     57.980  0.5725E+00  0.5718E+00  0.2253E+02  0.2253E+02
     58.398  0.5736E+00  0.5794E+00  0.2276E+02  0.2276E+02
     58.815  0.6937E+00  0.6996E+00  0.2302E+02  0.2302E+02
     59.233  0.1248E+01  0.1261E+01  0.2337E+02  0.2337E+02
     59.651  0.7734E+00  0.7727E+00  0.2378E+02  0.2378E+02
     60.069  0.5132E+00  0.5124E+00  0.2401E+02  0.2401E+02
     60.486  0.5792E+00  0.5787E+00  0.2424E+02  0.2424E+02
     60.904  0.5891E+00  0.5881E+00  0.2449E+02  0.2449E+02
     61.322  0.5798E+00  0.5800E+00  0.2471E+02  0.2471E+02
     61.739  0.7023E+00  0.7033E+00  0.2498E+02  0.2498E+02
     62.157  0.5784E+00  0.5772E+00  0.2526E+02  0.2526E+02
     62.575  0.5268E+00  0.5269E+00  0.2548E+02  0.2548E+02
     62.992  0.5782E+00  0.5780E+00  0.2570E+02  0.2570E+02
     63.410  0.5576E+00  0.5580E+00  0.2593E+02  0.2593E+02
     63.828  0.4889E+00  0.4888E+00  0.2615E+02  0.2615E+02
     64.245  0.4829E+00  0.4834E+00  0.2634E+02  0.2634E+02
     64.663  0.5577E+00  0.5579E+00  0.2656E+02  0.2656E+02
     65.081  0.4909E+00  0.4907E+00  0.2678E+02  0.2678E+02
     65.498  0.5134E+00  0.5145E+00  0.2698E+02  0.2698E+02
     65.916  0.4973E+00  0.4972E+00  0.2719E+02  0.2719E+02
     66.334  0.5245E+00  0.5245E+00  0.2740E+02  0.2740E+02
     66.751  0.4550E+00  0.4548E+00  0.2760E+02  0.2760E+02
     67.169  0.4112E+00  0.4110E+00  0.2778E+02  0.2778E+02
     67.587  0.4387E+00  0.4387E+00  0.2796E+02  0.2796E+02
     68.004  0.4496E+00  0.4497E+00  0.2814E+02  0.2814E+02
     68.422  0.4536E+00  0.4537E+00  0.2833E+02  0.2833E+02
     68.840  0.4570E+00  0.4573E+00  0.2852E+02  0.2852E+02
     69.257  0.4424E+00  0.4424E+00  0.2871E+02  0.2871E+02
     69.675  0.4600E+00  0.4599E+00  0.2890E+02  0.2890E+02
     70.093  0.4869E+00  0.4868E+00  0.2910E+02  0.2910E+02
     70.511  0.4891E+00  0.4892E+00  0.2930E+02  0.2930E+02
     70.928  0.4437E+00  0.4437E+00  0.2949E+02  0.2950E+02
     71.346  0.4622E+00  0.4624E+00  0.2968E+02  0.2968E+02
     71.764  0.5543E+00  0.5550E+00  0.2989E+02  0.2989E+02
     72.181  0.5632E+00  0.5630E+00  0.3012E+02  0.3012E+02
     72.599  0.5657E+00  0.5658E+00  0.3035E+02  0.3035E+02
     73.017  0.4886E+00  0.4885E+00  0.3058E+02  0.3058E+02
     73.434  0.4524E+00  0.4521E+00  0.3077E+02  0.3077E+02
     73.852  0.4252E+00  0.4256E+00  0.3095E+02  0.3095E+02
     74.270  0.4294E+00  0.4293E+00  0.3113E+02  0.3113E+02
     74.687  0.4390E+00  0.4390E+00  0.3131E+02  0.3131E+02
     75.105  0.4190E+00  0.4192E+00  0.3148E+02  0.3148E+02
     75.523  0.4239E+00  0.4241E+00  0.3166E+02  0.3166E+02
     75.940  0.4286E+00  0.4285E+00  0.3184E+02  0.3184E+02
     76.358  0.5923E+00  0.5951E+00  0.3203E+02  0.3203E+02
     76.776  0.5320E+00  0.5325E+00  0.3225E+02  0.3225E+02
     77.193  0.4749E+00  0.4743E+00  0.3247E+02  0.3247E+02
     77.611  0.5386E+00  0.5396E+00  0.3266E+02  0.3267E+02
     78.029  0.6315E+00  0.6318E+00  0.3291E+02  0.3291E+02
     78.446  0.6647E+00  0.6644E+00  0.3317E+02  0.3317E+02
     78.864  0.6842E+00  0.6835E+00  0.3347E+02  0.3347E+02
     79.282  0.5620E+00  0.5656E+00  0.3371E+02  0.3371E+02
     79.699  0.6186E+00  0.6187E+00  0.3394E+02  0.3394E+02
     80.117  0.6502E+00  0.6502E+00  0.3421E+02  0.3421E+02
     80.535  0.5590E+00  0.5579E+00  0.3446E+02  0.3446E+02
     80.952  0.4905E+00  0.4905E+00  0.3466E+02  0.3467E+02
     81.370  0.5130E+00  0.5128E+00  0.3487E+02  0.3488E+02
     81.788  0.5857E+00  0.5862E+00  0.3509E+02  0.3510E+02
     82.206  0.5839E+00  0.5836E+00  0.3535E+02  0.3535E+02
     82.623  0.5161E+00  0.5156E+00  0.3558E+02  0.3558E+02
     83.041  0.4697E+00  0.4700E+00  0.3578E+02  0.3578E+02
     83.459  0.5109E+00  0.5109E+00  0.3599E+02  0.3599E+02
     83.876  0.6198E+00  0.6199E+00  0.3621E+02  0.3621E+02
     84.294  0.6074E+00  0.6071E+00  0.3647E+02  0.3647E+02
     84.712  0.4286E+00  0.4284E+00  0.3668E+02  0.3668E+02
     85.129  0.4628E+00  0.4629E+00  0.3686E+02  0.3686E+02
     85.547  0.5607E+00  0.5601E+00  0.3707E+02  0.3707E+02
     85.965  0.5436E+00  0.5436E+00  0.3730E+02  0.3730E+02
     86.382  0.5168E+00  0.5168E+00  0.3752E+02  0.3752E+02
     86.800  0.5700E+00  0.5704E+00  0.3774E+02  0.3774E+02
     87.218  0.5683E+00  0.5684E+00  0.3797E+02  0.3798E+02
     87.635  0.5638E+00  0.5640E+00  0.3821E+02  0.3821E+02
     88.053  0.6076E+00  0.6077E+00  0.3846E+02  0.3846E+02
     88.471  0.6180E+00  0.6179E+00  0.3872E+02  0.3872E+02
     88.888  0.7238E+00  0.7240E+00  0.3899E+02  0.3899E+02
     89.306  0.6416E+00  0.6419E+00  0.3928E+02  0.3928E+02
     89.724  0.5344E+00  0.5341E+00  0.3952E+02  0.3952E+02
     90.141  0.4648E+00  0.4648E+00  0.3972E+02  0.3972E+02
     90.559  0.4158E+00  0.4158E+00  0.3990E+02  0.3990E+02
     90.977  0.4586E+00  0.4588E+00  0.4008E+02  0.4008E+02
     91.394  0.5289E+00  0.5289E+00  0.4029E+02  0.4029E+02
     91.812  0.4929E+00  0.4928E+00  0.4050E+02  0.4050E+02
     92.230  0.6235E+00  0.6241E+00  0.4073E+02  0.4073E+02
     92.648  0.6334E+00  0.6331E+00  0.4101E+02  0.4101E+02
     93.065  0.5821E+00  0.5820E+00  0.4126E+02  0.4126E+02
     93.483  0.5403E+00  0.5400E+00  0.4149E+02  0.4149E+02
     93.901  0.5692E+00  0.5695E+00  0.4172E+02  0.4172E+02
     94.318  0.5559E+00  0.5559E+00  0.4196E+02  0.4196E+02
     94.736  0.5389E+00  0.5391E+00  0.4218E+02  0.4218E+02
     95.154  0.6511E+00  0.6513E+00  0.4243E+02  0.4243E+02
     95.571  0.6830E+00  0.6838E+00  0.4270E+02  0.4270E+02
     95.989  0.6472E+00  0.6467E+00  0.4299E+02  0.4299E+02
     96.407  0.6172E+00  0.6173E+00  0.4325E+02  0.4325E+02
     96.824  0.5923E+00  0.5921E+00  0.4350E+02  0.4350E+02
     97.242  0.5492E+00  0.5492E+00  0.4373E+02  0.4373E+02
     97.660  0.5666E+00  0.5660E+00  0.4396E+02  0.4396E+02
     98.077  0.5310E+00  0.5310E+00  0.4418E+02  0.4418E+02
     98.495  0.4925E+00  0.4925E+00  0.4438E+02  0.4438E+02
     98.913  0.4923E+00  0.4923E+00  0.4458E+02  0.4458E+02
     99.330  0.5257E+00  0.5262E+00  0.4479E+02  0.4479E+02
     99.748  0.6090E+00  0.6091E+00  0.4503E+02  0.4503E+02
    100.166  0.6297E+00  0.6298E+00  0.4529E+02  0.4529E+02
    100.583  0.6594E+00  0.6596E+00  0.4557E+02  0.4557E+02
    101.001  0.6718E+00  0.6723E+00  0.4585E+02  0.4585E+02
    101.419  0.5534E+00  0.5532E+00  0.4610E+02  0.4610E+02
    101.836  0.5314E+00  0.5317E+00  0.4632E+02  0.4632E+02
    102.254  0.5042E+00  0.5041E+00  0.4653E+02  0.4653E+02
    102.672  0.5012E+00  0.5015E+00  0.4675E+02  0.4675E+02
    103.090  0.5265E+00  0.5262E+00  0.4697E+02  0.4697E+02
    103.507  0.4703E+00  0.4704E+00  0.4716E+02  0.4716E+02
    103.925  0.3525E+00  0.3523E+00  0.4733E+02  0.4734E+02
    104.343  0.3176E+00  0.3173E+00  0.4748E+02  0.4748E+02
    104.760  0.2470E+00  0.2474E+00  0.4759E+02  0.4759E+02
    105.178  0.3586E+00  0.3629E+00  0.4772E+02  0.4772E+02
    105.596  0.1905E+00  0.1902E+00  0.4784E+02  0.4784E+02
    106.013  0.1202E+00  0.1205E+00  0.4790E+02  0.4790E+02
    106.431  0.7481E-01  0.7468E-01  0.4794E+02  0.4794E+02
    106.849  0.3471E-01  0.3460E-01  0.4797E+02  0.4797E+02
    107.266  0.1524E-01  0.1521E-01  0.4797E+02  0.4797E+02
    107.684  0.1147E-01  0.1147E-01  0.4798E+02  0.4798E+02
    108.102  0.1099E-01  0.1099E-01  0.4798E+02  0.4798E+02
    108.519  0.9954E-02  0.9956E-02  0.4799E+02  0.4799E+02
    108.937  0.9951E-02  0.9953E-02  0.4799E+02  0.4799E+02
    109.355  0.8614E-02  0.8330E-02  0.4800E+02  0.4800E+02
    109.772  0.3301E-02  0.3291E-02  0.4800E+02  0.4800E+02
    110.190  0.1666E-02  0.1660E-02  0.4800E+02  0.4800E+02
    110.608  0.1422E-03  0.1396E-03  0.4800E+02  0.4800E+02
    111.025  0.0000E+00  0.0000E+00  0.4800E+02  0.4800E+02
    111.443  0.0000E+00  0.0000E+00  0.4800E+02  0.4800E+02
    111.861  0.0000E+00  0.0000E+00  0.4800E+02  0.4800E+02
    112.278  0.0000E+00  0.0000E+00  0.4800E+02  0.4800E+02
    112.696  0.0000E+00  0.0000E+00  0.4800E+02  0.4800E+02
    113.114  0.0000E+00  0.0000E+00  0.4800E+02  0.4800E+02
    113.531  0.0000E+00  0.0000E+00  0.4800E+02  0.4800E+02
    113.949  0.0000E+00  0.0000E+00  0.4800E+02  0.4800E+02
    114.367  0.0000E+00  0.0000E+00  0.4800E+02  0.4800E+02
    114.785  0.0000E+00  0.0000E+00  0.4800E+02  0.4800E+02
    115.202  0.0000E+00  0.0000E+00  0.4800E+02  0.4800E+02
    115.620  0.0000E+00  0.0000E+00  0.4800E+02  0.4800E+02
    116.038  0.0000E+00  0.0000E+00  0.4800E+02  0.4800E+02
    116.455  0.0000E+00  0.0000E+00  0.4800E+02  0.4800E+02
    116.45525027     -8.84860547  301      7.98108730      1.00000000
     -8.849  0.0000E+00  0.0000E+00  0.0000E+00  0.0000E+00  0.0000E+00  0.0000E+00  0.0000E+00  0.0000E+00  0.0000E+00  0.0000E+00  0.0000E+00  0.0000E+00  0.0000E+00  0.0000E+00  0.0000E+00  0.0000E+00  0.0000E+00  0.0000E+00
     -8.431  0.0000E+00  0.0000E+00  0.0000E+00  0.0000E+00  0.0000E+00  0.0000E+00  0.0000E+00  0.0000E+00  0.0000E+00  0.0000E+00  0.0000E+00  0.0000E+00  0.0000E+00  0.0000E+00  0.0000E+00  0.0000E+00  0.0000E+00  0.0000E+00
     -8.013  0.0000E+00  0.0000E+00  0.0000E+00  0.0000E+00  0.0000E+00  0.0000E+00  0.0000E+00  0.0000E+00  0.0000E+00  0.0000E+00  0.0000E+00  0.0000E+00  0.0000E+00  0.0000E+00  0.0000E+00  0.0000E+00  0.0000E+00  0.0000E+00
     -7.596  0.0000E+00  0.0000E+00  0.0000E+00  0.0000E+00  0.0000E+00  0.0000E+00  0.0000E+00  0.0000E+00  0.0000E+00  0.0000E+00  0.0000E+00  0.0000E+00  0.0000E+00  0.0000E+00  0.0000E+00  0.0000E+00  0.0000E+00  0.0000E+00
     -7.178  0.0000E+00  0.0000E+00  0.0000E+00  0.0000E+00  0.0000E+00  0.0000E+00  0.0000E+00  0.0000E+00  0.0000E+00  0.0000E+00  0.0000E+00  0.0000E+00  0.0000E+00  0.0000E+00  0.0000E+00  0.0000E+00  0.0000E+00  0.0000E+00
     -6.760  0.0000E+00  0.0000E+00  0.0000E+00  0.0000E+00  0.0000E+00  0.0000E+00  0.0000E+00  0.0000E+00  0.0000E+00  0.0000E+00  0.0000E+00  0.0000E+00  0.0000E+00  0.0000E+00  0.0000E+00  0.0000E+00  0.0000E+00  0.0000E+00
     -6.343  0.0000E+00  0.0000E+00  0.0000E+00  0.0000E+00  0.0000E+00  0.0000E+00  0.0000E+00  0.0000E+00  0.0000E+00  0.0000E+00  0.0000E+00  0.0000E+00  0.0000E+00  0.0000E+00  0.0000E+00  0.0000E+00  0.0000E+00  0.0000E+00
     -5.925  0.0000E+00  0.0000E+00  0.0000E+00  0.0000E+00  0.0000E+00  0.0000E+00  0.0000E+00  0.0000E+00  0.0000E+00  0.0000E+00  0.0000E+00  0.0000E+00  0.0000E+00  0.0000E+00  0.0000E+00  0.0000E+00  0.0000E+00  0.0000E+00
     -5.507  0.0000E+00  0.0000E+00  0.0000E+00  0.0000E+00  0.0000E+00  0.0000E+00  0.0000E+00  0.0000E+00  0.0000E+00  0.0000E+00  0.0000E+00  0.0000E+00  0.0000E+00  0.0000E+00  0.0000E+00  0.0000E+00  0.0000E+00  0.0000E+00
     -5.089  0.0000E+00  0.0000E+00  0.0000E+00  0.0000E+00  0.0000E+00  0.0000E+00  0.0000E+00  0.0000E+00  0.0000E+00  0.0000E+00  0.0000E+00  0.0000E+00  0.0000E+00  0.0000E+00  0.0000E+00  0.0000E+00  0.0000E+00  0.0000E+00
     -4.672  0.0000E+00  0.0000E+00  0.0000E+00  0.0000E+00  0.0000E+00  0.0000E+00  0.0000E+00  0.0000E+00  0.0000E+00  0.0000E+00  0.0000E+00  0.0000E+00  0.0000E+00  0.0000E+00  0.0000E+00  0.0000E+00  0.0000E+00  0.0000E+00
     -4.254  0.0000E+00  0.0000E+00  0.0000E+00  0.0000E+00  0.0000E+00  0.0000E+00  0.0000E+00  0.0000E+00  0.0000E+00  0.0000E+00  0.0000E+00  0.0000E+00  0.0000E+00  0.0000E+00  0.0000E+00  0.0000E+00  0.0000E+00  0.0000E+00
     -3.836  0.0000E+00  0.0000E+00  0.0000E+00  0.0000E+00  0.0000E+00  0.0000E+00  0.0000E+00  0.0000E+00  0.0000E+00  0.0000E+00  0.0000E+00  0.0000E+00  0.0000E+00  0.0000E+00  0.0000E+00  0.0000E+00  0.0000E+00  0.0000E+00
     -3.419  0.0000E+00  0.0000E+00  0.0000E+00  0.0000E+00  0.0000E+00  0.0000E+00  0.0000E+00  0.0000E+00  0.0000E+00  0.0000E+00  0.0000E+00  0.0000E+00  0.0000E+00  0.0000E+00  0.0000E+00  0.0000E+00  0.0000E+00  0.0000E+00
     -3.001  0.5846E-02  0.5887E-02  0.2263E-04  0.2288E-04  0.2263E-04  0.2288E-04  0.2263E-04  0.2288E-04  0.0000E+00  0.0000E+00  0.0000E+00  0.0000E+00  0.0000E+00  0.0000E+00  0.0000E+00  0.0000E+00  0.0000E+00  0.0000E+00
     -2.583  0.1589E-01  0.1592E-01  0.2111E-03  0.2117E-03  0.2111E-03  0.2117E-03  0.2111E-03  0.2117E-03  0.0000E+00  0.0000E+00  0.0000E+00  0.0000E+00  0.0000E+00  0.0000E+00  0.0000E+00  0.0000E+00  0.0000E+00  0.0000E+00
     -2.166  0.1437E-01  0.1439E-01  0.3767E-03  0.3775E-03  0.3767E-03  0.3775E-03  0.3767E-03  0.3775E-03  0.0000E+00  0.0000E+00  0.0000E+00  0.0000E+00  0.0000E+00  0.0000E+00  0.0000E+00  0.0000E+00  0.0000E+00  0.0000E+00
     -1.748  0.1690E-01  0.1692E-01  0.6462E-03  0.6472E-03  0.6462E-03  0.6472E-03  0.6462E-03  0.6472E-03  0.0000E+00  0.0000E+00  0.0000E+00  0.0000E+00  0.0000E+00  0.0000E+00  0.0000E+00  0.0000E+00  0.0000E+00  0.0000E+00
     -1.330  0.1837E-01  0.1838E-01  0.9402E-03  0.9414E-03  0.9402E-03  0.9414E-03  0.9402E-03  0.9414E-03  0.0000E+00  0.0000E+00  0.0000E+00  0.0000E+00  0.0000E+00  0.0000E+00  0.0000E+00  0.0000E+00  0.0000E+00  0.0000E+00
     -0.913  0.1975E-01  0.1977E-01  0.1275E-02  0.1276E-02  0.1275E-02  0.1276E-02  0.1275E-02  0.1276E-02  0.0000E+00  0.0000E+00  0.0000E+00  0.0000E+00  0.0000E+00  0.0000E+00  0.0000E+00  0.0000E+00  0.0000E+00  0.0000E+00
     -0.495  0.2096E-01  0.2097E-01  0.1633E-02  0.1635E-02  0.1633E-02  0.1635E-02  0.1633E-02  0.1635E-02  0.0000E+00  0.0000E+00  0.0000E+00  0.0000E+00  0.0000E+00  0.0000E+00  0.0000E+00  0.0000E+00  0.0000E+00  0.0000E+00
     -0.077  0.2170E-01  0.2172E-01  0.2029E-02  0.2031E-02  0.2029E-02  0.2031E-02  0.2029E-02  0.2031E-02  0.0000E+00  0.0000E+00  0.0000E+00  0.0000E+00  0.0000E+00  0.0000E+00  0.0000E+00  0.0000E+00  0.0000E+00  0.0000E+00
      0.340  0.2234E-01  0.2236E-01  0.2445E-02  0.2447E-02  0.2445E-02  0.2447E-02  0.2445E-02  0.2447E-02  0.0000E+00  0.0000E+00  0.0000E+00  0.0000E+00  0.0000E+00  0.0000E+00  0.0000E+00  0.0000E+00  0.0000E+00  0.0000E+00
      0.758  0.2281E-01  0.2283E-01  0.2883E-02  0.2885E-02  0.2883E-02  0.2885E-02  0.2883E-02  0.2885E-02  0.0000E+00  0.0000E+00  0.0000E+00  0.0000E+00  0.0000E+00  0.0000E+00  0.0000E+00  0.0000E+00  0.0000E+00  0.0000E+00
      1.176  0.2303E-01  0.2305E-01  0.3351E-02  0.3354E-02  0.3351E-02  0.3354E-02  0.3351E-02  0.3354E-02  0.0000E+00  0.0000E+00  0.0000E+00  0.0000E+00  0.0000E+00  0.0000E+00  0.0000E+00  0.0000E+00  0.0000E+00  0.0000E+00
      1.593  0.2317E-01  0.2319E-01  0.3838E-02  0.3841E-02  0.3838E-02  0.3841E-02  0.3838E-02  0.3841E-02  0.0000E+00  0.0000E+00  0.0000E+00  0.0000E+00  0.0000E+00  0.0000E+00  0.0000E+00  0.0000E+00  0.0000E+00  0.0000E+00
      2.011  0.2305E-01  0.2306E-01  0.4365E-02  0.4367E-02  0.4365E-02  0.4367E-02  0.4365E-02  0.4367E-02  0.0000E+00  0.0000E+00  0.0000E+00  0.0000E+00  0.0000E+00  0.0000E+00  0.0000E+00  0.0000E+00  0.0000E+00  0.0000E+00
      2.429  0.2275E-01  0.2277E-01  0.4933E-02  0.4935E-02  0.4933E-02  0.4935E-02  0.4933E-02  0.4935E-02  0.0000E+00  0.0000E+00  0.0000E+00  0.0000E+00  0.0000E+00  0.0000E+00  0.0000E+00  0.0000E+00  0.0000E+00  0.0000E+00
      2.846  0.2221E-01  0.2223E-01  0.5654E-02  0.5658E-02  0.5654E-02  0.5658E-02  0.5654E-02  0.5658E-02  0.0000E+00  0.0000E+00  0.0000E+00  0.0000E+00  0.0000E+00  0.0000E+00  0.0000E+00  0.0000E+00  0.0000E+00  0.0000E+00
      3.264  0.2176E-01  0.2177E-01  0.6693E-02  0.6690E-02  0.6693E-02  0.6690E-02  0.6693E-02  0.6690E-02  0.0000E+00  0.0000E+00  0.0000E+00  0.0000E+00  0.0000E+00  0.0000E+00  0.0000E+00  0.0000E+00  0.0000E+00  0.0000E+00
      3.682  0.1859E-01  0.1861E-01  0.6641E-02  0.6639E-02  0.6641E-02  0.6639E-02  0.6641E-02  0.6639E-02  0.0000E+00  0.0000E+00  0.0000E+00  0.0000E+00  0.0000E+00  0.0000E+00  0.0000E+00  0.0000E+00  0.0000E+00  0.0000E+00
      4.099  0.2045E-01  0.2050E-01  0.7365E-02  0.7372E-02  0.7365E-02  0.7372E-02  0.7365E-02  0.7372E-02  0.0000E+00  0.0000E+00  0.0000E+00  0.0000E+00  0.0000E+00  0.0000E+00  0.0000E+00  0.0000E+00  0.0000E+00  0.0000E+00
      4.517  0.2170E-01  0.2175E-01  0.8047E-02  0.8059E-02  0.8047E-02  0.8059E-02  0.8047E-02  0.8059E-02  0.0000E+00  0.0000E+00  0.0000E+00  0.0000E+00  0.0000E+00  0.0000E+00  0.0000E+00  0.0000E+00  0.0000E+00  0.0000E+00
      4.935  0.2012E-01  0.2013E-01  0.9682E-02  0.9687E-02  0.9682E-02  0.9687E-02  0.9682E-02  0.9687E-02  0.0000E+00  0.0000E+00  0.0000E+00  0.0000E+00  0.0000E+00  0.0000E+00  0.0000E+00  0.0000E+00  0.0000E+00  0.0000E+00
      5.352  0.1928E-01  0.1929E-01  0.9489E-02  0.9496E-02  0.9489E-02  0.9496E-02  0.9489E-02  0.9496E-02  0.0000E+00  0.0000E+00  0.0000E+00  0.0000E+00  0.0000E+00  0.0000E+00  0.0000E+00  0.0000E+00  0.0000E+00  0.0000E+00
      5.770  0.1776E-01  0.1777E-01  0.9514E-02  0.9520E-02  0.9514E-02  0.9520E-02  0.9514E-02  0.9520E-02  0.0000E+00  0.0000E+00  0.0000E+00  0.0000E+00  0.0000E+00  0.0000E+00  0.0000E+00  0.0000E+00  0.0000E+00  0.0000E+00
      6.188  0.1676E-01  0.1674E-01  0.8587E-02  0.8583E-02  0.8587E-02  0.8583E-02  0.8587E-02  0.8583E-02  0.0000E+00  0.0000E+00  0.0000E+00  0.0000E+00  0.0000E+00  0.0000E+00  0.0000E+00  0.0000E+00  0.0000E+00  0.0000E+00
      6.606  0.1729E-01  0.1733E-01  0.9192E-02  0.9197E-02  0.9192E-02  0.9197E-02  0.9192E-02  0.9197E-02  0.0000E+00  0.0000E+00  0.0000E+00  0.0000E+00  0.0000E+00  0.0000E+00  0.0000E+00  0.0000E+00  0.0000E+00  0.0000E+00
      7.023  0.2102E-01  0.2104E-01  0.1003E-01  0.1004E-01  0.1003E-01  0.1004E-01  0.1003E-01  0.1004E-01  0.0000E+00  0.0000E+00  0.0000E+00  0.0000E+00  0.0000E+00  0.0000E+00  0.0000E+00  0.0000E+00  0.0000E+00  0.0000E+00
      7.441  0.1684E-01  0.1681E-01  0.9714E-02  0.9717E-02  0.9714E-02  0.9717E-02  0.9714E-02  0.9717E-02  0.0000E+00  0.0000E+00  0.0000E+00  0.0000E+00  0.0000E+00  0.0000E+00  0.0000E+00  0.0000E+00  0.0000E+00  0.0000E+00
      7.859  0.1998E-01  0.2010E-01  0.8792E-02  0.8802E-02  0.8792E-02  0.8802E-02  0.8792E-02  0.8802E-02  0.0000E+00  0.0000E+00  0.0000E+00  0.0000E+00  0.0000E+00  0.0000E+00  0.0000E+00  0.0000E+00  0.0000E+00  0.0000E+00
      8.276  0.2368E-01  0.2371E-01  0.1003E-01  0.1004E-01  0.1003E-01  0.1004E-01  0.1003E-01  0.1004E-01  0.0000E+00  0.0000E+00  0.0000E+00  0.0000E+00  0.0000E+00  0.0000E+00  0.0000E+00  0.0000E+00  0.0000E+00  0.0000E+00
      8.694  0.2127E-01  0.2129E-01  0.1019E-01  0.1020E-01  0.1019E-01  0.1020E-01  0.1019E-01  0.1020E-01  0.0000E+00  0.0000E+00  0.0000E+00  0.0000E+00  0.0000E+00  0.0000E+00  0.0000E+00  0.0000E+00  0.0000E+00  0.0000E+00
      9.112  0.1944E-01  0.1944E-01  0.9877E-02  0.9883E-02  0.9877E-02  0.9883E-02  0.9877E-02  0.9883E-02  0.0000E+00  0.0000E+00  0.0000E+00  0.0000E+00  0.0000E+00  0.0000E+00  0.0000E+00  0.0000E+00  0.0000E+00  0.0000E+00
      9.529  0.2176E-01  0.2179E-01  0.1045E-01  0.1046E-01  0.1045E-01  0.1046E-01  0.1045E-01  0.1046E-01  0.0000E+00  0.0000E+00  0.0000E+00  0.0000E+00  0.0000E+00  0.0000E+00  0.0000E+00  0.0000E+00  0.0000E+00  0.0000E+00
      9.947  0.2301E-01  0.2303E-01  0.1090E-01  0.1091E-01  0.1090E-01  0.1091E-01  0.1090E-01  0.1091E-01  0.0000E+00  0.0000E+00  0.0000E+00  0.0000E+00  0.0000E+00  0.0000E+00  0.0000E+00  0.0000E+00  0.0000E+00  0.0000E+00
     10.365  0.2267E-01  0.2268E-01  0.1095E-01  0.1096E-01  0.1095E-01  0.1096E-01  0.1095E-01  0.1096E-01  0.0000E+00  0.0000E+00  0.0000E+00  0.0000E+00  0.0000E+00  0.0000E+00  0.0000E+00  0.0000E+00  0.0000E+00  0.0000E+00
     10.782  0.2399E-01  0.2400E-01  0.1167E-01  0.1168E-01  0.1167E-01  0.1168E-01  0.1167E-01  0.1168E-01  0.0000E+00  0.0000E+00  0.0000E+00  0.0000E+00  0.0000E+00  0.0000E+00  0.0000E+00  0.0000E+00  0.0000E+00  0.0000E+00
     11.200  0.2307E-01  0.2308E-01  0.1230E-01  0.1231E-01  0.1230E-01  0.1231E-01  0.1230E-01  0.1231E-01  0.0000E+00  0.0000E+00  0.0000E+00  0.0000E+00  0.0000E+00  0.0000E+00  0.0000E+00  0.0000E+00  0.0000E+00  0.0000E+00
     11.618  0.2302E-01  0.2303E-01  0.1281E-01  0.1283E-01  0.1281E-01  0.1283E-01  0.1281E-01  0.1283E-01  0.0000E+00  0.0000E+00  0.0000E+00  0.0000E+00  0.0000E+00  0.0000E+00  0.0000E+00  0.0000E+00  0.0000E+00  0.0000E+00
     12.035  0.2273E-01  0.2274E-01  0.1374E-01  0.1376E-01  0.1374E-01  0.1376E-01  0.1374E-01  0.1376E-01  0.0000E+00  0.0000E+00  0.0000E+00  0.0000E+00  0.0000E+00  0.0000E+00  0.0000E+00  0.0000E+00  0.0000E+00  0.0000E+00