    1    1    1    2
  0.1658294E+02  0.2862368E-09  0.2862368E-09  0.2862368E-09  0.5000000E-15
   1.0000000000000000E-004
  CAR 
 unknown system                          
      3    286     48

  0.1262379E-14  0.1262379E-14  0.1262379E-14  0.1079797E-03
    1       -3.151783     -3.152976   1.000000   1.000000
    2       20.539718     20.539009   0.000000   0.000000
    3       20.539718     20.539009   0.000000   0.000000
    4       20.539718     20.539009   0.000000   0.000000
    5       21.994907     21.990236   0.000000   0.000000
    6       21.994907     21.990236   0.000000   0.000000
    7       21.994907     21.990237   0.000000   0.000000
    8       24.376258     24.376784   0.000000   0.000000
    9       27.314367     27.311342   0.000000   0.000000
   10       27.314367     27.311342   0.000000   0.000000
   11       30.161096     30.158310   0.000000   0.000000
   12       32.510873     32.510391   0.000000   0.000000
   13       32.510873     32.510391   0.000000   0.000000
   14       32.510874     32.510392   0.000000   0.000000
   15       41.062806     41.060472   0.000000   0.000000
   16       56.023555     56.022343   0.000000   0.000000
   17       56.023555     56.022343   0.000000   0.000000
   18       56.023555     56.022343   0.000000   0.000000
   19       56.060100     56.060075   0.000000   0.000000
   20       59.214378     59.211929   0.000000   0.000000
   21       59.214378     59.211929   0.000000   0.000000
   22       59.214378     59.211930   0.000000   0.000000
   23       62.833663     62.833866   0.000000   0.000000
   24       62.833663     62.833866   0.000000   0.000000
   25       65.076752     65.073542   0.000000   0.000000
   26       65.076752     65.073542   0.000000   0.000000
   27       65.076752     65.073542   0.000000   0.000000
   28       73.177930     73.177100   0.000000   0.000000
   29       73.177930     73.177100   0.000000   0.000000
   30       73.177931     73.177101   0.000000   0.000000
   31       80.819058     80.818198   0.000000   0.000000
   32       83.078579     83.077174   0.000000   0.000000
   33       83.078579     83.077174   0.000000   0.000000
   34       87.206266     87.206600   0.000000   0.000000
   35       87.206266     87.206600   0.000000   0.000000
   36       87.206266     87.206602   0.000000   0.000000
   37       90.088450     90.083009   0.000000   0.000000
   38       90.088450     90.083009   0.000000   0.000000
   39       90.088450     90.083009   0.000000   0.000000
   40       90.896832     90.889989   0.000000   0.000000
   41       93.460009     93.460392   0.000000   0.000000
   42       93.460009     93.460392   0.000000   0.000000
   43       93.460009     93.460392   0.000000   0.000000
   44       93.934524     93.931702   0.000000   0.000000
   45       93.934525     93.931702   0.000000   0.000000
   46       93.934525     93.931702   0.000000   0.000000
   47       96.373524     96.374509   0.000000   0.000000
   48       96.373524     96.374509   0.000000   0.000000

  0.4761905E-01  0.1263857E-14  0.1263857E-14  0.8638376E-03
    1       -3.090335     -3.091527   1.000000   1.000000
    2       19.319119     19.317732   0.000000   0.000000
    3       20.292781     20.291549   0.000000   0.000000
    4       20.292781     20.291549   0.000000   0.000000
    5       22.337722     22.333537   0.000000   0.000000
    6       22.337722     22.333538   0.000000   0.000000
    7       22.517926     22.514301   0.000000   0.000000
    8       25.029995     25.030175   0.000000   0.000000
    9       26.944711     26.941927   0.000000   0.000000
   10       26.944711     26.941927   0.000000   0.000000
   11       29.926248     29.923674   0.000000   0.000000
   12       32.831617     32.830853   0.000000   0.000000
   13       33.003564     33.002865   0.000000   0.000000
   14       33.003564     33.002865   0.000000   0.000000
   15       41.312848     41.310557   0.000000   0.000000
   16       55.729025     55.728362   0.000000   0.000000
   17       55.968314     55.967093   0.000000   0.000000
   18       55.968314     55.967094   0.000000   0.000000
   19       56.251609     56.250997   0.000000   0.000000
   20       58.547492     58.545051   0.000000   0.000000
   21       58.547492     58.545051   0.000000   0.000000
   22       59.221812     59.219401   0.000000   0.000000
   23       62.001981     62.001507   0.000000   0.000000
   24       62.001981     62.001508   0.000000   0.000000
   25       65.131924     65.128702   0.000000   0.000000
   26       66.687944     66.685441   0.000000   0.000000
   27       66.687945     66.685441   0.000000   0.000000
   28       72.634289     72.633520   0.000000   0.000000
   29       73.120815     73.119923   0.000000   0.000000
   30       73.120815     73.119924   0.000000   0.000000
   31       81.454430     81.453564   0.000000   0.000000
   32       82.757211     82.755688   0.000000   0.000000
   33       82.757211     82.755688   0.000000   0.000000
   34       85.694639     85.692767   0.000000   0.000000
   35       86.708687     86.708707   0.000000   0.000000
   36       86.708687     86.708708   0.000000   0.000000
   37       89.418717     89.415002   0.000000   0.000000
   38       89.418717     89.415003   0.000000   0.000000
   39       90.323150     90.317300   0.000000   0.000000
   40       91.171245     91.170241   0.000000   0.000000
   41       91.807367     91.804272   0.000000   0.000000
   42       92.354624     92.353884   0.000000   0.000000
   43       92.354631     92.353884   0.000000   0.000000
   44       95.185938     95.185951   0.000000   0.000000
   45       95.185938     95.185951   0.000000   0.000000
   46       95.422190     95.421094   0.000000   0.000000
   47       95.422190     95.421094   0.000000   0.000000
   48       96.355301     96.353875   0.000000   0.000000

  0.9523810E-01  0.1263698E-14  0.1263698E-14  0.8638376E-03
    1       -2.906138     -2.907331   1.000000   1.000000
    2       17.443875     17.442431   0.000000   0.000000
    3       19.853033     19.851351   0.000000   0.000000
    4       19.853033     19.851351   0.000000   0.000000
    5       22.667189     22.664308   0.000000   0.000000
    6       23.051216     23.047333   0.000000   0.000000
    7       23.051216     23.047333   0.000000   0.000000
    8       26.119611     26.117279   0.000000   0.000000
    9       26.119611     26.117279   0.000000   0.000000
   10       26.632215     26.631761   0.000000   0.000000
   11       29.346622     29.344319   0.000000   0.000000
   12       33.703038     33.701816   0.000000   0.000000
   13       34.209543     34.208497   0.000000   0.000000
   14       34.209543     34.208498   0.000000   0.000000
   15       42.018380     42.016206   0.000000   0.000000
   16       55.241964     55.241268   0.000000   0.000000
   17       55.493771     55.492315   0.000000   0.000000
   18       55.493772     55.492315   0.000000   0.000000
   19       56.376147     56.375487   0.000000   0.000000
   20       57.067042     57.065013   0.000000   0.000000
   21       57.067042     57.065013   0.000000   0.000000
   22       59.203289     59.200978   0.000000   0.000000
   23       61.566513     61.565728   0.000000   0.000000
   24       61.566513     61.565729   0.000000   0.000000
   25       65.297143     65.293885   0.000000   0.000000
   26       69.158371     69.156109   0.000000   0.000000
   27       69.158372     69.156110   0.000000   0.000000
   28       71.407899     71.407221   0.000000   0.000000
   29       72.963483     72.962384   0.000000   0.000000
   30       72.963484     72.962385   0.000000   0.000000
   31       81.703884     81.702067   0.000000   0.000000
   32       81.703884     81.702068   0.000000   0.000000
   33       82.264101     82.262621   0.000000   0.000000
   34       84.076407     84.073828   0.000000   0.000000
   35       85.688565     85.688827   0.000000   0.000000
   36       85.688566     85.688827   0.000000   0.000000
   37       87.841960     87.840247   0.000000   0.000000
   38       87.841960     87.840248   0.000000   0.000000
   39       88.795134     88.794138   0.000000   0.000000
   40       90.056937     90.051430   0.000000   0.000000
   41       91.214543     91.213210   0.000000   0.000000
   42       91.214543     91.213211   0.000000   0.000000
   43       92.875146     92.874430   0.000000   0.000000
   44       94.490402     94.491421   0.000000   0.000000
   45       95.736548     95.737618   0.000000   0.000000
   46       95.736548     95.737618   0.000000   0.000000
   47       97.266499     97.263459   0.000000   0.000000
   48       97.266499     97.263463   0.000000   0.000000

  0.1428571E+00  0.1264038E-14  0.1264038E-14  0.8638376E-03
    1       -2.599688     -2.600880   1.000000   1.000000
    2       15.520351     15.518944   0.000000   0.000000
    3       19.440316     19.438421   0.000000   0.000000
    4       19.440316     19.438421   0.000000   0.000000
    5       22.562846     22.560305   0.000000   0.000000
    6       23.794439     23.790380   0.000000   0.000000
    7       23.794439     23.790380   0.000000   0.000000
    8       25.296224     25.294475   0.000000   0.000000
    9       25.296224     25.294475   0.000000   0.000000
   10       28.476814     28.476044   0.000000   0.000000
   11       28.583497     28.581325   0.000000   0.000000
   12       35.034510     35.032892   0.000000   0.000000
   13       35.786045     35.784721   0.000000   0.000000
   14       35.786045     35.784721   0.000000   0.000000
   15       43.080403     43.078396   0.000000   0.000000
   16       53.642664     53.640846   0.000000   0.000000
   17       53.642664     53.640847   0.000000   0.000000
   18       54.562818     54.562081   0.000000   0.000000
   19       56.475267     56.474549   0.000000   0.000000
   20       56.496910     56.495425   0.000000   0.000000
   21       56.496910     56.495425   0.000000   0.000000
   22       59.083513     59.081367   0.000000   0.000000
   23       61.579742     61.578796   0.000000   0.000000
   24       61.579742     61.578797   0.000000   0.000000
   25       65.568853     65.565529   0.000000   0.000000
   26       70.013225     70.012521   0.000000   0.000000
   27       71.107884     71.105966   0.000000   0.000000
   28       71.107885     71.105967   0.000000   0.000000
   29       73.013113     73.011526   0.000000   0.000000
   30       73.013113     73.011528   0.000000   0.000000
   31       80.104350     80.102485   0.000000   0.000000
   32       80.104350     80.102485   0.000000   0.000000
   33       80.478536     80.475456   0.000000   0.000000
   34       84.259159     84.260052   0.000000   0.000000
   35       84.259159     84.260052   0.000000   0.000000
   36       85.545133     85.543587   0.000000   0.000000
   37       86.551219     86.550309   0.000000   0.000000
   38       86.756957     86.755743   0.000000   0.000000
   39       86.756957     86.755743   0.000000   0.000000
   40       89.407454     89.406429   0.000000   0.000000
   41       89.738132     89.734244   0.000000   0.000000
   42       90.429919     90.428357   0.000000   0.000000
   43       90.429919     90.428358   0.000000   0.000000
   44       94.016097     94.017404   0.000000   0.000000
   45       96.811896     96.812720   0.000000   0.000000
   46       96.811896     96.812720   0.000000   0.000000
   47       98.646318     98.643840   0.000000   0.000000
   48       98.646318     98.643841   0.000000   0.000000

  0.1904762E+00  0.1270900E-14  0.1270900E-14  0.8638376E-03
    1       -2.171782     -2.172975   1.000000   1.000000
    2       13.635454     13.634088   0.000000   0.000000
    3       19.106135     19.104129   0.000000   0.000000
    4       19.106135     19.104129   0.000000   0.000000
    5       22.408823     22.406465   0.000000   0.000000
    6       23.688392     23.685061   0.000000   0.000000
    7       23.688392     23.685061   0.000000   0.000000
    8       25.449847     25.447578   0.000000   0.000000
    9       25.449847     25.447578   0.000000   0.000000
   10       27.735161     27.733064   0.000000   0.000000
   11       30.306684     30.305690   0.000000   0.000000
   12       36.775777     36.773821   0.000000   0.000000
   13       37.570194     37.568643   0.000000   0.000000
   14       37.570194     37.568643   0.000000   0.000000
   15       44.399844     44.398040   0.000000   0.000000
   16       51.274947     51.273198   0.000000   0.000000
   17       51.274947     51.273199   0.000000   0.000000
   18       53.713615     53.712872   0.000000   0.000000
   19       56.398378     56.397002   0.000000   0.000000
   20       56.398378     56.397002   0.000000   0.000000
   21       56.575955     56.575164   0.000000   0.000000
   22       58.806247     58.804340   0.000000   0.000000
   23       61.760776     61.759722   0.000000   0.000000
   24       61.760776     61.759723   0.000000   0.000000
   25       65.943413     65.939990   0.000000   0.000000
   26       68.651682     68.650731   0.000000   0.000000
   27       70.891954     70.890008   0.000000   0.000000
   28       70.891954     70.890009   0.000000   0.000000
   29       74.160316     74.158839   0.000000   0.000000
   30       74.160316     74.158840   0.000000   0.000000
   31       78.514865     78.511344   0.000000   0.000000
   32       78.833288     78.831615   0.000000   0.000000
   33       78.833288     78.831616   0.000000   0.000000
   34       82.489853     82.490693   0.000000   0.000000
   35       82.489853     82.490694   0.000000   0.000000
   36       84.450059     84.449265   0.000000   0.000000
   37       84.936272     84.936609   0.000000   0.000000
   38       86.613491     86.612613   0.000000   0.000000
   39       86.613491     86.612613   0.000000   0.000000
   40       87.801980     87.800857   0.000000   0.000000
   41       89.411873     89.407148   0.000000   0.000000
   42       89.943700     89.942043   0.000000   0.000000
   43       89.943700     89.942045   0.000000   0.000000
   44       93.842725     93.843833   0.000000   0.000000
   45       97.317717     97.317604   0.000000   0.000000
   46       97.317717     97.317604   0.000000   0.000000
   47       99.731459     99.730724   0.000000   0.000000
   48       99.731459     99.730725   0.000000   0.000000

  0.2380952E+00  0.1264385E-14  0.1264385E-14  0.8638376E-03
    1       -1.623468     -1.624661   1.000000   1.000000
    2       11.818822     11.817489   0.000000   0.000000
    3       18.865065     18.862993   0.000000   0.000000
    4       18.865065     18.862993   0.000000   0.000000
    5       22.280062     22.277823   0.000000   0.000000
    6       22.872263     22.869541   0.000000   0.000000
    7       22.872263     22.869542   0.000000   0.000000
    8       26.479753     26.476960   0.000000   0.000000
    9       26.479753     26.476961   0.000000   0.000000
   10       26.866159     26.864081   0.000000   0.000000
   11       32.069713     32.068525   0.000000   0.000000
   12       38.853518     38.851254   0.000000   0.000000
   13       39.470292     39.468511   0.000000   0.000000
   14       39.470292     39.468511   0.000000   0.000000
   15       45.893815     45.892238   0.000000   0.000000
   16       48.933998     48.932440   0.000000   0.000000
   17       48.933998     48.932440   0.000000   0.000000
   18       52.701425     52.700745   0.000000   0.000000
   19       56.375420     56.374075   0.000000   0.000000
   20       56.375421     56.374075   0.000000   0.000000
   21       56.692114     56.691238   0.000000   0.000000
   22       58.360351     58.358739   0.000000   0.000000
   23       62.005773     62.004595   0.000000   0.000000
   24       62.005774     62.004596   0.000000   0.000000
   25       66.412955     66.409389   0.000000   0.000000
   26       67.318773     67.317313   0.000000   0.000000
   27       69.363513     69.361326   0.000000   0.000000
   28       69.363513     69.361327   0.000000   0.000000
   29       74.584585     74.583928   0.000000   0.000000
   30       74.584587     74.583929   0.000000   0.000000
   31       76.909448     76.905713   0.000000   0.000000
   32       78.890742     78.889375   0.000000   0.000000
   33       78.890744     78.889376   0.000000   0.000000
   34       80.801044     80.801408   0.000000   0.000000
   35       80.801044     80.801409   0.000000   0.000000
   36       80.895637     80.896456   0.000000   0.000000
   37       82.499418     82.498787   0.000000   0.000000
   38       87.220198     87.219371   0.000000   0.000000
   39       87.220199     87.219373   0.000000   0.000000
   40       88.821999     88.819244   0.000000   0.000000
   41       89.643774     89.642092   0.000000   0.000000
   42       89.643776     89.642093   0.000000   0.000000
   43       90.104250     90.101610   0.000000   0.000000
   44       93.304320     93.305114   0.000000   0.000000
   45       97.367742     97.367121   0.000000   0.000000
   46       97.367767     97.367170   0.000000   0.000000
   47      101.278584    101.277976   0.000000   0.000000
   48      101.290732    101.290674   0.000000   0.000000

  0.2857143E+00  0.1229781E-14  0.1229781E-14  0.8638376E-03
    1       -0.956136     -0.957328   1.000000   1.000000
    2       10.084838     10.083532   0.000000   0.000000
    3       18.722497     18.720378   0.000000   0.000000
    4       18.722497     18.720378   0.000000   0.000000
    5       22.034404     22.031918   0.000000   0.000000
    6       22.034404     22.031918   0.000000   0.000000
    7       22.214368     22.212217   0.000000   0.000000
    8       26.020099     26.018021   0.000000   0.000000
    9       27.706795     27.703761   0.000000   0.000000
   10       27.706795     27.703761   0.000000   0.000000
   11       33.773241     33.771835   0.000000   0.000000
   12       41.161529     41.158962   0.000000   0.000000
   13       41.333476     41.331376   0.000000   0.000000
   14       41.333476     41.331376   0.000000   0.000000
   15       46.844212     46.842997   0.000000   0.000000
   16       46.844212     46.842998   0.000000   0.000000
   17       47.445016     47.443639   0.000000   0.000000
   18       51.630608     51.630141   0.000000   0.000000
   19       56.354534     56.353203   0.000000   0.000000
   20       56.354535     56.353204   0.000000   0.000000
   21       56.818978     56.818001   0.000000   0.000000
   22       57.744405     57.743085   0.000000   0.000000
   23       62.210472     62.209053   0.000000   0.000000
   24       62.210472     62.209055   0.000000   0.000000
   25       65.955704     65.953575   0.000000   0.000000
   26       66.963231     66.959463   0.000000   0.000000
   27       67.226179     67.224174   0.000000   0.000000
   28       67.226179     67.224174   0.000000   0.000000
   29       74.290132     74.289837   0.000000   0.000000
   30       74.290133     74.289837   0.000000   0.000000
   31       75.147695     75.144619   0.000000   0.000000
   32       77.701795     77.702331   0.000000   0.000000
   33       78.910705     78.911397   0.000000   0.000000
   34       78.910706     78.911397   0.000000   0.000000
   35       79.964200     79.962750   0.000000   0.000000
   36       79.964205     79.962750   0.000000   0.000000
   37       80.712647     80.712236   0.000000   0.000000
   38       88.621825     88.620750   0.000000   0.000000
   39       88.621826     88.620751   0.000000   0.000000
   40       88.701792     88.698430   0.000000   0.000000
   41       89.431657     89.430005   0.000000   0.000000
   42       89.431666     89.430008   0.000000   0.000000
   43       91.292826     91.292122   0.000000   0.000000
   44       93.087854     93.087653   0.000000   0.000000
   45       97.614127     97.613221   0.000000   0.000000
   46       97.614123     97.613242   0.000000   0.000000
   47      101.540991    101.539792   0.000000   0.000000
   48      102.836393    102.836488   0.000000   0.000000

  0.3333333E+00  0.1237143E-14  0.1237143E-14  0.8638376E-03
    1       -0.171408     -0.172599   1.000000   1.000000
    2        8.441950      8.440663   0.110255   0.111237
    3       18.680878     18.678720   0.000000   0.000000
    4       18.680878     18.678720   0.000000   0.000000
    5       21.268384     21.266032   0.000000   0.000000
    6       21.268384     21.266032   0.000000   0.000000
    7       22.233399     22.231321   0.000000   0.000000
    8       25.226715     25.224622   0.000000   0.000000
    9       29.026744     29.023482   0.000000   0.000000
   10       29.026744     29.023482   0.000000   0.000000
   11       35.426697     35.425023   0.000000   0.000000
   12       42.383027     42.380645   0.000000   0.000000
   13       42.383026     42.380646   0.000000   0.000000
   14       43.563039     43.560187   0.000000   0.000000
   15       45.809795     45.808949   0.000000   0.000000
   16       45.809795     45.808949   0.000000   0.000000
   17       48.502759     48.501489   0.000000   0.000000
   18       51.115360     51.115310   0.000000   0.000000
   19       56.328346     56.327026   0.000000   0.000000
   20       56.328347     56.327027   0.000000   0.000000
   21       56.964931     56.963695   0.000000   0.000000
   22       56.980250     56.979279   0.000000   0.000000
   23       62.051144     62.049113   0.000000   0.000000
   24       62.051144     62.049113   0.000000   0.000000
   25       64.582073     64.579329   0.000000   0.000000
   26       65.157164     65.155882   0.000000   0.000000
   27       65.157164     65.155883   0.000000   0.000000
   28       67.570699     67.566654   0.000000   0.000000
   29       71.955097     71.954014   0.000000   0.000000
   30       73.980492     73.980272   0.000000   0.000000
   31       73.980493     73.980274   0.000000   0.000000
   32       76.654466     76.653393   0.000000   0.000000
   33       77.689065     77.689608   0.000000   0.000000
   34       77.689066     77.689608   0.000000   0.000000
   35       79.116768     79.116646   0.000000   0.000000
   36       80.308783     80.307846   0.000000   0.000000
   37       80.308783     80.307848   0.000000   0.000000
   38       88.582871     88.579462   0.000000   0.000000
   39       89.233798     89.232209   0.000000   0.000000
   40       89.233804     89.232208   0.000000   0.000000
   41       90.644677     90.643333   0.000000   0.000000
   42       90.644677     90.643333   0.000000   0.000000
   43       90.946158     90.946546   0.000000   0.000000
   44       93.872602     93.871928   0.000000   0.000000
   45       98.283521     98.282349   0.000000   0.000000
   46       98.283512     98.282357   0.000000   0.000000
   47      101.823763    101.821847   0.000000   0.000000
   48      103.862482    103.862457   0.000000   0.000000

  0.3809524E+00  0.1229961E-14  0.1229961E-14  0.8638376E-03
    1        0.728837      0.727648   1.000000   1.000000
    2        6.895798      6.894523   1.058978   1.058706
    3       18.741416     18.739216   0.000000   0.000000
    4       18.741416     18.739217   0.000000   0.000000
    5       20.594231     20.591975   0.000000   0.000000
    6       20.594231     20.591975   0.000000   0.000000
    7       22.349598     22.347590   0.000000   0.000000
    8       24.506475     24.504349   0.000000   0.000000
    9       30.379726     30.376160   0.000000   0.000000
   10       30.379726     30.376161   0.000000   0.000000
   11       37.006113     37.004090   0.000000   0.000000
   12       41.392492     41.390748   0.000000   0.000000
   13       41.392492     41.390749   0.000000   0.000000
   14       45.785654     45.782857   0.000000   0.000000
   15       47.084110     47.082804   0.000000   0.000000
   16       47.084110     47.082804   0.000000   0.000000
   17       48.089037     48.087950   0.000000   0.000000
   18       52.363502     52.363569   0.000000   0.000000
   19       56.042981     56.041892   0.000000   0.000000
   20       56.244288     56.242982   0.000000   0.000000
   21       56.244289     56.242983   0.000000   0.000000
   22       57.135101     57.133906   0.000000   0.000000
   23       60.700981     60.698458   0.000000   0.000000
   24       60.700982     60.698458   0.000000   0.000000
   25       63.313665     63.310567   0.000000   0.000000
   26       64.234837     64.234196   0.000000   0.000000
   27       64.234837     64.234196   0.000000   0.000000
   28       68.189575     68.185162   0.000000   0.000000
   29       68.384239     68.383854   0.000000   0.000000
   30       73.765159     73.764955   0.000000   0.000000
   31       73.765162     73.764958   0.000000   0.000000
   32       76.579617     76.578127   0.000000   0.000000
   33       76.602800     76.603153   0.000000   0.000000
   34       76.602800     76.603153   0.000000   0.000000
   35       77.756524     77.756780   0.000000   0.000000
   36       80.484761     80.484268   0.000000   0.000000
   37       80.484761     80.484269   0.000000   0.000000
   38       88.530740     88.527334   0.000000   0.000000
   39       89.063900     89.062374   0.000000   0.000000
   40       89.063908     89.062372   0.000000   0.000000
   41       90.190694     90.191237   0.000000   0.000000
   42       92.764797     92.763374   0.000000   0.000000
   43       92.764797     92.763376   0.000000   0.000000
   44       94.322092     94.321781   0.000000   0.000000
   45       99.437588     99.436255   0.000000   0.000000
   46       99.437673     99.436290   0.000000   0.000000
   47      102.793361    102.790977   0.000000   0.000000
   48      104.128092    104.127608   0.000000   0.000000

  0.4285714E+00  0.1237656E-14  0.1237656E-14  0.8638376E-03
    1        1.742178      1.740998   1.000000   1.000000
    2        5.450919      5.449645   1.000000   1.000000
    3       18.904625     18.902361   0.000000   0.000000
    4       18.904625     18.902362   0.000000   0.000000
    5       20.019227     20.017065   0.000000   0.000000
    6       20.019227     20.017066   0.000000   0.000000
    7       22.569279     22.567367   0.000000   0.000000
    8       23.873856     23.871655   0.000000   0.000000
    9       31.649273     31.645259   0.000000   0.000000
   10       31.649273     31.645260   0.000000   0.000000
   11       38.408582     38.406087   0.000000   0.000000
   12       39.895437     39.894330   0.000000   0.000000
   13       39.895437     39.894331   0.000000   0.000000
   14       46.240812     46.240311   0.000000   0.000000
   15       48.705008     48.701977   0.000000   0.000000
   16       49.179244     49.177607   0.000000   0.000000
   17       49.179244     49.177607   0.000000   0.000000
   18       54.335325     54.335236   0.000000   0.000000
   19       54.942388     54.941376   0.000000   0.000000
   20       55.920414     55.919102   0.000000   0.000000
   21       55.920414     55.919102   0.000000   0.000000
   22       57.378800     57.377523   0.000000   0.000000
   23       58.729740     58.727400   0.000000   0.000000
   24       58.729741     58.727400   0.000000   0.000000
   25       62.246212     62.243306   0.000000   0.000000
   26       64.187744     64.187098   0.000000   0.000000
   27       64.187744     64.187099   0.000000   0.000000
   28       65.077638     65.077353   0.000000   0.000000
   29       68.735835     68.730986   0.000000   0.000000
   30       73.638741     73.638557   0.000000   0.000000
   31       73.638741     73.638557   0.000000   0.000000
   32       75.810879     75.811099   0.000000   0.000000
   33       75.810879     75.811100   0.000000   0.000000
   34       76.715801     76.716500   0.000000   0.000000
   35       76.761013     76.759398   0.000000   0.000000
   36       80.534272     80.534034   0.000000   0.000000
   37       80.534272     80.534036   0.000000   0.000000
   38       88.549633     88.546183   0.000000   0.000000
   39       88.929032     88.927543   0.000000   0.000000
   40       88.929033     88.927544   0.000000   0.000000
   41       89.501450     89.502078   0.000000   0.000000
   42       94.281935     94.281869   0.000000   0.000000
   43       94.472268     94.470883   0.000000   0.000000
   44       94.472268     94.470884   0.000000   0.000000
   45      100.766117    100.765161   0.000000   0.000000
   46      100.766142    100.765161   0.000000   0.000000
   47      104.411787    104.410429   0.000000   0.000000
   48      104.415672    104.410488   0.000000   0.000000

  0.4761905E+00  0.1230142E-14  0.1230142E-14  0.8638376E-03
    1        2.862815      2.861694   1.000000   1.000000
    2        4.114283      4.112953   1.000000   1.000000
    3       19.168965     19.166481   0.000000   0.000000
    4       19.168965     19.166482   0.000000   0.000000
    5       19.548372     19.546446   0.000000   0.000000
    6       19.548372     19.546446   0.000000   0.000000
    7       22.891375     22.889805   0.000000   0.000000
    8       23.342478     23.339947   0.000000   0.000000
    9       32.537344     32.532810   0.000000   0.000000
   10       32.537344     32.532811   0.000000   0.000000
   11       38.845036     38.844513   0.000000   0.000000
   12       38.845036     38.844513   0.000000   0.000000
   13       39.347137     39.344137   0.000000   0.000000
   14       45.525989     45.526315   0.000000   0.000000
   15       50.267266     50.263704   0.000000   0.000000
   16       51.127913     51.126020   0.000000   0.000000
   17       51.127913     51.126021   0.000000   0.000000
   18       53.738685     53.737431   0.000000   0.000000
   19       54.964188     54.962793   0.000000   0.000000
   20       54.964188     54.962793   0.000000   0.000000
   21       56.037622     56.037344   0.000000   0.000000
   22       57.615729     57.613721   0.000000   0.000000